INSANE! Membrane UpperLeaflet>loPI:POPI:DPPI:PYPI:ERGO=180.0:5.0:3.0:2.0:10.0 LowerLeaflet>loPI:POPI:DPPI:PYPI:ERGO=180.0:5.0:3.0:2.0:10.0
49303
    1loPI    C1    1   4.684  16.132  10.545 -0.0374 -0.0080 -0.0843
    1loPI    C2    2   5.072  16.187  10.628 -0.0130 -0.2710 -0.0158
    1loPI    C3    3   4.793  16.307  10.888  0.0223 -0.0986 -0.0565
    1loPI   PO4    4   4.678  16.124  10.315 -0.1661  0.2881 -0.0054
    1loPI   GL1    5   4.699  15.826  10.005  0.0077 -0.3648 -0.0598
    1loPI   GL2    6   4.435  15.869   9.845 -0.0102 -0.0623 -0.1725
    1loPI   C1A    7   4.925  15.746   9.597  0.0749 -0.0990 -0.0869
    1loPI   C2A    8   4.851  15.671   9.211  0.0196 -0.0325 -0.2245
    1loPI   C3A    9   4.564  15.725   8.838 -0.3550  0.0904 -0.0417
    1loPI   C4A   10   4.592  15.688   8.457  0.1743 -0.2871 -0.1072
    1loPI   C5A   11   4.694  15.891   7.994  0.0536 -0.0921 -0.0562
    1loPI   C6A   12   4.430  16.147   7.912  0.1277  0.0042 -0.1543
    1loPI   C1B   13   4.411  15.842   9.435 -0.3783  0.0498 -0.3241
    1loPI   C2B   14   4.172  15.868   9.153 -0.1766 -0.0876  0.0466
    1loPI   C3B   15   3.858  15.996   9.001 -0.0320  0.3915 -0.0896
    1loPI   C4B   16   3.481  15.805   9.100  0.0952 -0.1966 -0.2370
    2loPI    C1   17   9.693   3.837  10.738 -0.0256  0.0297 -0.2248
    2loPI    C2   18   9.720   3.482  10.556 -0.1932  0.0537 -0.2979
    2loPI    C3   19   9.392   3.575  10.766 -0.0872  0.1070 -0.1546
    2loPI   PO4   20   9.745   4.013  10.555 -0.1504  0.2148  0.2327
    2loPI   GL1   21   9.973   3.989  10.254  0.1489 -0.1393  0.1254
    2loPI   GL2   22   9.824   4.233  10.077  0.0865 -0.0988  0.0367
    2loPI   C1A   23   9.848   3.530  10.053  0.3950 -0.0945  0.0936
    2loPI   C2A   24   9.802   3.487   9.571  0.2850 -0.0195 -0.2443
    2loPI   C3A   25   9.856   3.231   9.275  0.2420  0.2184 -0.0255
    2loPI   C4A   26   9.880   2.995   8.997  0.1392 -0.2568  0.0231
    2loPI   C5A   27  10.026   2.830   8.618  0.0041  0.0049  0.2226
    2loPI   C6A   28  10.302   2.514   8.473  0.0031 -0.0801  0.1146
    2loPI   C1B   29   9.760   3.993   9.793  0.2156 -0.0050 -0.1165
    2loPI   C2B   30   9.556   3.926   9.378  0.0058  0.0981 -0.1374
    2loPI   C3B   31   9.327   3.700   9.008  0.3041  0.3236 -0.2069
    2loPI   C4B   32   9.411   3.712   8.601  0.0908 -0.0805 -0.1152
    3loPI    C1   33   5.421   1.893  10.935 -0.1030  0.1298 -0.0371
    3loPI    C2   34   5.133   1.616  10.905  0.2081 -0.1906 -0.1391
    3loPI    C3   35   5.406   1.591  11.197  0.1856  0.0632 -0.0936
    3loPI   PO4   36   5.462   1.978  10.702 -0.0297 -0.0509  0.0360
    3loPI   GL1   37   5.412   1.843  10.332 -0.0743  0.0721  0.0210
    3loPI   GL2   38   5.124   1.727  10.412  0.0107  0.0697  0.1945
    3loPI   C1A   39   5.372   2.048   9.921 -0.2221 -0.4015 -0.0724
    3loPI   C2A   40   5.186   1.993   9.590  0.0445  0.1983  0.0782
    3loPI   C3A   41   5.177   1.958   9.144 -0.2445  0.0428 -0.1617
    3loPI   C4A   42   5.143   1.949   8.755 -0.1811 -0.0273  0.0542
    3loPI   C5A   43   5.061   1.805   8.360 -0.1356 -0.0665 -0.0701
    3loPI   C6A   44   4.990   2.068   8.038 -0.2989 -0.1735 -0.1607
    3loPI   C1B   45   4.985   1.715   9.984 -0.1674  0.0646  0.0437
    3loPI   C2B   46   4.808   1.648   9.609  0.2578  0.2702 -0.0661
    3loPI   C3B   47   4.808   1.590   9.185  0.0375  0.0277  0.0398
    3loPI   C4B   48   4.816   1.569   8.734 -0.1707 -0.0249 -0.0721
    4loPI    C1   49  10.369  10.854  11.674  0.1027  0.0976  0.0684
    4loPI    C2   50  10.464  10.470  11.734 -0.0437  0.0614  0.0721
    4loPI    C3   51  10.549  10.743  12.013 -0.1645 -0.0084  0.1781
    4loPI   PO4   52  10.456  10.926  11.320 -0.0052  0.0324  0.0550
    4loPI   GL1   53  10.585  10.933  10.912  0.2551  0.2089 -0.0168
    4loPI   GL2   54  10.239  11.029  10.867  0.0022 -0.0870 -0.0657
    4loPI   C1A   55  10.690  11.094  10.487 -0.0587  0.0326  0.1106
    4loPI   C2A   56  10.699  11.132   9.954 -0.0133 -0.1495 -0.2115
    4loPI   C3A   57  10.799  11.006   9.503  0.0067 -0.1861 -0.0170
    4loPI   C4A   58  10.830  11.006   9.173  0.0583  0.2086 -0.0990
    4loPI   C5A   59  10.728  11.116   8.694 -0.1419  0.1924 -0.3755
    4loPI   C6A   60  10.735  11.055   8.212  0.0959  0.1721 -0.2757
    4loPI   C1B   61  10.221  10.986  10.419 -0.0104  0.1950 -0.0735
    4loPI   C2B   62  10.183  10.965  10.020 -0.3053 -0.3745  0.1380
    4loPI   C3B   63  10.278  11.016   9.636  0.1774  0.1460  0.2419
    4loPI   C4B   64  10.239  11.005   9.190  0.0204  0.2905 -0.1329
    5loPI    C1   65  14.613   8.372  11.022 -0.0964  0.2478  0.0092
    5loPI    C2   66  14.688   8.369  11.415  0.0323 -0.0375 -0.0155
    5loPI    C3   67  14.374   8.572  11.273 -0.0024  0.0855  0.2314
    5loPI   PO4   68  14.832   8.348  10.906  0.2089  0.0961 -0.1293
    5loPI   GL1   69  14.701   8.487  10.500 -0.0156  0.2853  0.1276
    5loPI   GL2   70  14.510   8.228  10.430  0.0549  0.1102 -0.1784
    5loPI   C1A   71  15.075   8.543  10.161  0.1088 -0.1027 -0.1184
    5loPI   C2A   72  15.191   8.472   9.700 -0.1329 -0.2101  0.1338
    5loPI   C3A   73  15.100   8.526   9.298  0.1113  0.1080 -0.1953
    5loPI   C4A   74  15.059   8.604   8.904 -0.0493 -0.1015  0.0413
    5loPI   C5A   75  15.137   8.645   8.491  0.3117 -0.2971 -0.1242
    5loPI   C6A   76  14.956   8.788   8.076 -0.1221  0.0239  0.3990
    5loPI   C1B   77  14.644   8.349  10.019  0.0797 -0.1559  0.2037
    5loPI   C2B   78  14.560   8.394   9.600 -0.0083  0.1308 -0.1188
    5loPI   C3B   79  14.552   8.434   9.103  0.0279 -0.1915 -0.0064
    5loPI   C4B   80  14.367   8.474   8.700 -0.1454 -0.3057 -0.2367
    6loPI    C1   81   3.160   7.252  11.086 -0.0256 -0.0238  0.0815
    6loPI    C2   82   3.334   7.503  11.344 -0.1945 -0.0546  0.2274
    6loPI    C3   83   3.544   7.203  11.185  0.0215  0.2022  0.0179
    6loPI   PO4   84   2.990   7.376  10.886 -0.2413  0.2129  0.1868
    6loPI   GL1   85   2.951   7.448  10.393 -0.1340 -0.2166  0.0557
    6loPI   GL2   86   3.266   7.304  10.470 -0.0710  0.1188 -0.0784
    6loPI   C1A   87   2.751   7.404  10.076  0.2822  0.1184  0.2956
    6loPI   C2A   88   2.692   7.404   9.702  0.3092  0.1207 -0.0191
    6loPI   C3A   89   2.735   7.352   9.325 -0.2247  0.0651  0.2705
    6loPI   C4A   90   2.717   7.393   8.871  0.1440  0.0299 -0.1538
    6loPI   C5A   91   2.788   7.497   8.400  0.1083  0.1281 -0.1652
    6loPI   C6A   92   2.826   7.545   7.985  0.1496  0.0030  0.1677
    6loPI   C1B   93   3.268   7.258  10.063  0.1856  0.0612 -0.2658
    6loPI   C2B   94   3.232   7.283   9.676  0.1285  0.0116 -0.0497
    6loPI   C3B   95   3.233   7.270   9.196 -0.2624  0.1111 -0.1554
    6loPI   C4B   96   3.188   7.355   8.695 -0.3126 -0.0979 -0.2606
    7loPI    C1   97   2.162   7.136  10.961 -0.0251  0.0537  0.0963
    7loPI    C2   98   2.193   7.403  11.257 -0.1336 -0.0774  0.2274
    7loPI    C3   99   1.933   7.101  11.287 -0.0092 -0.2006  0.0823
    7loPI   PO4  100   2.141   7.204  10.718 -0.1892 -0.3488 -0.1119
    7loPI   GL1  101   2.012   7.075  10.293  0.1706 -0.2371 -0.1905
    7loPI   GL2  102   2.186   7.263  10.257  0.0054 -0.1053  0.0896
    7loPI   C1A  103   1.949   7.129   9.855 -0.3387 -0.2986 -0.0898
    7loPI   C2A  104   1.847   7.087   9.384 -0.5517  0.2902 -0.0063
    7loPI   C3A  105   1.877   7.026   8.889  0.1469  0.1199 -0.0129
    7loPI   C4A  106   1.930   7.149   8.505  0.3097 -0.1665  0.1638
    7loPI   C5A  107   2.170   7.148   8.151 -0.1577 -0.0285  0.0885
    7loPI   C6A  108   2.412   7.310   7.866 -0.0308  0.1415 -0.0895
    7loPI   C1B  109   2.206   7.543   9.813  0.0347  0.0669 -0.1010
    7loPI   C2B  110   2.189   7.459   9.423 -0.0465 -0.0997 -0.2909
    7loPI   C3B  111   2.158   7.465   8.957 -0.0761  0.1269 -0.0015
    7loPI   C4B  112   2.249   7.523   8.514  0.0644 -0.0686 -0.5831
    8loPI    C1  113   5.610  10.229  10.487 -0.0157 -0.1027  0.0386
    8loPI    C2  114   5.539  10.191  10.879 -0.0551 -0.1348  0.0283
    8loPI    C3  115   5.340  10.464  10.664 -0.0355 -0.1190  0.0303
    8loPI   PO4  116   5.833  10.341  10.423  0.2278 -0.0142 -0.1813
    8loPI   GL1  117   5.955  10.491  10.008  0.0768  0.2339  0.0478
    8loPI   GL2  118   5.796  10.802  10.260 -0.2349  0.2705 -0.0517
    8loPI   C1A  119   5.859  10.610   9.627  0.2633 -0.0345 -0.0098
    8loPI   C2A  120   5.945  10.840   9.163 -0.2114  0.1278  0.2118
    8loPI   C3A  121   5.869  10.878   8.664  0.0863  0.0336  0.0931
    8loPI   C4A  122   5.529  10.951   8.340 -0.1341 -0.0743  0.1596
    8loPI   C5A  123   5.375  11.156   8.020  0.0784 -0.3189 -0.1271
    8loPI   C6A  124   5.672  11.052   7.692  0.0182 -0.2638  0.1892
    8loPI   C1B  125   5.740  11.062   9.820 -0.3249  0.1759 -0.3200
    8loPI   C2B  126   5.793  11.238   9.422  0.0445 -0.2534 -0.0351
    8loPI   C3B  127   5.752  11.333   8.923  0.0876 -0.0133  0.0555
    8loPI   C4B  128   5.450  11.364   8.700 -0.1361 -0.0111 -0.0941
    9loPI    C1  129   5.519   8.654  11.014  0.1924  0.1132 -0.1364
    9loPI    C2  130   5.843   8.530  11.214 -0.0736 -0.1890  0.1207
    9loPI    C3  131   5.550   8.720  11.408 -0.1036 -0.0182 -0.0884
    9loPI   PO4  132   5.418   8.426  10.772  0.1188 -0.1976 -0.2195
    9loPI   GL1  133   5.257   8.365  10.389 -0.1978  0.2582 -0.3642
    9loPI   GL2  134   5.452   8.257  10.013  0.1758  0.0593  0.0666
    9loPI   C1A  135   4.962   8.224  10.089  0.0627 -0.0074 -0.2713
    9loPI   C2A  136   4.909   8.182   9.635  0.2922 -0.1084 -0.1115
    9loPI   C3A  137   4.821   8.057   9.205  0.1629 -0.1067 -0.0306
    9loPI   C4A  138   4.892   8.089   8.768 -0.0750  0.0564  0.1160
    9loPI   C5A  139   5.049   7.963   8.348 -0.1798 -0.0407 -0.2747
    9loPI   C6A  140   4.840   7.747   7.962 -0.1697 -0.1471  0.0543
    9loPI   C1B  141   5.344   8.058   9.623 -0.0755  0.2954 -0.0327
    9loPI   C2B  142   5.293   8.029   9.266  0.2487  0.1803 -0.2406
    9loPI   C3B  143   5.433   8.115   8.884  0.2728 -0.0067 -0.1342
    9loPI   C4B  144   5.575   8.372   8.478  0.0545  0.0302  0.4156
   10loPI    C1  145   1.747   7.984  10.784  0.1523  0.1305  0.0853
   10loPI    C2  146   2.002   8.029  10.479  0.1362 -0.1106  0.0343
   10loPI    C3  147   2.013   7.696  10.701 -0.0554 -0.0702  0.1060
   10loPI   PO4  148   1.482   7.935  10.663  0.0100  0.1870 -0.5556
   10loPI   GL1  149   1.507   7.799  10.301 -0.0958  0.0350  0.0293
   10loPI   GL2  150   1.810   7.676  10.191 -0.0135 -0.1683  0.0353
   10loPI   C1A  151   1.255   7.732   9.929 -0.1305 -0.0608  0.0989
   10loPI   C2A  152   1.260   7.714   9.454 -0.0426 -0.0751  0.2368
   10loPI   C3A  153   1.208   7.600   9.039  0.4766  0.1494 -0.4297
   10loPI   C4A  154   1.178   7.592   8.636  0.0259 -0.1409 -0.0150
   10loPI   C5A  155   1.216   7.323   8.270 -0.3421  0.0668  0.1599
   10loPI   C6A  156   0.958   7.132   7.970  0.0239 -0.0979 -0.0002
   10loPI   C1B  157   1.672   7.639   9.719  0.1478  0.0585 -0.0400
   10loPI   C2B  158   1.688   7.504   9.238  0.2250 -0.1096 -0.2139
   10loPI   C3B  159   1.717   7.498   8.707  0.1321 -0.2662 -0.0279
   10loPI   C4B  160   1.913   7.553   8.233 -0.0230  0.2452 -0.0188
   11loPI    C1  161   0.887  10.739  10.990  0.0315  0.1126  0.2190
   11loPI    C2  162   1.001  10.462  11.256  0.3475  0.0345  0.0085
   11loPI    C3  163   1.246  10.764  11.164  0.1724  0.1545 -0.0712
   11loPI   PO4  164   0.814  10.637  10.755  0.2039 -0.2278  0.2372
   11loPI   GL1  165   0.829  10.751  10.419 -0.2034  0.1154 -0.2266
   11loPI   GL2  166   0.709  11.048  10.473 -0.1774 -0.0658 -0.1024
   11loPI   C1A  167   1.059  10.608  10.038  0.0645  0.1813  0.1925
   11loPI   C2A  168   1.039  10.577   9.554 -0.3021 -0.2314  0.0834
   11loPI   C3A  169   1.123  10.574   9.099 -0.2433 -0.0400  0.0706
   11loPI   C4A  170   1.215  10.602   8.680 -0.1741 -0.0042  0.2719
   11loPI   C5A  171   1.141  10.761   8.315  0.0731 -0.0505 -0.1621
   11loPI   C6A  172   1.049  10.999   7.890 -0.0288  0.1504 -0.0079
   11loPI   C1B  173   0.679  10.949  10.005  0.3732  0.2806 -0.1532
   11loPI   C2B  174   0.651  10.876   9.570 -0.2034 -0.0078  0.0810
   11loPI   C3B  175   0.766  10.934   9.177 -0.0380  0.1911 -0.2089
   11loPI   C4B  176   0.910  11.004   8.798 -0.0650  0.2138  0.1564
   12loPI    C1  177  11.111   0.981  11.002  0.1914 -0.0019  0.1507
   12loPI    C2  178  10.762   1.144  11.110 -0.0249 -0.2428 -0.1635
   12loPI    C3  179  11.033   1.049  11.388 -0.1467  0.0796  0.0719
   12loPI   PO4  180  11.244   1.171  10.861  0.0698  0.2415 -0.1625
   12loPI   GL1  181  11.270   1.381  10.485  0.1389 -0.1771  0.0186
   12loPI   GL2  182  11.361   1.575  10.568  0.1004 -0.0991  0.2775
   12loPI   C1A  183  11.307   1.387  10.092  0.0882  0.3504  0.3405
   12loPI   C2A  184  11.366   1.255   9.651 -0.1368 -0.1111  0.0747
   12loPI   C3A  185  11.449   1.347   9.221 -0.1237  0.0371  0.0713
   12loPI   C4A  186  11.399   1.237   8.878  0.0625  0.1247 -0.0302
   12loPI   C5A  187  11.658   1.302   8.493  0.0280  0.1914 -0.1821
   12loPI   C6A  188  11.934   1.115   8.104 -0.0835 -0.0300 -0.0566
   12loPI   C1B  189  11.672   1.700  10.251  0.1383  0.0766 -0.1003
   12loPI   C2B  190  11.735   1.691   9.862 -0.3906  0.0920 -0.0226
   12loPI   C3B  191  11.802   1.689   9.394 -0.0700 -0.0407 -0.1103
   12loPI   C4B  192  11.898   1.579   8.960 -0.0178  0.3306  0.0693
   13loPI    C1  193  17.231  10.211  10.891 -0.0902  0.0247 -0.0154
   13loPI    C2  194  17.533  10.154  11.146  0.1084  0.0419 -0.2432
   13loPI    C3  195  17.213   9.914  11.159  0.1532 -0.0089 -0.0343
   13loPI   PO4  196  17.406  10.186  10.606  0.1983 -0.2419  0.0034
   13loPI   GL1  197  17.439  10.578  10.390  0.0782 -0.0183  0.1487
   13loPI   GL2  198  17.193  10.719  10.295  0.0507 -0.2851 -0.0146
   13loPI   C1A  199  17.401  10.528   9.908 -0.0757  0.0873  0.0877
   13loPI   C2A  200  17.413  10.659   9.393  0.1099  0.0978  0.1187
   13loPI   C3A  201  17.413  10.617   9.009 -0.0191 -0.2505 -0.1907
   13loPI   C4A  202  17.461  10.502   8.692 -0.0976 -0.2560  0.1554
   13loPI   C5A  203  17.661  10.522   8.294 -0.0936 -0.1092  0.2202
   13loPI   C6A  204  17.828  10.354   7.920 -0.0313  0.1555 -0.1575
   13loPI   C1B  205  17.083  10.891   9.857 -0.1660  0.0603  0.3415
   13loPI   C2B  206  17.047  10.997   9.502  0.1662  0.2005 -0.1230
   13loPI   C3B  207  17.071  10.966   9.006  0.0161 -0.0991  0.2795
   13loPI   C4B  208  17.040  10.906   8.548 -0.0747  0.0219  0.3719
   14loPI    C1  209  14.224   7.469  10.867 -0.1491 -0.2350  0.0593
   14loPI    C2  210  14.066   7.313  11.199 -0.2959  0.1242  0.1625
   14loPI    C3  211  14.414   7.508  11.216 -0.0489 -0.2909  0.0115
   14loPI   PO4  212  13.865   7.523  10.782 -0.0869  0.2567  0.4247
   14loPI   GL1  213  13.621   7.464  10.474  0.2256 -0.0310  0.3826
   14loPI   GL2  214  13.538   7.250  10.529  0.0719 -0.2768 -0.0376
   14loPI   C1A  215  13.832   7.630  10.126 -0.0826  0.0922 -0.0646
   14loPI   C2A  216  14.003   7.716   9.836  0.2703  0.0559  0.1843
   14loPI   C3A  217  14.035   7.773   9.404  0.0366 -0.2029  0.1071
   14loPI   C4A  218  13.856   7.845   8.917  0.0784  0.2920 -0.1927
   14loPI   C5A  219  13.883   7.805   8.536 -0.0384 -0.1834 -0.2348
   14loPI   C6A  220  14.026   7.939   8.178  0.1501  0.1972 -0.1296
   14loPI   C1B  221  13.366   7.021  10.137 -0.0032 -0.1342  0.4127
   14loPI   C2B  222  13.311   7.075   9.623 -0.1201  0.0258 -0.2564
   14loPI   C3B  223  13.337   7.167   9.185 -0.1790  0.0890  0.1592
   14loPI   C4B  224  13.303   7.177   8.762 -0.2614  0.1438  0.1264
   15loPI    C1  225  11.194  12.968  10.948 -0.2137  0.2462  0.1089
   15loPI    C2  226  11.258  12.642  11.169 -0.2829  0.1545 -0.0046
   15loPI    C3  227  11.016  12.930  11.304 -0.2374  0.1507  0.0871
   15loPI   PO4  228  11.229  12.830  10.665 -0.3844  0.1333  0.2944
   15loPI   GL1  229  10.896  12.807  10.397 -0.0001  0.0842 -0.0700
   15loPI   GL2  230  10.648  12.989  10.327 -0.2265 -0.2170 -0.0340
   15loPI   C1A  231  11.006  12.666   9.983 -0.0936 -0.0867 -0.1092
   15loPI   C2A  232  10.964  12.463   9.526  0.2674  0.0201  0.4775
   15loPI   C3A  233  10.977  12.671   9.116 -0.0885 -0.1309 -0.2695
   15loPI   C4A  234  11.253  12.586   8.807 -0.0119  0.0251  0.0364
   15loPI   C5A  235  11.633  12.320   8.568  0.1811 -0.0017 -0.0644
   15loPI   C6A  236  11.676  11.941   8.551 -0.0341 -0.0074  0.1263
   15loPI   C1B  237  10.625  13.091  10.003  0.0064  0.1504 -0.0124
   15loPI   C2B  238  10.466  13.366   9.570 -0.0010 -0.4384 -0.0293
   15loPI   C3B  239  10.407  13.469   9.162  0.0136 -0.0854  0.2774
   15loPI   C4B  240  10.339  13.372   8.755 -0.0022  0.2622 -0.2219
   16loPI    C1  241  11.469   8.831  11.082  0.0574  0.1904  0.0356
   16loPI    C2  242  11.496   8.560  11.375 -0.1874  0.0117 -0.1041
   16loPI    C3  243  11.570   8.945  11.452 -0.1810 -0.0438  0.1762
   16loPI   PO4  244  11.593   8.758  10.880  0.3304 -0.1779  0.0057
   16loPI   GL1  245  11.762   8.739  10.537 -0.1623 -0.0379 -0.0250
   16loPI   GL2  246  11.544   8.967  10.428  0.0451  0.0756 -0.1703
   16loPI   C1A  247  11.789   8.625  10.122  0.1399 -0.1340  0.1205
   16loPI   C2A  248  11.804   8.612   9.658  0.0005  0.0563 -0.0105
   16loPI   C3A  249  11.808   8.637   9.251  0.0012 -0.0846  0.0514
   16loPI   C4A  250  11.871   8.593   8.832 -0.4235 -0.0303  0.0388
   16loPI   C5A  251  11.852   8.582   8.405  0.0264 -0.0530  0.1785
   16loPI   C6A  252  11.741   8.320   8.056  0.0378  0.0565  0.0946
   16loPI   C1B  253  11.429   8.931  10.022 -0.2023  0.0418 -0.1188
   16loPI   C2B  254  11.427   8.978   9.553 -0.2782 -0.2386 -0.0092
   16loPI   C3B  255  11.488   8.984   9.137  0.1465  0.0239 -0.0495
   16loPI   C4B  256  11.592   8.999   8.761 -0.0432 -0.0950 -0.3769
   17loPI    C1  257  12.105   7.802  11.419 -0.1507 -0.0899  0.1018
   17loPI    C2  258  12.266   8.168  11.404 -0.2179 -0.0731 -0.3132
   17loPI    C3  259  12.501   7.848  11.452 -0.1308  0.0028 -0.2288
   17loPI   PO4  260  11.958   7.795  11.168  0.4878  0.1296 -0.1495
   17loPI   GL1  261  11.918   8.032  10.696  0.2062  0.2573  0.0729
   17loPI   GL2  262  11.980   8.246  10.521  0.1374 -0.0934  0.4981
   17loPI   C1A  263  11.653   7.965  10.274 -0.0483 -0.0601 -0.1970
   17loPI   C2A  264  11.663   8.143   9.820 -0.0008  0.1845 -0.0148
   17loPI   C3A  265  11.751   8.171   9.384  0.1356  0.1962  0.0475
   17loPI   C4A  266  11.662   8.148   8.866 -0.0047 -0.0008  0.0709
   17loPI   C5A  267  11.743   8.000   8.500  0.0014  0.0015 -0.0055
   17loPI   C6A  268  12.079   7.783   8.419  0.0838 -0.2745 -0.3029
   17loPI   C1B  269  12.097   8.233  10.060 -0.0229 -0.0107 -0.2302
   17loPI   C2B  270  12.192   8.240   9.623 -0.3054  0.1900 -0.0983
   17loPI   C3B  271  12.174   8.238   9.124 -0.1723 -0.0921 -0.2857
   17loPI   C4B  272  12.198   8.240   8.621 -0.0909  0.2466 -0.1753
   18loPI    C1  273   6.704   2.091  10.673  0.2454  0.0411  0.0941
   18loPI    C2  274   6.494   2.281  10.955  0.1674  0.0530  0.0285
   18loPI    C3  275   6.764   2.005  11.059  0.3467  0.2624  0.1292
   18loPI   PO4  276   6.584   1.935  10.508 -0.0204 -0.1527 -0.0516
   18loPI   GL1  277   6.389   1.896  10.139 -0.0289 -0.0420 -0.0367
   18loPI   GL2  278   6.259   2.160  10.146 -0.0680  0.0668  0.2659
   18loPI   C1A  279   6.304   1.893   9.678 -0.2474 -0.0626 -0.0291
   18loPI   C2A  280   6.147   1.792   9.263  0.0359  0.3854 -0.0362
   18loPI   C3A  281   6.165   1.690   8.826 -0.4339  0.2491 -0.1687
   18loPI   C4A  282   6.218   1.685   8.386 -0.0385  0.1566  0.0386
   18loPI   C5A  283   6.023   1.913   7.978 -0.1716 -0.2704 -0.2717
   18loPI   C6A  284   5.853   2.088   7.611 -0.2304 -0.0488  0.2418
   18loPI   C1B  285   5.862   2.046   9.781 -0.0298 -0.0506  0.1977
   18loPI   C2B  286   5.689   1.913   9.458  0.0092  0.2275  0.2874
   18loPI   C3B  287   5.677   1.894   9.014 -0.0251 -0.1102  0.0608
   18loPI   C4B  288   5.629   1.726   8.638 -0.5106  0.0941 -0.1922
   19loPI    C1  289  12.241  12.496  10.567 -0.0881  0.0134  0.0302
   19loPI    C2  290  12.281  12.184  10.815  0.2215  0.0909  0.0825
   19loPI    C3  291  12.005  12.464  10.888  0.1586 -0.0042  0.2129
   19loPI   PO4  292  12.538  12.507  10.558 -0.0912  0.2470 -0.0233
   19loPI   GL1  293  12.813  12.511  10.111 -0.0929 -0.0700  0.1775
   19loPI   GL2  294  12.451  12.435  10.072  0.2262 -0.1820 -0.1181
   19loPI   C1A  295  12.994  12.589   9.711 -0.0629 -0.1469 -0.3162
   19loPI   C2A  296  12.969  12.652   9.334 -0.1971 -0.2260 -0.0696
   19loPI   C3A  297  13.040  12.672   9.000 -0.0558  0.0462 -0.0286
   19loPI   C4A  298  12.827  12.727   8.571 -0.1539 -0.0666  0.0452
   19loPI   C5A  299  12.554  12.746   8.303 -0.0164 -0.1372  0.1161
   19loPI   C6A  300  12.835  12.763   8.063 -0.0112  0.0975  0.2601
   19loPI   C1B  301  12.423  12.394   9.617 -0.0250 -0.0506  0.3615
   19loPI   C2B  302  12.499  12.515   9.235  0.2084 -0.0928  0.2461
   19loPI   C3B  303  12.326  12.863   8.834 -0.2781  0.0064  0.0399
   19loPI   C4B  304  12.236  13.052   8.503 -0.0670  0.1895  0.1594
   20loPI    C1  305  15.620  15.291  11.175 -0.1000  0.0065 -0.0251
   20loPI    C2  306  15.844  15.202  11.495 -0.1560 -0.0287  0.0043
   20loPI    C3  307  15.680  15.565  11.460 -0.2859 -0.0776  0.0967
   20loPI   PO4  308  15.750  15.236  10.897  0.2816 -0.0988 -0.0869
   20loPI   GL1  309  15.779  15.199  10.415 -0.0758  0.1395  0.3077
   20loPI   GL2  310  15.940  15.502  10.484 -0.0769 -0.0912 -0.2340
   20loPI   C1A  311  15.616  15.216  10.055 -0.3006  0.1817  0.0656
   20loPI   C2A  312  15.520  15.245   9.613  0.1992  0.3807  0.0344
   20loPI   C3A  313  15.556  15.315   9.168  0.3154 -0.1127  0.1559
   20loPI   C4A  314  15.507  15.327   8.819  0.3439 -0.0480  0.3473
   20loPI   C5A  315  15.577  15.265   8.346  0.2617 -0.1867 -0.0871
   20loPI   C6A  316  15.579  15.569   8.001 -0.2563  0.1784 -0.2219
   20loPI   C1B  317  16.061  15.396  10.034 -0.1746 -0.0483 -0.0291
   20loPI   C2B  318  16.010  15.413   9.660 -0.0813  0.2191 -0.2887
   20loPI   C3B  319  16.099  15.355   9.242  0.2041  0.0830  0.0532
   20loPI   C4B  320  16.100  15.353   8.787 -0.1036 -0.1595 -0.2981
   21loPI    C1  321  13.487   9.595  10.970  0.0847 -0.0120  0.1376
   21loPI    C2  322  13.851   9.460  11.066  0.0551 -0.1184  0.1021
   21loPI    C3  323  13.554   9.442  11.333  0.1030  0.0726  0.1702
   21loPI   PO4  324  13.571   9.731  10.766  0.0865 -0.1349  0.1197
   21loPI   GL1  325  13.670   9.567  10.398 -0.1044 -0.0073  0.2412
   21loPI   GL2  326  13.953   9.403  10.476 -0.0150 -0.0550 -0.1108
   21loPI   C1A  327  13.458   9.328  10.027 -0.0288 -0.1334 -0.1183
   21loPI   C2A  328  13.509   9.429   9.561 -0.2677 -0.1094  0.0020
   21loPI   C3A  329  13.442   9.541   9.144 -0.1585 -0.0193  0.1867
   21loPI   C4A  330  13.515   9.674   8.700 -0.2318 -0.0924  0.0148
   21loPI   C5A  331  13.515   9.371   8.447  0.1358  0.0528 -0.1942
   21loPI   C6A  332  13.493   9.110   8.051 -0.1653  0.0437  0.0772
   21loPI   C1B  333  13.992   9.582  10.046 -0.0340  0.1665  0.1951
   21loPI   C2B  334  14.038   9.603   9.559  0.0640  0.1964 -0.0238
   21loPI   C3B  335  13.958   9.626   9.075 -0.0196 -0.1430 -0.0875
   21loPI   C4B  336  13.985   9.900   8.707  0.0707 -0.0472 -0.0172
   22loPI    C1  337   7.581   1.369  10.854 -0.0328 -0.2269 -0.0320
   22loPI    C2  338   7.957   1.429  10.975 -0.1322  0.0664  0.1417
   22loPI    C3  339   7.667   1.377  11.245 -0.2417  0.0003  0.0120
   22loPI   PO4  340   7.551   1.501  10.579 -0.0733  0.1750  0.0266
   22loPI   GL1  341   7.515   1.436  10.188  0.0585  0.0818  0.1184
   22loPI   GL2  342   7.249   1.289  10.194  0.1454 -0.1136  0.1672
   22loPI   C1A  343   7.751   1.332   9.830 -0.1551  0.0858 -0.1889
   22loPI   C2A  344   7.847   1.293   9.327 -0.1009 -0.2305 -0.2550
   22loPI   C3A  345   7.910   1.048   8.934  0.0558 -0.0097  0.0368
   22loPI   C4A  346   7.877   0.784   8.551  0.0093 -0.2477 -0.2914
   22loPI   C5A  347   8.157   0.555   8.246 -0.0567 -0.0154  0.1957
   22loPI   C6A  348   8.385   0.369   7.943  0.0076 -0.0063  0.2109
   22loPI   C1B  349   7.403   0.947   9.930  0.1777 -0.0873 -0.0733
   22loPI   C2B  350   7.674   0.818   9.563  0.1744 -0.0704 -0.2037
   22loPI   C3B  351   7.812   0.511   9.285  0.0333  0.1620  0.0013
   22loPI   C4B  352   7.829   0.336   8.914  0.0351  0.0388  0.4505
   23loPI    C1  353   8.446   4.940  10.813  0.1330  0.0454  0.0210
   23loPI    C2  354   8.580   5.192  11.092 -0.1218 -0.0524  0.2361
   23loPI    C3  355   8.509   4.810  11.186  0.3455 -0.2336 -0.1083
   23loPI   PO4  356   8.622   5.026  10.578  0.2179  0.1047  0.0380
   23loPI   GL1  357   8.755   5.212  10.223  0.1028  0.0967 -0.1825
   23loPI   GL2  358   8.937   5.515  10.136  0.0492 -0.2258  0.2130
   23loPI   C1A  359   8.789   5.188   9.787  0.0560  0.2146  0.1214
   23loPI   C2A  360   8.878   5.122   9.333 -0.1788 -0.0266  0.0877
   23loPI   C3A  361   8.979   5.182   8.798  0.0167  0.0319 -0.2967
   23loPI   C4A  362   9.228   5.197   8.428 -0.1798  0.0680  0.1335
   23loPI   C5A  363   9.620   5.138   8.169 -0.1015  0.1167  0.0281
   23loPI   C6A  364   9.681   5.062   7.838  0.2904  0.1992  0.2550
   23loPI   C1B  365   9.225   5.497   9.735  0.2480 -0.3560 -0.3385
   23loPI   C2B  366   9.285   5.516   9.391 -0.0902 -0.2765 -0.2802
   23loPI   C3B  367   9.355   5.306   9.139  0.1510  0.0300  0.1596
   23loPI   C4B  368   9.526   5.146   8.771  0.3780 -0.2586  0.2669
   24loPI    C1  369  14.811   3.028  10.918 -0.0592 -0.3849 -0.2352
   24loPI    C2  370  14.717   2.808  11.238  0.3360 -0.0763  0.1044
   24loPI    C3  371  15.084   2.786  11.082  0.2123 -0.0583 -0.1952
   24loPI   PO4  372  14.714   2.999  10.751 -0.0298  0.0647 -0.2256
   24loPI   GL1  373  14.761   2.811  10.397  0.1873 -0.1877  0.1592
   24loPI   GL2  374  14.400   2.863  10.253  0.2044  0.1568 -0.0465
   24loPI   C1A  375  14.723   2.873   9.899 -0.0897 -0.1091 -0.2069
   24loPI   C2A  376  14.566   2.829   9.419  0.1568  0.1688 -0.0772
   24loPI   C3A  377  14.658   2.828   8.932  0.1223  0.0958  0.2304
   24loPI   C4A  378  14.616   2.764   8.448 -0.0754  0.2159  0.3036
   24loPI   C5A  379  14.730   2.796   8.031 -0.1127  0.4386  0.1037
   24loPI   C6A  380  14.787   2.877   7.599 -0.1294 -0.1853 -0.4870
   24loPI   C1B  381  14.134   2.564  10.013 -0.2022  0.1224  0.1357
   24loPI   C2B  382  14.095   2.520   9.543  0.2016  0.0764  0.0029
   24loPI   C3B  383  14.246   2.505   9.180  0.2753 -0.1852 -0.0230
   24loPI   C4B  384  14.529   2.283   8.898 -0.0433  0.0065 -0.0128
   25loPI    C1  385   8.531  13.366  10.943 -0.1068  0.0191  0.0921
   25loPI    C2  386   8.456  13.135  11.261  0.1825  0.0290  0.1707
   25loPI    C3  387   8.642  13.486  11.308 -0.0003  0.1485  0.0180
   25loPI   PO4  388   8.494  13.193  10.727 -0.2478  0.1604  0.0831
   25loPI   GL1  389   8.157  13.083  10.469 -0.1348  0.0425 -0.0501
   25loPI   GL2  390   8.409  12.816  10.409  0.1724  0.2202 -0.3789
   25loPI   C1A  391   8.189  13.160  10.045  0.3879  0.2377 -0.0960
   25loPI   C2A  392   8.296  13.081   9.745 -0.1562  0.1092  0.0309
   25loPI   C3A  393   8.260  13.002   9.387 -0.2018 -0.0141 -0.0472
   25loPI   C4A  394   8.049  12.998   8.993  0.2197 -0.2754  0.1754
   25loPI   C5A  395   7.942  12.897   8.577  0.1757  0.2659 -0.1146
   25loPI   C6A  396   7.845  12.685   8.276  0.0365 -0.0265 -0.3247
   25loPI   C1B  397   8.268  12.663  10.023 -0.0156 -0.1669  0.0041
   25loPI   C2B  398   8.458  12.576   9.650  0.1307 -0.0923 -0.3086
   25loPI   C3B  399   8.816  12.418   9.361 -0.1630  0.0430  0.3019
   25loPI   C4B  400   9.049  12.505   9.662 -0.0266  0.0366 -0.1427
   26loPI    C1  401   5.304   5.979  10.715  0.1012 -0.1142  0.0942
   26loPI    C2  402   5.366   6.117  11.085  0.0386  0.1538  0.0065
   26loPI    C3  403   5.563   5.794  10.958  0.0105  0.0193  0.2960
   26loPI   PO4  404   5.063   5.993  10.671 -0.1272 -0.0190  0.0892
   26loPI   GL1  405   4.917   5.738  10.349  0.2682 -0.0463 -0.0298
   26loPI   GL2  406   4.835   5.979  10.096  0.3916 -0.2320 -0.0681
   26loPI   C1A  407   4.689   5.439   9.999 -0.2165 -0.4382 -0.3645
   26loPI   C2A  408   4.472   5.356   9.706  0.0083  0.4919  0.4143
   26loPI   C3A  409   4.564   5.369   9.215  0.0578 -0.0672 -0.1506
   26loPI   C4A  410   4.402   5.236   8.828 -0.1161  0.2220  0.1215
   26loPI   C5A  411   4.378   5.190   8.371 -0.1988  0.1018  0.0168
   26loPI   C6A  412   4.068   5.316   8.123  0.0513  0.2539  0.1103
   26loPI   C1B  413   4.916   5.861   9.649  0.0490  0.0750  0.4463
   26loPI   C2B  414   4.916   5.744   9.154  0.0137  0.3359  0.2874
   26loPI   C3B  415   4.694   5.654   8.641  0.2106 -0.3690  0.0653
   26loPI   C4B  416   4.598   5.608   8.197  0.0578 -0.1180 -0.2550
   27loPI    C1  417   5.839  13.362  10.490  0.0438 -0.0261  0.1162
   27loPI    C2  418   5.740  13.401  10.875 -0.0439 -0.2439  0.1172
   27loPI    C3  419   5.893  13.056  10.742  0.0720 -0.1387 -0.0250
   27loPI   PO4  420   5.622  13.414  10.336  0.0832  0.1673 -0.1531
   27loPI   GL1  421   5.435  13.284  10.056  0.0777 -0.0339 -0.2031
   27loPI   GL2  422   5.095  13.291   9.804  0.0483 -0.0531 -0.0907
   27loPI   C1A  423   5.536  13.208   9.621  0.0598 -0.1520 -0.1843
   27loPI   C2A  424   5.546  13.255   9.175  0.0155 -0.0799  0.1005
   27loPI   C3A  425   5.463  13.455   8.837  0.0678  0.1424  0.0672
   27loPI   C4A  426   5.611  13.462   8.462  0.0827 -0.0479 -0.0518
   27loPI   C5A  427   5.717  13.649   8.150 -0.0911  0.1386  0.2529
   27loPI   C6A  428   5.717  13.955   7.807  0.0669  0.4003  0.1762
   27loPI   C1B  429   5.048  13.363   9.373 -0.0016  0.0103  0.1138
   27loPI   C2B  430   5.019  13.610   8.954  0.1772  0.0741  0.0394
   27loPI   C3B  431   5.115  13.673   8.492 -0.2378 -0.0019  0.1695
   27loPI   C4B  432   5.317  13.905   8.172 -0.2263 -0.1544 -0.2908
   28loPI    C1  433  15.857   9.541  10.931  0.0086  0.1883  0.0024
   28loPI    C2  434  15.572   9.559  11.212  0.0866  0.2253  0.0799
   28loPI    C3  435  15.854   9.842  11.195  0.1283  0.1802  0.0136
   28loPI   PO4  436  15.773   9.557  10.754 -0.0208  0.1510 -0.1905
   28loPI   GL1  437  16.053   9.809  10.422 -0.0254 -0.1879 -0.1455
   28loPI   GL2  438  15.938   9.494  10.305  0.0376 -0.0580  0.1504
   28loPI   C1A  439  16.034  10.110  10.054 -0.1218 -0.0981  0.0523
   28loPI   C2A  440  16.010  10.181   9.665  0.4674  0.1717  0.0853
   28loPI   C3A  441  15.939  10.267   9.236 -0.0727  0.1457 -0.2795
   28loPI   C4A  442  15.992  10.214   8.828  0.2188  0.0677 -0.0287
   28loPI   C5A  443  15.871  10.191   8.381 -0.0384 -0.1856 -0.1566
   28loPI   C6A  444  15.620  10.118   7.975  0.0047  0.0902  0.0267
   28loPI   C1B  445  15.866   9.613   9.871  0.0266 -0.0280 -0.0937
   28loPI   C2B  446  15.859   9.702   9.397 -0.0474  0.0941 -0.2219
   28loPI   C3B  447  15.845   9.757   9.016  0.0483 -0.1779  0.1568
   28loPI   C4B  448  15.793   9.745   8.626 -0.0471 -0.0401 -0.0492
   29loPI    C1  449   4.723   0.266  10.676 -0.1533 -0.1313 -0.0923
   29loPI    C2  450   4.471   0.142  10.960 -0.1003  0.2441  0.1257
   29loPI    C3  451   4.813   0.324  11.061  0.1561 -0.0571 -0.1724
   29loPI   PO4  452   4.734   0.089  10.468  0.0923 -0.0238  0.1949
   29loPI   GL1  453   4.879   0.114  10.023  0.0584 -0.2633  0.0354
   29loPI   GL2  454   4.949   0.427  10.019  0.2287 -0.0524 -0.1558
   29loPI   C1A  455   4.907   0.194   9.617  0.1565  0.2130 -0.0743
   29loPI   C2A  456   5.079   0.399   9.209  0.2181  0.0734 -0.0859
   29loPI   C3A  457   5.297   0.697   8.851 -0.2205  0.1277 -0.0663
   29loPI   C4A  458   5.334   0.650   8.381 -0.2206 -0.0180  0.1598
   29loPI   C5A  459   5.351   0.471   7.962 -0.0213  0.2183  0.2570
   29loPI   C6A  460   5.463   0.017   7.814 -0.0339 -0.2873 -0.0185
   29loPI   C1B  461   5.152   0.625   9.612  0.1260 -0.0312 -0.4380
   29loPI   C2B  462   5.017   0.919   9.349 -0.0618  0.0325  0.0126
   29loPI   C3B  463   5.026   1.100   8.948  0.1897  0.1144  0.3666
   29loPI   C4B  464   4.920   0.991   8.573  0.0552 -0.1222 -0.3873
   30loPI    C1  465  18.154  18.139  10.977 -0.1040  0.0757 -0.1972
   30loPI    C2  466  18.258  17.812  11.183  0.2196  0.0838 -0.3430
   30loPI    C3  467  18.077  18.116  11.369  0.1469 -0.0732 -0.1548
   30loPI   PO4  468  18.088  18.105  10.773  0.3372 -0.0253  0.3774
   30loPI   GL1  469  18.041  18.023  10.411  0.0445 -0.0261 -0.1091
   30loPI   GL2  470  18.132  18.388  10.372 -0.1605 -0.4311  0.1578
   30loPI   C1A  471  17.726  18.193  10.130  0.0088  0.3729 -0.5512
   30loPI   C2A  472  17.634  18.376   9.724 -0.1181  0.1994 -0.0945
   30loPI   C3A  473  17.554  18.406   9.379  0.0161 -0.1072  0.0927
   30loPI   C4A  474  17.572  18.583   8.892 -0.2451  0.0447 -0.0299
   30loPI   C5A  475  17.416  18.819   8.518 -0.1170  0.2100 -0.1037
   30loPI   C6A  476  17.462  18.901   8.019  0.1187 -0.0533  0.2631
   30loPI   C1B  477  18.173  18.240  10.014 -0.0395 -0.0036  0.1044
   30loPI   C2B  478  18.138  18.454   9.599 -0.1416 -0.0143 -0.2314
   30loPI   C3B  479  18.115  18.512   9.169  0.2663 -0.0546  0.2777
   30loPI   C4B  480  18.154  18.581   8.797  0.0572  0.2279  0.2977
   31loPI    C1  481  13.926  16.807  11.272 -0.0169 -0.0502 -0.0391
   31loPI    C2  482  13.963  16.545  11.572  0.2464 -0.0133 -0.0372
   31loPI    C3  483  14.093  16.921  11.618  0.3261 -0.0191 -0.2111
   31loPI   PO4  484  13.953  16.641  11.042  0.1775 -0.0876  0.1729
   31loPI   GL1  485  14.067  16.634  10.655  0.0907 -0.1462  0.1105
   31loPI   GL2  486  13.805  16.806  10.559 -0.0374 -0.0649 -0.1537
   31loPI   C1A  487  14.164  16.676  10.238  0.0927 -0.0671 -0.0186
   31loPI   C2A  488  14.186  16.646   9.787 -0.2548 -0.1184 -0.3005
   31loPI   C3A  489  14.008  16.437   9.352 -0.4821  0.1657 -0.0517
   31loPI   C4A  490  13.637  16.420   9.016  0.0608 -0.0455 -0.0142
   31loPI   C5A  491  13.462  16.485   8.600 -0.0914  0.0861  0.1560
   31loPI   C6A  492  13.270  16.539   8.172 -0.2179  0.1002  0.2639
   31loPI   C1B  493  13.660  16.814  10.144 -0.0595 -0.2287  0.0038
   31loPI   C2B  494  13.809  16.900   9.688  0.0209 -0.0998  0.0113
   31loPI   C3B  495  14.237  17.003   9.422  0.4359 -0.1670 -0.1198
   31loPI   C4B  496  14.770  17.076   9.358 -0.1751  0.2555  0.1356
   32loPI    C1  497   0.275   7.234  10.939 -0.1421 -0.0303  0.1924
   32loPI    C2  498  -0.015   7.391  11.166 -0.0289 -0.0452  0.3492
   32loPI    C3  499   0.320   7.599  11.097 -0.1136  0.0099  0.0919
   32loPI   PO4  500   0.108   7.155  10.690  0.2020  0.1837 -0.0766
   32loPI   GL1  501  -0.109   7.085  10.358  0.1741 -0.0723 -0.0573
   32loPI   GL2  502  -0.078   7.419  10.219  0.0423  0.1196 -0.2016
   32loPI   C1A  503  -0.268   6.837  10.092  0.1236 -0.0753  0.2557
   32loPI   C2A  504  -0.312   6.883   9.677 -0.2162 -0.1103  0.1615
   32loPI   C3A  505  -0.317   6.881   9.211  0.2426 -0.1378  0.0642
   32loPI   C4A  506  -0.351   6.818   8.780  0.1813 -0.0256  0.1233
   32loPI   C5A  507  -0.133   7.083   8.497 -0.1268  0.0084  0.0072
   32loPI   C6A  508  -0.017   7.376   8.291 -0.0756 -0.1650  0.2735
   32loPI   C1B  509  -0.492   7.723  10.035 -0.0349 -0.0871  0.0991
   32loPI   C2B  510  -0.579   7.727   9.525  0.2833 -0.1447  0.1820
   32loPI   C3B  511  -0.581   7.820   9.103 -0.0854  0.0148  0.3364
   32loPI   C4B  512  -0.475   8.040   8.574  0.1839 -0.0038 -0.1600
   33loPI    C1  513  11.833   5.485  11.294 -0.1731 -0.2283 -0.0243
   33loPI    C2  514  12.003   5.523  11.653 -0.0511 -0.1598 -0.0890
   33loPI    C3  515  11.642   5.681  11.586 -0.0211 -0.0659 -0.0324
   33loPI   PO4  516  11.997   5.477  11.087 -0.2191 -0.0525  0.1611
   33loPI   GL1  517  12.008   5.412  10.704 -0.1671  0.0777 -0.0783
   33loPI   GL2  518  11.928   5.792  10.607 -0.1113  0.0339  0.2300
   33loPI   C1A  519  12.051   5.299  10.309 -0.1287 -0.2327 -0.0940
   33loPI   C2A  520  12.216   5.082   9.990  0.1991  0.2582 -0.0612
   33loPI   C3A  521  12.265   5.110   9.534  0.1004  0.0748  0.2862
   33loPI   C4A  522  12.248   5.152   9.068  0.1473  0.3199  0.2359
   33loPI   C5A  523  12.525   5.018   8.717 -0.0011  0.2087  0.1930
   33loPI   C6A  524  12.634   4.984   8.343 -0.3105 -0.0061  0.3061
   33loPI   C1B  525  11.949   5.882  10.122  0.0145  0.0322  0.0971
   33loPI   C2B  526  11.913   5.835   9.670  0.3379 -0.1381 -0.1960
   33loPI   C3B  527  12.044   5.967   9.246 -0.0681  0.0294  0.3254
   33loPI   C4B  528  11.939   5.905   8.740 -0.0959 -0.4242 -0.0495
   34loPI    C1  529   6.623  16.932  10.950  0.0487 -0.0358  0.1373
   34loPI    C2  530   6.519  16.830  11.322  0.1735  0.2709  0.2597
   34loPI    C3  531   6.881  16.733  11.182  0.0153 -0.1175  0.1047
   34loPI   PO4  532   6.458  16.849  10.721  0.1015 -0.0683  0.2550
   34loPI   GL1  533   6.308  16.934  10.317 -0.4028 -0.1058 -0.3756
   34loPI   GL2  534   6.320  17.288  10.284 -0.2958  0.2226 -0.0570
   34loPI   C1A  535   6.654  16.860  10.018 -0.0579  0.2017 -0.1095
   34loPI   C2A  536   6.653  16.844   9.645 -0.3522  0.0503  0.0978
   34loPI   C3A  537   6.628  16.800   9.164  0.0069  0.1661 -0.2227
   34loPI   C4A  538   6.541  16.805   8.741 -0.2362 -0.1549  0.1511
   34loPI   C5A  539   6.303  16.645   8.468  0.1245  0.0645  0.2503
   34loPI   C6A  540   6.091  16.647   8.090  0.0256  0.3354 -0.3297
   34loPI   C1B  541   6.460  17.290   9.937  0.0817  0.2793  0.2822
   34loPI   C2B  542   6.369  17.212   9.489  0.0712 -0.2436  0.0138
   34loPI   C3B  543   6.139  17.075   9.102 -0.1649  0.2153 -0.0231
   34loPI   C4B  544   6.143  17.167   8.758  0.1029 -0.0981  0.2720
   35loPI    C1  545   4.362   4.823  10.584 -0.0192  0.0530  0.1174
   35loPI    C2  546   4.261   4.522  10.828 -0.0676 -0.0184  0.0099
   35loPI    C3  547   4.645   4.626  10.786 -0.0831  0.1834  0.3366
   35loPI   PO4  548   4.143   5.045  10.482  0.2586  0.0550  0.1996
   35loPI   GL1  549   3.939   5.095  10.172 -0.0229 -0.0479 -0.0186
   35loPI   GL2  550   4.261   4.998  10.002 -0.3588  0.0321  0.2577
   35loPI   C1A  551   3.799   4.936   9.842 -0.1894 -0.0072  0.0405
   35loPI   C2A  552   3.656   5.057   9.360  0.2190  0.1140  0.0310
   35loPI   C3A  553   3.616   5.088   8.964 -0.2879  0.0099 -0.0732
   35loPI   C4A  554   3.622   4.961   8.522 -0.1536  0.0014  0.0574
   35loPI   C5A  555   3.597   4.792   8.101  0.0800  0.0081  0.3991
   35loPI   C6A  556   3.922   4.880   7.789 -0.1133 -0.2461 -0.1788
   35loPI   C1B  557   4.233   4.934   9.583  0.0826  0.0940  0.2264
   35loPI   C2B  558   4.115   4.990   9.145 -0.0717  0.0554  0.0445
   35loPI   C3B  559   4.063   4.875   8.731 -0.0925 -0.1471  0.0907
   35loPI   C4B  560   4.061   4.841   8.278  0.1456  0.2193  0.0616
   36loPI    C1  561   7.446  10.097  11.418 -0.1761  0.0131  0.0377
   36loPI    C2  562   7.148  10.350  11.505 -0.4768 -0.2677 -0.1493
   36loPI    C3  563   7.267  10.081  11.776 -0.1469  0.0733  0.0551
   36loPI   PO4  564   7.536  10.165  11.136  0.0951  0.1317 -0.1421
   36loPI   GL1  565   7.682  10.004  10.842  0.0107 -0.0743  0.0086
   36loPI   GL2  566   7.362   9.972  10.653 -0.1033 -0.0804  0.2774
   36loPI   C1A  567   7.865  10.044  10.446 -0.2266  0.4909  0.1290
   36loPI   C2A  568   8.045  10.024  10.094  0.2424 -0.0348  0.1097
   36loPI   C3A  569   7.946  10.005   9.635 -0.0369 -0.0570  0.1338
   36loPI   C4A  570   8.143   9.894   9.334 -0.1179  0.2776  0.0040
   36loPI   C5A  571   8.610   9.655   9.166  0.0907 -0.2032  0.1719
   36loPI   C6A  572   8.802   9.397   8.962 -0.0626  0.0999 -0.0169
   36loPI   C1B  573   7.450   9.956  10.209 -0.2086 -0.0232  0.1984
   36loPI   C2B  574   7.434   9.962   9.765  0.0701 -0.0584  0.0529
   36loPI   C3B  575   7.433   9.913   9.279 -0.0827 -0.1203  0.2490
   36loPI   C4B  576   7.230   9.795   8.835 -0.2788 -0.0397 -0.0800
   37loPI    C1  577   8.196   4.040  10.392  0.3011  0.1580 -0.0532
   37loPI    C2  578   8.439   3.731  10.470 -0.0986 -0.0899  0.2494
   37loPI    C3  579   8.276   3.940  10.771 -0.1883  0.1324  0.0501
   37loPI   PO4  580   8.383   4.198  10.178 -0.0488 -0.1516 -0.1942
   37loPI   GL1  581   8.615   4.446   9.765 -0.1907  0.1188 -0.1199
   37loPI   GL2  582   8.279   4.471   9.736  0.0058 -0.0065 -0.0809
   37loPI   C1A  583   8.572   4.782   9.492 -0.0504  0.0566  0.2209
   37loPI   C2A  584   8.545   4.896   9.007  0.2879 -0.1718 -0.1148
   37loPI   C3A  585   8.414   4.962   8.639 -0.0568  0.2126 -0.2734
   37loPI   C4A  586   8.418   5.047   8.212 -0.1480  0.2894 -0.2851
   37loPI   C5A  587   8.628   5.055   7.872 -0.1672 -0.0347 -0.0820
   37loPI   C6A  588   8.877   5.151   7.452 -0.2143  0.3989 -0.0701
   37loPI   C1B  589   8.428   4.278   9.379  0.3409  0.0581  0.1194
   37loPI   C2B  590   8.617   4.356   9.055  0.3127  0.2723  0.2424
   37loPI   C3B  591   8.745   4.613   8.687 -0.0921  0.1603  0.4002
   37loPI   C4B  592   8.856   4.868   8.373 -0.0987  0.0076  0.1080
   38loPI    C1  593  15.035  17.143  11.228 -0.2081 -0.0919  0.0020
   38loPI    C2  594  14.919  17.496  11.377  0.0046 -0.0519  0.0779
   38loPI    C3  595  15.067  17.216  11.620 -0.0324 -0.1416 -0.0021
   38loPI   PO4  596  14.811  17.077  11.063  0.3764 -0.4040  0.1204
   38loPI   GL1  597  14.632  17.170  10.693  0.0140 -0.0862  0.1140
   38loPI   GL2  598  14.743  16.817  10.602 -0.1117 -0.0554  0.0376
   38loPI   C1A  599  14.692  17.467  10.396 -0.2073  0.0279  0.2144
   38loPI   C2A  600  14.616  17.876  10.109 -0.0190  0.1978 -0.0129
   38loPI   C3A  601  14.768  18.197   9.831 -0.1961  0.1258 -0.1201
   38loPI   C4A  602  14.674  18.401   9.439 -0.0846  0.3130  0.0719
   38loPI   C5A  603  14.409  18.206   9.246  0.2596  0.2948  0.3534
   38loPI   C6A  604  14.121  17.914   9.134 -0.4213 -0.0433 -0.3081
   38loPI   C1B  605  14.661  16.986  10.204 -0.0394  0.2419 -0.4572
   38loPI   C2B  606  14.621  16.878   9.740 -0.1113 -0.2916 -0.1001
   38loPI   C3B  607  14.936  16.595   9.446 -0.0377  0.1040 -0.1175
   38loPI   C4B  608  15.020  16.704   9.077  0.0719 -0.3577  0.0756
   39loPI    C1  609  18.148   1.428  10.635 -0.0049 -0.0728  0.0293
   39loPI    C2  610  18.371   1.402  10.966 -0.0963  0.0012  0.0973
   39loPI    C3  611  18.383   1.734  10.743 -0.0423 -0.0447  0.0316
   39loPI   PO4  612  18.109   1.188  10.553  0.0462  0.1181  0.1267
   39loPI   GL1  613  17.926   1.025  10.198  0.0367  0.1743  0.2602
   39loPI   GL2  614  17.605   1.035  10.095 -0.0016  0.2679  0.0252
   39loPI   C1A  615  18.109   1.074   9.882  0.0939 -0.0668 -0.0243
   39loPI   C2A  616  17.980   1.148   9.479  0.0036 -0.2639 -0.1949
   39loPI   C3A  617  18.006   1.254   8.953  0.0070  0.1440 -0.2724
   39loPI   C4A  618  17.937   1.258   8.490 -0.0896  0.0632 -0.0438
   39loPI   C5A  619  17.973   1.019   8.077  0.2443 -0.0094  0.1733
   39loPI   C6A  620  17.885   0.634   7.770  0.0813  0.0269  0.1713
   39loPI   C1B  621  17.524   1.068   9.651  0.1646 -0.1271 -0.2286
   39loPI   C2B  622  17.526   1.102   9.247  0.1017 -0.1087 -0.2505
   39loPI   C3B  623  17.514   1.137   8.809 -0.2223  0.3112 -0.0537
   39loPI   C4B  624  17.337   1.306   8.446 -0.2011 -0.4293  0.0030
   40loPI    C1  625   5.962   9.056  10.446  0.0325  0.1353 -0.1870
   40loPI    C2  626   5.947   8.762  10.717  0.3282  0.0162 -0.2966
   40loPI    C3  627   5.864   9.138  10.826  0.0847 -0.0850 -0.1246
   40loPI   PO4  628   6.044   8.862  10.219  0.1526 -0.2948 -0.1668
   40loPI   GL1  629   6.261   8.934   9.943  0.1628  0.1454 -0.0929
   40loPI   GL2  630   6.537   8.853  10.010  0.0535 -0.1482 -0.0642
   40loPI   C1A  631   6.154   8.835   9.480  0.1963 -0.1321  0.2145
   40loPI   C2A  632   6.171   8.623   9.147 -0.0996  0.0381  0.1162
   40loPI   C3A  633   6.246   8.369   8.840  0.3774  0.0797 -0.2313
   40loPI   C4A  634   6.077   8.240   8.483  0.1965 -0.3170 -0.3396
   40loPI   C5A  635   5.997   8.444   8.101  0.0588  0.0833 -0.0536
   40loPI   C6A  636   6.083   8.385   7.748  0.0350  0.3943 -0.0558
   40loPI   C1B  637   6.643   8.904   9.588  0.1672 -0.0551 -0.1103
   40loPI   C2B  638   6.604   8.957   9.145  0.3237  0.3239  0.0674
   40loPI   C3B  639   6.800   8.881   8.675  0.1623 -0.1453 -0.2791
   40loPI   C4B  640   6.876   9.035   8.256 -0.3730 -0.1574  0.1284
   41loPI    C1  641  13.690  12.811  10.925  0.1257 -0.1776 -0.0730
   41loPI    C2  642  13.832  13.131  10.731 -0.2264  0.0029 -0.0418
   41loPI    C3  643  13.921  13.075  11.117 -0.1722  0.0678 -0.0448
   41loPI   PO4  644  13.691  12.575  10.699 -0.3025 -0.0135  0.1539
   41loPI   GL1  645  13.987  12.463  10.377 -0.2272 -0.1104 -0.0504
   41loPI   GL2  646  13.928  12.243  10.165 -0.1086 -0.1076 -0.0940
   41loPI   C1A  647  13.965  12.613   9.908  0.1032 -0.1422  0.0528
   41loPI   C2A  648  13.995  12.515   9.466  0.0537  0.0097 -0.1773
   41loPI   C3A  649  13.917  12.459   9.050  0.2403 -0.0392 -0.0226
   41loPI   C4A  650  13.539  12.619   8.797 -0.0612 -0.0511  0.1214
   41loPI   C5A  651  13.385  12.636   8.437  0.0051  0.0058  0.1438
   41loPI   C6A  652  13.516  12.372   8.167  0.1597  0.2512  0.2551
   41loPI   C1B  653  14.128  12.059   9.795  0.1222 -0.0589 -0.0263
   41loPI   C2B  654  14.052  12.002   9.347  0.0787  0.0194 -0.1640
   41loPI   C3B  655  13.974  11.978   8.842  0.2164 -0.0812 -0.0761
   41loPI   C4B  656  13.870  12.252   8.483  0.2020 -0.2248  0.0787
   42loPI    C1  657   2.350   3.750  10.857 -0.0454  0.0350 -0.1027
   42loPI    C2  658   2.406   3.468  11.135 -0.2505 -0.0903 -0.1865
   42loPI    C3  659   2.301   3.838  11.244  0.3560  0.0530 -0.0514
   42loPI   PO4  660   2.392   3.586  10.600  0.0276 -0.1005 -0.1287
   42loPI   GL1  661   2.392   3.657  10.147 -0.3385  0.0030  0.0774
   42loPI   GL2  662   2.380   3.925  10.156 -0.1003 -0.0726 -0.0177
   42loPI   C1A  663   2.236   3.482   9.796  0.1867  0.0775  0.2052
   42loPI   C2A  664   2.239   3.485   9.409 -0.2068 -0.1542  0.1034
   42loPI   C3A  665   2.229   3.517   8.991 -0.2417 -0.0767 -0.0743
   42loPI   C4A  666   2.342   3.462   8.584 -0.0205  0.0613  0.1785
   42loPI   C5A  667   2.585   3.490   8.197 -0.1025 -0.2710  0.0619
   42loPI   C6A  668   2.987   3.414   8.180  0.3019  0.0066  0.1565
   42loPI   C1B  669   2.609   3.842   9.753  0.2304  0.2114 -0.1196
   42loPI   C2B  670   2.662   3.816   9.373  0.4839  0.4007  0.0054
   42loPI   C3B  671   2.712   3.927   8.878  0.1748 -0.0122 -0.0673
   42loPI   C4B  672   2.582   3.963   8.433 -0.1966  0.1518 -0.1808
   43loPI    C1  673  14.637   8.854  10.929  0.1165  0.1328  0.0023
   43loPI    C2  674  15.022   8.819  10.828  0.1401  0.1782  0.0755
   43loPI    C3  675  14.914   8.801  11.213  0.0463 -0.0334  0.0408
   43loPI   PO4  676  14.497   8.903  10.600  0.2763  0.0889  0.1456
   43loPI   GL1  677  14.577   9.214  10.353  0.1056 -0.1863  0.0843
   43loPI   GL2  678  14.350   9.255  10.131 -0.1670  0.3012  0.1496
   43loPI   C1A  679  14.702   8.862   9.953 -0.0671 -0.0036  0.0726
   43loPI   C2A  680  14.766   8.889   9.548  0.2184 -0.0905 -0.1850
   43loPI   C3A  681  14.672   8.944   9.212  0.0417  0.0597  0.2719
   43loPI   C4A  682  14.721   8.911   8.784  0.3790 -0.1313  0.2301
   43loPI   C5A  683  14.671   8.673   8.407  0.0847  0.0465 -0.1098
   43loPI   C6A  684  14.449   8.905   8.106 -0.1748  0.2186  0.0891
   43loPI   C1B  685  14.331   9.233   9.627  0.0560 -0.1236 -0.0101
   43loPI   C2B  686  14.333   9.291   9.155 -0.0082 -0.0557  0.0239
   43loPI   C3B  687  14.375   9.365   8.761  0.1597 -0.0966 -0.1727
   43loPI   C4B  688  14.621   9.222   8.442 -0.2470 -0.1583  0.1268
   44loPI    C1  689   1.488   1.169  10.921 -0.0336  0.0473  0.0178
   44loPI    C2  690   1.132   0.986  10.909 -0.0582  0.0825  0.1805
   44loPI    C3  691   1.235   1.202  11.229  0.0714  0.1509  0.0939
   44loPI   PO4  692   1.503   1.332  10.696  0.0225  0.1708  0.2190
   44loPI   GL1  693   1.504   1.301  10.225 -0.0504 -0.0152  0.2484
   44loPI   GL2  694   1.714   1.431  10.191  0.2322 -0.0010 -0.2811
   44loPI   C1A  695   1.350   1.304   9.839 -0.2445  0.0552 -0.1434
   44loPI   C2A  696   1.199   1.497   9.461 -0.1200  0.3661 -0.3093
   44loPI   C3A  697   1.169   1.712   9.143 -0.1396 -0.2046 -0.0618
   44loPI   C4A  698   1.465   1.857   8.802 -0.1002 -0.1324  0.0788
   44loPI   C5A  699   1.422   1.859   8.311 -0.0491 -0.0602 -0.2746
   44loPI   C6A  700   1.177   2.072   8.051 -0.0157  0.0368 -0.1965
   44loPI   C1B  701   1.877   1.218   9.802 -0.0603 -0.2193  0.3512
   44loPI   C2B  702   1.687   1.228   9.336  0.1854  0.1253 -0.0533
   44loPI   C3B  703   1.569   1.335   8.947  0.0098  0.1855  0.2688
   44loPI   C4B  704   1.566   1.431   8.573  0.1106  0.2964  0.4435
   45loPI    C1  705  15.004   6.118  11.065  0.0462 -0.0400  0.1085
   45loPI    C2  706  15.075   6.101  11.458 -0.1442 -0.0042  0.1451
   45loPI    C3  707  15.174   5.792  11.224 -0.3997 -0.1942  0.2829
   45loPI   PO4  708  14.861   6.263  11.095 -0.3553  0.1716  0.3620
   45loPI   GL1  709  14.771   6.519  10.729  0.0875 -0.2279  0.2144
   45loPI   GL2  710  14.884   6.761  10.728 -0.2722  0.1955  0.0193
   45loPI   C1A  711  14.509   6.427  10.338 -0.0522 -0.2622  0.0638
   45loPI   C2A  712  14.487   6.474   9.843 -0.0268 -0.0092 -0.2261
   45loPI   C3A  713  14.549   6.466   9.440  0.0649 -0.2833 -0.0345
   45loPI   C4A  714  14.581   6.615   9.036 -0.0112  0.1173 -0.2096
   45loPI   C5A  715  14.493   6.665   8.588 -0.1560 -0.0859  0.1997
   45loPI   C6A  716  14.233   7.016   8.432 -0.0514 -0.2252 -0.0770
   45loPI   C1B  717  14.985   6.638  10.264 -0.1481  0.0161 -0.1269
   45loPI   C2B  718  14.998   6.598   9.805 -0.1938 -0.0704 -0.0932
   45loPI   C3B  719  15.011   6.628   9.305  0.0020 -0.1690 -0.0312
   45loPI   C4B  720  14.976   6.763   8.827 -0.1167  0.3154  0.1465
   46loPI    C1  721  10.562  16.472  11.003  0.0263  0.0330 -0.1037
   46loPI    C2  722  10.201  16.315  10.930 -0.0706  0.0883  0.2387
   46loPI    C3  723  10.237  16.629  11.175  0.2201  0.0286  0.2767
   46loPI   PO4  724  10.623  16.569  10.697  0.1085  0.0671 -0.0601
   46loPI   GL1  725  10.622  16.775  10.302  0.0675  0.2155 -0.3779
   46loPI   GL2  726  10.352  16.623  10.217 -0.1366  0.0100 -0.0365
   46loPI   C1A  727  10.689  16.890   9.915  0.1416 -0.0631 -0.0578
   46loPI   C2A  728  10.695  16.891   9.482 -0.2349 -0.1183 -0.1386
   46loPI   C3A  729  10.618  16.861   9.060 -0.0364 -0.1301 -0.0549
   46loPI   C4A  730  10.826  16.735   8.771 -0.3172 -0.2366  0.1662
   46loPI   C5A  731  11.126  16.663   8.378  0.0593  0.0948  0.1948
   46loPI   C6A  732  11.290  17.028   8.175  0.0496  0.1284  0.1205
   46loPI   C1B  733  10.277  16.605   9.751  0.0203  0.0410  0.0402
   46loPI   C2B  734  10.231  16.648   9.289 -0.5034 -0.2765  0.0911
   46loPI   C3B  735  10.202  16.568   8.856 -0.0138  0.0930  0.2080
   46loPI   C4B  736  10.268  16.423   8.495  0.1170 -0.4794 -0.1968
   47loPI    C1  737   5.771   9.573  11.056  0.0709 -0.0391 -0.1158
   47loPI    C2  738   6.144   9.431  11.082  0.1579  0.1615 -0.2422
   47loPI    C3  739   5.998   9.665  11.372  0.1056  0.0279 -0.1599
   47loPI   PO4  740   5.777   9.761  10.845  0.0004  0.1516  0.0059
   47loPI   GL1  741   5.783   9.820  10.313  0.4116  0.0267 -0.1126
   47loPI   GL2  742   6.031   9.894  10.094 -0.1161 -0.0953 -0.0550
   47loPI   C1A  743   5.561   9.720   9.885 -0.3176  0.1764 -0.2930
   47loPI   C2A  744   5.683   9.613   9.560 -0.2805  0.3439  0.0146
   47loPI   C3A  745   5.775   9.759   9.169  0.0004  0.0186  0.0666
   47loPI   C4A  746   5.689   9.893   8.798 -0.2401  0.2381 -0.1574
   47loPI   C5A  747   5.416  10.004   8.577  0.0920  0.0583  0.1766
   47loPI   C6A  748   5.361  10.249   8.174  0.0233  0.0831 -0.0906
   47loPI   C1B  749   6.055   9.995   9.661  0.0166 -0.4090 -0.4146
   47loPI   C2B  750   5.957  10.244   9.226 -0.0882  0.1236  0.0292
   47loPI   C3B  751   5.617  10.407   9.073  0.1218 -0.2324  0.1717
   47loPI   C4B  752   5.513  10.488   8.631 -0.2214 -0.1716 -0.1095
   48loPI    C1  753  10.572  12.267  11.040  0.1606 -0.1987  0.0801
   48loPI    C2  754  10.427  11.918  11.170 -0.1097 -0.0526  0.1794
   48loPI    C3  755  10.355  12.253  11.376 -0.1330  0.1109 -0.0903
   48loPI   PO4  756  10.523  12.314  10.880 -0.0378 -0.0605 -0.0335
   48loPI   GL1  757  10.316  12.348  10.590 -0.1189  0.0122  0.1237
   48loPI   GL2  758  10.100  12.440  10.498 -0.1303 -0.0198  0.0752
   48loPI   C1A  759  10.476  12.514  10.220  0.1731  0.2180 -0.0932
   48loPI   C2A  760  10.544  12.566   9.814  0.0026  0.2962 -0.0756
   48loPI   C3A  761  10.617  12.851   9.572  0.0587 -0.1680  0.3656
   48loPI   C4A  762  10.453  12.987   9.030 -0.0240 -0.0480  0.0377
   48loPI   C5A  763  10.496  12.904   8.595 -0.0836 -0.1292  0.0088
   48loPI   C6A  764  10.764  12.670   8.468 -0.0204  0.0064  0.0614
   48loPI   C1B  765   9.990  12.467  10.072  0.0594 -0.1179 -0.2990
   48loPI   C2B  766  10.056  12.464   9.620  0.0119  0.0540 -0.0845
   48loPI   C3B  767  10.129  12.632   9.184  0.0685 -0.0220  0.1578
   48loPI   C4B  768  10.038  12.629   8.825  0.1892 -0.0934 -0.1494
   49loPI    C1  769   6.393  13.407  11.099  0.0266  0.1208  0.0079
   49loPI    C2  770   6.711  13.166  11.081 -0.0122  0.0769 -0.1000
   49loPI    C3  771   6.517  13.216  11.427  0.0402  0.0108 -0.0608
   49loPI   PO4  772   6.313  13.399  10.809  0.4323  0.1162  0.1481
   49loPI   GL1  773   6.374  13.545  10.387  0.0413  0.1498 -0.0311
   49loPI   GL2  774   6.267  13.752  10.160 -0.1101  0.6347 -0.0071
   49loPI   C1A  775   6.483  13.286   9.955 -0.0058  0.0922  0.0063
   49loPI   C2A  776   6.370  13.382   9.543  0.1817 -0.2819 -0.2076
   49loPI   C3A  777   6.341  13.427   9.115 -0.1191  0.1867 -0.1092
   49loPI   C4A  778   6.467  13.500   8.738 -0.1958 -0.1750  0.3323
   49loPI   C5A  779   6.569  13.567   8.305  0.1336  0.2076  0.0963
   49loPI   C6A  780   6.679  13.547   7.963  0.1029  0.0323  0.1083
   49loPI   C1B  781   6.246  13.982   9.765  0.1598  0.0027 -0.0733
   49loPI   C2B  782   6.252  13.983   9.392 -0.2569  0.0166  0.1536
   49loPI   C3B  783   6.318  13.984   8.974 -0.0604 -0.1898 -0.3384
   49loPI   C4B  784   6.563  14.027   8.542 -0.1645  0.0135 -0.3002
   50loPI    C1  785   7.150  10.518  11.035 -0.0462 -0.0358  0.0692
   50loPI    C2  786   6.983  10.861  10.916  0.0102 -0.0703 -0.1131
   50loPI    C3  787   7.113  10.822  11.292 -0.1099  0.0638 -0.0565
   50loPI   PO4  788   7.154  10.415  10.812 -0.2277  0.0885  0.1557
   50loPI   GL1  789   7.053  10.488  10.368  0.0616  0.0227 -0.1135
   50loPI   GL2  790   7.104  10.710  10.394 -0.0461  0.1194  0.2323
   50loPI   C1A  791   7.211  10.405   9.872  0.1865 -0.2391  0.0597
   50loPI   C2A  792   7.248  10.332   9.416 -0.0081 -0.0497 -0.0258
   50loPI   C3A  793   7.317  10.622   9.104  0.2903  0.2906 -0.2410
   50loPI   C4A  794   7.238  10.926   8.838  0.0120 -0.3449 -0.2551
   50loPI   C5A  795   7.201  11.270   8.661 -0.2514  0.1215 -0.1434
   50loPI   C6A  796   7.091  11.699   8.717 -0.0885 -0.1630 -0.1690
   50loPI   C1B  797   7.361  10.833  10.026  0.1551  0.1715 -0.1200
   50loPI   C2B  798   7.344  10.828   9.579 -0.0605  0.1143  0.0212
   50loPI   C3B  799   7.184  11.074   9.321  0.0640 -0.1674  0.2427
   50loPI   C4B  800   7.266  11.533   9.124 -0.1207  0.1372 -0.0248
   51loPI    C1  801   2.993   7.859  10.852 -0.0614  0.0782 -0.1869
   51loPI    C2  802   2.884   8.196  11.036  0.1118  0.0375 -0.0074
   51loPI    C3  803   2.985   7.874  11.251  0.2830 -0.0213 -0.1730
   51loPI   PO4  804   2.817   7.829  10.661  0.2919  0.1634  0.3152
   51loPI   GL1  805   2.830   7.944  10.326  0.1112 -0.2407 -0.1281
   51loPI   GL2  806   3.036   8.226  10.167  0.0491  0.0136 -0.2505
   51loPI   C1A  807   2.614   7.894   9.932 -0.0658  0.4883  0.2967
   51loPI   C2A  808   2.547   7.851   9.552 -0.3391  0.1068 -0.1206
   51loPI   C3A  809   2.496   7.782   9.148 -0.1751  0.0972  0.0235
   51loPI   C4A  810   2.639   7.882   8.731 -0.0274 -0.0991 -0.1643
   51loPI   C5A  811   2.789   8.156   8.349  0.1016 -0.0250  0.1561
   51loPI   C6A  812   2.588   8.236   7.897  0.0231  0.0192 -0.0051
   51loPI   C1B  813   2.930   8.211   9.705 -0.2322  0.2975 -0.0455
   51loPI   C2B  814   2.858   8.140   9.283 -0.0389 -0.0520 -0.1038
   51loPI   C3B  815   3.131   8.318   8.895 -0.5466 -0.2907 -0.1338
   51loPI   C4B  816   3.295   8.463   8.530  0.0101 -0.0575  0.2156
   52loPI    C1  817   6.821   7.755  10.615  0.0493  0.1132  0.0187
   52loPI    C2  818   6.477   7.608  10.472  0.1424 -0.1005  0.0107
   52loPI    C3  819   6.480   7.814  10.816  0.0578 -0.4114  0.2017
   52loPI   PO4  820   6.985   7.529  10.642  0.1732 -0.0817 -0.0931
   52loPI   GL1  821   7.105   7.463  10.217  0.1083 -0.1039 -0.0503
   52loPI   GL2  822   6.964   7.239  10.092  0.0293  0.0107 -0.2821
   52loPI   C1A  823   7.022   7.684   9.888 -0.0218  0.1784 -0.0425
   52loPI   C2A  824   7.143   7.745   9.535 -0.0986  0.1816  0.1901
   52loPI   C3A  825   7.282   7.713   9.114  0.0155 -0.1193 -0.1714
   52loPI   C4A  826   7.443   7.634   8.703  0.2185 -0.0264 -0.1034
   52loPI   C5A  827   7.523   7.678   8.354  0.0167  0.1003 -0.4058
   52loPI   C6A  828   7.551   7.978   7.954 -0.0610 -0.0279 -0.4011
   52loPI   C1B  829   6.859   7.250   9.699 -0.1806  0.3445  0.1127
   52loPI   C2B  830   7.056   7.314   9.339  0.1735  0.0436  0.0198
   52loPI   C3B  831   7.140   7.198   8.997 -0.1372  0.0058  0.0010
   52loPI   C4B  832   7.310   7.124   8.558 -0.1555  0.1894 -0.0020
   53loPI    C1  833  11.535  10.190  11.133  0.0400  0.2916 -0.0123
   53loPI    C2  834  11.340  10.392  10.848  0.0360  0.0279 -0.2005
   53loPI    C3  835  11.295  10.494  11.232 -0.1309  0.2460 -0.2758
   53loPI   PO4  836  11.758  10.115  11.007 -0.0853 -0.1552 -0.1420
   53loPI   GL1  837  11.704  10.228  10.521  0.1825 -0.1639 -0.1709
   53loPI   GL2  838  11.653  10.001  10.425 -0.1299 -0.0972  0.2262
   53loPI   C1A  839  11.408  10.323  10.157  0.0990  0.2512 -0.2135
   53loPI   C2A  840  11.400  10.276   9.574 -0.0260 -0.0353 -0.1806
   53loPI   C3A  841  11.434  10.344   9.078 -0.1060 -0.0878  0.0479
   53loPI   C4A  842  11.434  10.380   8.565 -0.2647  0.1328  0.2351
   53loPI   C5A  843  11.475  10.658   8.216 -0.0105  0.3235 -0.0213
   53loPI   C6A  844  11.599  10.971   7.983 -0.1765 -0.0569 -0.0373
   53loPI   C1B  845  11.803   9.973  10.054 -0.0366 -0.1264 -0.1574
   53loPI   C2B  846  11.741   9.936   9.596  0.0333 -0.0299 -0.5220
   53loPI   C3B  847  11.727   9.957   9.104 -0.2524 -0.2777 -0.0356
   53loPI   C4B  848  11.672   9.999   8.748  0.0713  0.2553 -0.0610
   54loPI    C1  849  14.882   5.009  10.786 -0.1180 -0.2472 -0.0167
   54loPI    C2  850  14.735   4.844  11.119  0.0830 -0.1158  0.1394
   54loPI    C3  851  15.130   4.884  11.073  0.0568 -0.1393 -0.1188
   54loPI   PO4  852  14.753   4.936  10.608 -0.4153 -0.2027  0.3748
   54loPI   GL1  853  14.801   4.939  10.192 -0.0770 -0.0935  0.2431
   54loPI   GL2  854  15.033   4.728  10.062  0.3227 -0.0969  0.3426
   54loPI   C1A  855  14.607   5.089   9.847  0.0629 -0.3740 -0.2680
   54loPI   C2A  856  14.554   5.207   9.426  0.0519 -0.0059  0.2132
   54loPI   C3A  857  14.507   5.237   9.003 -0.1918 -0.0904 -0.1031
   54loPI   C4A  858  14.556   5.250   8.592  0.0198 -0.3328 -0.1257
   54loPI   C5A  859  14.449   5.490   8.231  0.1101 -0.2757  0.1911
   54loPI   C6A  860  14.190   5.818   8.136 -0.2486 -0.1260  0.2107
   54loPI   C1B  861  15.031   4.733   9.696 -0.0034  0.1741 -0.0054
   54loPI   C2B  862  14.940   4.884   9.312 -0.0406  0.0765 -0.1337
   54loPI   C3B  863  14.954   4.770   8.884 -0.0501 -0.0711  0.0075
   54loPI   C4B  864  15.027   4.911   8.428 -0.1586 -0.1007  0.0181
   55loPI    C1  865  16.564  13.782  10.940 -0.0265 -0.0557 -0.0691
   55loPI    C2  866  16.579  13.435  11.140 -0.1549 -0.0530 -0.0542
   55loPI    C3  867  16.341  13.472  10.821 -0.1243  0.0147 -0.0694
   55loPI   PO4  868  16.804  13.820  10.848  0.1093 -0.1190 -0.0106
   55loPI   GL1  869  16.986  13.954  10.523 -0.3038  0.1437  0.1798
   55loPI   GL2  870  17.007  13.684  10.360 -0.0926 -0.2319  0.3556
   55loPI   C1A  871  17.235  14.137  10.145  0.2103  0.2914 -0.0449
   55loPI   C2A  872  17.147  14.145   9.787 -0.2619  0.1037  0.1776
   55loPI   C3A  873  17.135  14.125   9.375 -0.0990 -0.0459 -0.1317
   55loPI   C4A  874  17.032  14.162   8.935  0.1071 -0.2397  0.4642
   55loPI   C5A  875  16.611  14.158   8.643  0.0805  0.1184  0.0546
   55loPI   C6A  876  16.479  13.861   8.460  0.0903  0.0056 -0.3520
   55loPI   C1B  877  16.983  13.689   9.958  0.1215 -0.0087 -0.1744
   55loPI   C2B  878  16.973  13.653   9.617 -0.2236  0.1747  0.0133
   55loPI   C3B  879  16.902  13.699   9.295  0.0678 -0.1596  0.3523
   55loPI   C4B  880  16.841  13.711   8.814 -0.2564  0.1744  0.3048
   56loPI    C1  881  16.352  17.109  10.839 -0.2074 -0.0730 -0.0653
   56loPI    C2  882  16.612  17.098  11.143  0.0998  0.1392 -0.3123
   56loPI    C3  883  16.236  16.973  11.196  0.2198 -0.0732  0.0802
   56loPI   PO4  884  16.448  16.962  10.603 -0.6093 -0.2542  0.3970
   56loPI   GL1  885  16.665  16.749  10.313  0.1327  0.1530  0.2499
   56loPI   GL2  886  16.341  16.583  10.309  0.0388 -0.1131 -0.1894
   56loPI   C1A  887  16.586  16.827   9.874  0.0699  0.2395 -0.1841
   56loPI   C2A  888  16.535  16.829   9.496 -0.0400 -0.2283  0.0001
   56loPI   C3A  889  16.526  16.858   9.075 -0.1501 -0.1811 -0.0142
   56loPI   C4A  890  16.634  16.955   8.656  0.0512 -0.1178  0.0552
   56loPI   C5A  891  16.665  16.770   8.255  0.0939  0.1809 -0.4078
   56loPI   C6A  892  16.469  17.051   7.949 -0.1536  0.4398  0.1662
   56loPI   C1B  893  16.491  16.364   9.956 -0.0497  0.1868  0.0970
   56loPI   C2B  894  16.455  16.350   9.542  0.0217  0.1179  0.2023
   56loPI   C3B  895  16.445  16.333   9.117 -0.1693 -0.2075 -0.4176
   56loPI   C4B  896  16.482  16.472   8.673 -0.1749  0.0390 -0.2062
   57loPI    C1  897  10.280   2.113  10.861 -0.0039 -0.0565 -0.1330
   57loPI    C2  898  10.404   2.412  11.095 -0.1375 -0.1313  0.0356
   57loPI    C3  899  10.274   2.071  11.258  0.0179 -0.2847 -0.1554
   57loPI   PO4  900  10.150   2.303  10.675  0.0855 -0.3197  0.0640
   57loPI   GL1  901  10.166   2.414  10.361  0.1152 -0.1224  0.0447
   57loPI   GL2  902  10.401   2.286  10.196 -0.0035  0.1504 -0.1020
   57loPI   C1A  903  10.068   2.558  10.024  0.0584 -0.3498 -0.0060
   57loPI   C2A  904   9.847   2.479   9.623  0.1498 -0.1994 -0.1250
   57loPI   C3A  905   9.647   2.711   9.299 -0.0031  0.0277 -0.2047
   57loPI   C4A  906   9.423   2.647   9.022 -0.0850  0.0018  0.0234
   57loPI   C5A  907   9.344   2.567   8.579 -0.0210  0.1097  0.0980
   57loPI   C6A  908   9.238   2.455   8.181 -0.2707 -0.1276 -0.1023
   57loPI   C1B  909  10.333   2.213   9.713  0.0538  0.0691 -0.3430
   57loPI   C2B  910  10.438   1.809   9.557  0.0401  0.1332 -0.1288
   57loPI   C3B  911  10.509   1.731   9.136 -0.2820  0.0133  0.1814
   57loPI   C4B  912  10.482   1.923   8.751 -0.1545 -0.2281 -0.4318
   58loPI    C1  913   3.124  13.184  10.910  0.0948  0.1599  0.2100
   58loPI    C2  914   3.076  12.902  11.189 -0.0242 -0.1118 -0.0779
   58loPI    C3  915   2.775  13.149  11.101  0.0130 -0.0268  0.0299
   58loPI   PO4  916   3.284  13.119  10.774  0.2083  0.1639  0.1266
   58loPI   GL1  917   3.379  13.093  10.400 -0.1927 -0.0398  0.3060
   58loPI   GL2  918   3.573  13.454  10.302 -0.0558 -0.0033 -0.0364
   58loPI   C1A  919   3.423  12.863  10.036  0.3101 -0.1067 -0.0688
   58loPI   C2A  920   3.405  12.918   9.591 -0.2029 -0.2355  0.0145
   58loPI   C3A  921   3.274  12.871   9.131  0.0997 -0.1721 -0.4319
   58loPI   C4A  922   3.544  12.844   8.780  0.0386  0.0010 -0.0248
   58loPI   C5A  923   3.799  12.982   8.374  0.3453 -0.0498 -0.0486
   58loPI   C6A  924   3.930  13.256   8.067 -0.3914  0.0244  0.2675
   58loPI   C1B  925   3.459  13.387   9.862  0.3436  0.0911  0.0025
   58loPI   C2B  926   3.388  13.466   9.480 -0.0707  0.1766  0.0077
   58loPI   C3B  927   3.307  13.392   9.052  0.0017 -0.0791  0.1533
   58loPI   C4B  928   3.293  13.249   8.575 -0.1165 -0.0960  0.2965
   59loPI    C1  929   8.018   5.549  10.437  0.1931  0.2172 -0.0380
   59loPI    C2  930   8.403   5.446  10.471  0.0987 -0.2151 -0.2102
   59loPI    C3  931   8.121   5.225  10.649 -0.0956 -0.1106 -0.3843
   59loPI   PO4  932   7.937   5.577  10.244  0.1823  0.2092  0.2148
   59loPI   GL1  933   7.883   5.444   9.848  0.0481  0.3044  0.0255
   59loPI   GL2  934   7.818   5.082   9.722 -0.0645  0.0703 -0.0097
   59loPI   C1A  935   7.957   5.486   9.395 -0.1293  0.0867  0.0297
   59loPI   C2A  936   8.001   5.231   8.949  0.0565  0.0191 -0.1727
   59loPI   C3A  937   7.933   4.953   8.594 -0.0757  0.1811  0.0036
   59loPI   C4A  938   7.821   4.496   8.540 -0.0997  0.1453  0.1550
   59loPI   C5A  939   8.030   4.030   8.387  0.2325 -0.3560  0.0185
   59loPI   C6A  940   8.218   3.682   8.289 -0.5126  0.1616 -0.0381
   59loPI   C1B  941   8.220   5.136   9.643 -0.0463  0.0941  0.0494
   59loPI   C2B  942   8.449   5.261   9.346 -0.1380  0.3504  0.0368
   59loPI   C3B  943   8.420   5.502   8.892  0.2958 -0.0467  0.1712
   59loPI   C4B  944   8.660   5.391   8.495 -0.0614  0.0679 -0.2227
   60loPI    C1  945   1.600  17.817  10.601 -0.1374 -0.0630 -0.0157
   60loPI    C2  946   1.471  17.709  10.964 -0.0838 -0.1308 -0.0166
   60loPI    C3  947   1.729  18.013  10.926 -0.1079 -0.1082 -0.0002
   60loPI   PO4  948   1.391  17.828  10.440 -0.1640 -0.1469 -0.1229
   60loPI   GL1  949   1.084  17.740  10.164 -0.3554 -0.0031 -0.0270
   60loPI   GL2  950   1.076  17.402  10.085 -0.0089 -0.0941  0.1421
   60loPI   C1A  951   1.165  17.819   9.790 -0.3229  0.3016 -0.2601
   60loPI   C2A  952   1.044  17.733   9.383 -0.2016  0.2632  0.1455
   60loPI   C3A  953   1.019  17.822   8.943 -0.1874  0.1765  0.0220
   60loPI   C4A  954   0.972  17.775   8.578 -0.2917  0.2086  0.3376
   60loPI   C5A  955   0.867  17.561   8.259 -0.2343  0.0590  0.1067
   60loPI   C6A  956   0.864  17.357   7.831  0.1046 -0.1102  0.3374
   60loPI   C1B  957   0.944  17.339   9.689 -0.1223  0.0534  0.1804
   60loPI   C2B  958   0.824  17.309   9.261 -0.2509  0.0624 -0.1639
   60loPI   C3B  959   0.836  17.340   8.797  0.0955 -0.0824  0.1846
   60loPI   C4B  960   0.705  17.099   8.373 -0.1540 -0.0467 -0.0803
   61loPI    C1  961   1.706   2.948  10.617  0.0184  0.2758 -0.0677
   61loPI    C2  962   1.558   3.292  10.759  0.0666  0.2452  0.0576
   61loPI    C3  963   1.662   2.999  11.011 -0.1550  0.0644 -0.0580
   61loPI   PO4  964   1.602   3.027  10.315  0.1727 -0.0737  0.0824
   61loPI   GL1  965   1.341   2.999   9.980 -0.0983  0.1491  0.2228
   61loPI   GL2  966   1.236   2.612   9.943  0.0422  0.0228 -0.1263
   61loPI   C1A  967   1.358   3.020   9.613  0.1657 -0.1363  0.1749
   61loPI   C2A  968   1.364   3.211   9.256 -0.0136 -0.0341 -0.1743
   61loPI   C3A  969   1.452   3.236   8.863 -0.2066  0.2102 -0.0862
   61loPI   C4A  970   1.385   3.266   8.436  0.0940 -0.1922 -0.1062
   61loPI   C5A  971   1.306   3.476   8.024 -0.0124  0.0877 -0.1731
   61loPI   C6A  972   1.188   3.484   7.589 -0.0281  0.0306 -0.0561
   61loPI   C1B  973   1.109   2.537   9.507  0.0061 -0.0906  0.0365
   61loPI   C2B  974   0.900   2.749   9.163  0.1267  0.2162 -0.4618
   61loPI   C3B  975   0.862   3.065   8.780 -0.1492  0.1131 -0.2126
   61loPI   C4B  976   0.679   3.089   8.321  0.2880 -0.3275 -0.1304
   62loPI    C1  977   3.144   2.607  10.662 -0.0932  0.1028  0.1459
   62loPI    C2  978   3.236   2.786  11.007 -0.3941  0.0847  0.2389
   62loPI    C3  979   3.205   2.388  10.991  0.0363  0.0522  0.0886
   62loPI   PO4  980   3.243   2.761  10.487  0.0611 -0.3548  0.0566
   62loPI   GL1  981   3.112   3.044  10.264 -0.4740  0.0809 -0.1040
   62loPI   GL2  982   3.412   3.137  10.170  0.0839  0.1816  0.0986
   62loPI   C1A  983   2.918   2.853   9.949 -0.0069  0.1598  0.0296
   62loPI   C2A  984   2.971   2.811   9.502  0.1855  0.0697  0.0468
   62loPI   C3A  985   2.968   2.937   9.024  0.3017 -0.0610  0.0119
   62loPI   C4A  986   2.935   2.831   8.565  0.1243  0.0232  0.0815
   62loPI   C5A  987   2.735   2.830   8.143 -0.2812 -0.1889  0.1094
   62loPI   C6A  988   2.473   2.880   7.774  0.3125  0.0573 -0.0219
   62loPI   C1B  989   3.290   3.186   9.788 -0.1161 -0.2485 -0.0693
   62loPI   C2B  990   3.355   3.214   9.368  0.1603  0.2498 -0.1533
   62loPI   C3B  991   3.266   3.317   8.959 -0.0686 -0.0447  0.3340
   62loPI   C4B  992   3.312   3.186   8.539 -0.0114  0.1540  0.0318
   63loPI    C1  993  11.422  17.387  11.208 -0.0643 -0.1939 -0.1426
   63loPI    C2  994  11.458  17.091  11.475  0.0081 -0.1913 -0.1494
   63loPI    C3  995  11.689  17.417  11.504 -0.1050 -0.1140 -0.1137
   63loPI   PO4  996  11.422  17.255  10.983  0.0164  0.0558  0.0387
   63loPI   GL1  997  11.501  17.138  10.639 -0.0363 -0.2793  0.3502
   63loPI   GL2  998  11.511  17.435  10.483  0.1884 -0.0591 -0.3898
   63loPI   C1A  999  11.551  16.976  10.298  0.0484 -0.1012  0.0362
   63loPI   C2A 1000  11.619  16.929   9.864  0.1201  0.0391 -0.1270
   63loPI   C3A 1001  11.491  16.902   9.428  0.0866 -0.1023  0.0741
   63loPI   C4A 1002  11.575  16.787   9.049 -0.1441 -0.0071 -0.0268
   63loPI   C5A 1003  11.693  16.843   8.687 -0.2882  0.1999  0.1891
   63loPI   C6A 1004  11.899  17.079   8.347  0.0164 -0.2846 -0.2149
   63loPI   C1B 1005  11.620  17.456  10.165  0.1569 -0.1862  0.3133
   63loPI   C2B 1006  11.621  17.539   9.791 -0.0215 -0.4515 -0.1578
   63loPI   C3B 1007  11.567  17.392   9.393 -0.3960 -0.0258 -0.2296
   63loPI   C4B 1008  11.600  17.326   8.942  0.0439  0.2852  0.2755
   64loPI    C1 1009   5.123   7.352  11.123 -0.2147  0.1829 -0.1498
   64loPI    C2 1010   5.052   7.701  11.303 -0.1275  0.1087  0.0312
   64loPI    C3 1011   5.256   7.416  11.495 -0.2570 -0.0671 -0.0895
   64loPI   PO4 1012   5.171   7.407  10.817  0.0294 -0.1469 -0.2784
   64loPI   GL1 1013   5.011   7.509  10.355  0.1011 -0.0283 -0.2425
   64loPI   GL2 1014   5.066   7.250  10.204 -0.3420  0.0358  0.0835
   64loPI   C1A 1015   4.972   7.711   9.942  0.2436  0.2707  0.2692
   64loPI   C2A 1016   4.998   7.720   9.592  0.1147 -0.0850  0.1366
   64loPI   C3A 1017   5.062   7.596   9.148  0.2520  0.2376  0.1235
   64loPI   C4A 1018   5.072   7.575   8.740  0.1763 -0.0717  0.3995
   64loPI   C5A 1019   5.105   7.471   8.379  0.0743 -0.0789 -0.3511
   64loPI   C6A 1020   5.004   7.154   8.008 -0.0546 -0.2732 -0.0531
   64loPI   C1B 1021   5.120   7.193   9.715  0.1856 -0.1803 -0.0835
   64loPI   C2B 1022   5.078   7.108   9.339  0.0937 -0.0145  0.2028
   64loPI   C3B 1023   4.849   7.200   8.924  0.1998  0.3794  0.0014
   64loPI   C4B 1024   4.580   7.221   8.551  0.1546  0.1024 -0.1298
   65loPI    C1 1025   7.973   8.489  11.231  0.0533 -0.0262  0.1292
   65loPI    C2 1026   8.199   8.750  11.028 -0.1844 -0.0983 -0.2385
   65loPI    C3 1027   7.917   8.882  11.279 -0.0343 -0.0065 -0.1168
   65loPI   PO4 1028   8.093   8.251  10.955 -0.0307 -0.3707  0.1523
   65loPI   GL1 1029   8.343   8.305  10.486 -0.1530 -0.1363 -0.1548
   65loPI   GL2 1030   8.428   7.921  10.463 -0.2814  0.0876 -0.0584
   65loPI   C1A 1031   8.364   8.236  10.083  0.0841 -0.0141  0.0617
   65loPI   C2A 1032   8.413   8.307   9.653  0.2369 -0.5386 -0.1598
   65loPI   C3A 1033   8.369   8.416   9.206 -0.1335 -0.1218 -0.1078
   65loPI   C4A 1034   8.493   8.420   8.807  0.1626 -0.2787 -0.1088
   65loPI   C5A 1035   8.720   8.514   8.426  0.3203 -0.1632  0.3226
   65loPI   C6A 1036   9.004   8.502   8.180  0.0317  0.2360 -0.2592
   65loPI   C1B 1037   8.712   7.822  10.060  0.0746 -0.1537  0.0711
   65loPI   C2B 1038   8.753   7.938   9.603 -0.3203  0.0702 -0.2140
   65loPI   C3B 1039   8.832   8.002   9.174  0.0954 -0.0410 -0.1521
   65loPI   C4B 1040   8.867   8.036   8.706 -0.0291  0.2111  0.2332
   66loPI    C1 1041   6.894   8.466  10.873  0.0186 -0.1824 -0.0109
   66loPI    C2 1042   6.672   8.231  10.637 -0.0810 -0.0394 -0.0617
   66loPI    C3 1043   6.666   8.180  11.034 -0.1158 -0.1106 -0.0712
   66loPI   PO4 1044   7.097   8.527  10.709 -0.1076 -0.2329 -0.1276
   66loPI   GL1 1045   7.007   8.762  10.331  0.1722 -0.0161 -0.0967
   66loPI   GL2 1046   6.865   9.066  10.259  0.0985 -0.1672 -0.4349
   66loPI   C1A 1047   6.947   8.478   9.979 -0.0809  0.0780  0.2199
   66loPI   C2A 1048   7.045   8.412   9.584  0.2617  0.0849 -0.0125
   66loPI   C3A 1049   7.141   8.544   9.118  0.1748 -0.0497  0.0184
   66loPI   C4A 1050   7.148   8.516   8.692 -0.1411  0.0957 -0.0218
   66loPI   C5A 1051   7.313   8.845   8.481  0.0503  0.1318 -0.0982
   66loPI   C6A 1052   7.653   9.169   8.268  0.1569 -0.2467  0.1127
   66loPI   C1B 1053   7.165   8.993   9.904  0.4281 -0.0704  0.0730
   66loPI   C2B 1054   7.138   8.877   9.460 -0.3341  0.3606 -0.1666
   66loPI   C3B 1055   7.068   9.055   9.153 -0.1301  0.0206  0.1812
   66loPI   C4B 1056   7.140   9.208   8.772  0.0195 -0.4203 -0.0714
   67loPI    C1 1057   4.620   1.662  10.932 -0.2287 -0.0262  0.0851
   67loPI    C2 1058   4.762   1.300  11.027 -0.0100  0.0765  0.1551
   67loPI    C3 1059   4.554   1.511  11.297 -0.2182 -0.0341  0.0836
   67loPI   PO4 1060   4.653   1.634  10.674 -0.0963  0.1835  0.0701
   67loPI   GL1 1061   4.556   1.816  10.347 -0.2165 -0.4206  0.2312
   67loPI   GL2 1062   4.448   2.091  10.367 -0.0127 -0.1864  0.0562
   67loPI   C1A 1063   4.457   1.658   9.934  0.0323 -0.0422 -0.1534
   67loPI   C2A 1064   4.351   1.630   9.452  0.1869  0.1450 -0.2521
   67loPI   C3A 1065   4.308   1.644   8.980 -0.0958  0.0069  0.0293
   67loPI   C4A 1066   4.330   1.637   8.509  0.0459  0.2339 -0.1940
   67loPI   C5A 1067   4.701   1.430   8.193  0.0495 -0.1968  0.3542
   67loPI   C6A 1068   5.188   1.412   8.048 -0.0153  0.0101 -0.1167
   67loPI   C1B 1069   4.226   2.182  10.031  0.0635 -0.3410  0.0632
   67loPI   C2B 1070   4.183   2.168   9.655  0.1601 -0.1630  0.0592
   67loPI   C3B 1071   4.242   2.183   9.139 -0.3072  0.1374 -0.2333
   67loPI   C4B 1072   4.171   2.073   8.717  0.0010  0.0472 -0.0609
   68loPI    C1 1073   5.399   7.806  10.618  0.2659 -0.0709  0.3549
   68loPI    C2 1074   5.030   7.949  10.561  0.2417 -0.3000 -0.1063
   68loPI    C3 1075   5.202   7.979  10.921 -0.2172 -0.1775  0.1110
   68loPI   PO4 1076   5.501   7.963  10.447 -0.1959 -0.2180 -0.2544
   68loPI   GL1 1077   5.793   7.895  10.140 -0.4646 -0.0177 -0.0336
   68loPI   GL2 1078   6.102   7.925  10.121  0.0740  0.1333  0.1690
   68loPI   C1A 1079   5.750   7.866   9.689 -0.3017 -0.2631  0.0936
   68loPI   C2A 1080   5.894   7.922   9.266  0.2319  0.3045 -0.0926
   68loPI   C3A 1081   5.920   7.975   8.921 -0.1198 -0.0518  0.4518
   68loPI   C4A 1082   6.107   7.712   8.580  0.1062 -0.1458  0.0099
   68loPI   C5A 1083   5.975   7.443   8.157 -0.1015  0.2687  0.3612
   68loPI   C6A 1084   6.213   7.376   7.804 -0.0912 -0.1002  0.1174
   68loPI   C1B 1085   6.280   7.917   9.667  0.0556 -0.0095  0.3512
   68loPI   C2B 1086   6.363   8.136   9.293  0.0296  0.0352  0.1334
   68loPI   C3B 1087   6.500   7.989   8.936 -0.0465  0.3591  0.1757
   68loPI   C4B 1088   6.571   7.903   8.505 -0.0691  0.0716  0.1777
   69loPI    C1 1089   6.660  10.357  10.901  0.0432 -0.2282  0.1610
   69loPI    C2 1090   6.361  10.564  11.068  0.0051 -0.2392  0.1069
   69loPI    C3 1091   6.672  10.446  11.290  0.1208  0.0419  0.0996
   69loPI   PO4 1092   6.699  10.514  10.683 -0.0417  0.1363 -0.2271
   69loPI   GL1 1093   6.511  10.561  10.193 -0.2644  0.0139  0.2335
   69loPI   GL2 1094   6.367  10.918  10.227  0.1517  0.0950 -0.1154
   69loPI   C1A 1095   6.767  10.749   9.929  0.0485  0.1412  0.2213
   69loPI   C2A 1096   6.774  11.076   9.641  0.0286  0.2967 -0.1380
   69loPI   C3A 1097   6.713  11.339   9.319  0.2454 -0.1307  0.2358
   69loPI   C4A 1098   6.796  11.420   8.916 -0.1036 -0.1659 -0.2923
   69loPI   C5A 1099   6.679  11.450   8.453 -0.0433  0.2834  0.1480
   69loPI   C6A 1100   6.530  11.356   8.058 -0.2337 -0.1402 -0.0054
   69loPI   C1B 1101   6.260  10.891   9.849 -0.3262 -0.1396  0.0382
   69loPI   C2B 1102   6.358  10.981   9.364 -0.1462 -0.1418  0.0983
   69loPI   C3B 1103   6.320  11.111   8.948 -0.0796 -0.0229  0.1359
   69loPI   C4B 1104   6.265  11.187   8.548  0.3412  0.3263  0.0927
   70loPI    C1 1105  15.345   6.662  10.875  0.1470  0.0849  0.0154
   70loPI    C2 1106  15.622   6.707  11.160  0.1785  0.2163 -0.0347
   70loPI    C3 1107  15.257   6.571  11.254  0.3076 -0.1118  0.0073
   70loPI   PO4 1108  15.370   6.454  10.746  0.0898 -0.2565 -0.0459
   70loPI   GL1 1109  15.363   6.294  10.358 -0.1166  0.1479  0.0939
   70loPI   GL2 1110  15.038   6.196  10.467 -0.0193 -0.1197 -0.2482
   70loPI   C1A 1111  15.305   6.226   9.958  0.0841 -0.1387  0.0317
   70loPI   C2A 1112  15.340   6.312   9.530 -0.1732  0.1663  0.3596
   70loPI   C3A 1113  15.335   6.278   9.148  0.0293 -0.2496  0.0573
   70loPI   C4A 1114  15.419   6.336   8.734  0.2171  0.1445  0.3575
   70loPI   C5A 1115  15.288   6.649   8.433  0.0816 -0.0801  0.2529
   70loPI   C6A 1116  14.968   6.906   8.214  0.0357 -0.0915 -0.1524
   70loPI   C1B 1117  14.841   6.184  10.097 -0.1749  0.0319  0.2145
   70loPI   C2B 1118  14.799   6.045   9.698 -0.2735 -0.1778 -0.0505
   70loPI   C3B 1119  14.839   6.136   9.174 -0.0226  0.1582  0.2387
   70loPI   C4B 1120  14.835   6.289   8.769  0.1007 -0.2455 -0.2008
   71loPI    C1 1121  11.476   2.072  11.059 -0.0134 -0.0188 -0.0562
   71loPI    C2 1122  11.155   2.292  10.969 -0.2101 -0.2151  0.1513
   71loPI    C3 1123  11.161   2.076  11.305  0.1499 -0.1973  0.1603
   71loPI   PO4 1124  11.521   1.947  10.890 -0.0128  0.2975 -0.0553
   71loPI   GL1 1125  11.596   2.159  10.439  0.0203  0.1057 -0.0251
   71loPI   GL2 1126  11.306   2.011  10.381  0.3104  0.2274  0.1889
   71loPI   C1A 1127  11.666   2.195   9.998  0.0229 -0.0068 -0.0183
   71loPI   C2A 1128  11.810   2.111   9.639  0.0482 -0.1798 -0.0201
   71loPI   C3A 1129  11.911   2.253   9.249  0.1532 -0.0687  0.0789
   71loPI   C4A 1130  11.815   2.283   8.849 -0.2892 -0.3422  0.0790
   71loPI   C5A 1131  11.643   2.248   8.450  0.0829 -0.0875  0.2089
   71loPI   C6A 1132  11.319   1.930   8.262  0.2962 -0.0163 -0.2241
   71loPI   C1B 1133  11.249   1.883   9.888  0.1269 -0.0329  0.0111
   71loPI   C2B 1134  11.389   1.959   9.419 -0.0345 -0.1511  0.1688
   71loPI   C3B 1135  11.472   1.865   9.004 -0.1399  0.0614 -0.0054
   71loPI   C4B 1136  11.628   1.765   8.619  0.2880 -0.2322 -0.0735
   72loPI    C1 1137   5.683  16.172  10.808 -0.0017  0.0446  0.1842
   72loPI    C2 1138   5.356  16.285  11.007 -0.1572  0.0361 -0.0623
   72loPI    C3 1139   5.669  16.533  10.979 -0.0850 -0.0096  0.2923
   72loPI   PO4 1140   5.597  16.172  10.486 -0.0738  0.0854 -0.1146
   72loPI   GL1 1141   5.738  16.422  10.200 -0.0178  0.0265  0.1816
   72loPI   GL2 1142   5.869  16.695  10.121  0.0714  0.3850 -0.1790
   72loPI   C1A 1143   5.743  16.366   9.753  0.0074  0.0054 -0.0875
   72loPI   C2A 1144   5.807  16.313   9.323 -0.0991 -0.2809 -0.0735
   72loPI   C3A 1145   5.628  16.163   8.942 -0.3944  0.1299 -0.0436
   72loPI   C4A 1146   5.447  16.085   8.490 -0.0390  0.1739  0.3773
   72loPI   C5A 1147   5.587  15.892   8.175  0.0200 -0.0327  0.0041
   72loPI   C6A 1148   5.642  16.041   7.756 -0.0390  0.0752 -0.0705
   72loPI   C1B 1149   6.195  16.838   9.811  0.2173 -0.0253  0.1209
   72loPI   C2B 1150   6.155  16.682   9.397  0.3795 -0.0269 -0.2372
   72loPI   C3B 1151   6.069  16.604   8.913 -0.1751 -0.1801  0.0376
   72loPI   C4B 1152   5.788  16.452   8.597 -0.0993 -0.0457  0.2110
   73loPI    C1 1153   0.413   4.842  10.671 -0.0250  0.0016 -0.1531
   73loPI    C2 1154   0.792   4.928  10.766  0.0168 -0.1527 -0.1764
   73loPI    C3 1155   0.493   5.153  10.909  0.1076 -0.1176 -0.0399
   73loPI   PO4 1156   0.461   4.601  10.546  0.0030 -0.1707  0.0092
   73loPI   GL1 1157   0.650   4.616  10.127  0.1578  0.0921 -0.3028
   73loPI   GL2 1158   0.329   4.637  10.049 -0.3798  0.0333  0.0395
   73loPI   C1A 1159   0.877   4.502   9.756  0.0407 -0.1093  0.2053
   73loPI   C2A 1160   0.896   4.706   9.278  0.0032  0.1297 -0.1498
   73loPI   C3A 1161   0.704   4.644   8.889 -0.0500 -0.0477  0.2114
   73loPI   C4A 1162   0.617   4.816   8.543 -0.1762  0.1893 -0.1682
   73loPI   C5A 1163   0.620   5.194   8.256 -0.0713  0.2332  0.0429
   73loPI   C6A 1164   0.285   5.202   7.941 -0.3238 -0.1753  0.0186
   73loPI   C1B 1165   0.371   4.683   9.653 -0.0308 -0.0596 -0.1772
   73loPI   C2B 1166   0.379   4.795   9.241 -0.0168 -0.0481  0.0264
   73loPI   C3B 1167   0.199   4.854   8.794 -0.1785 -0.0804  0.0078
   73loPI   C4B 1168   0.196   4.997   8.385  0.0978 -0.1692  0.0404
   74loPI    C1 1169   6.971  17.591  10.826 -0.0956  0.1887  0.0160
   74loPI    C2 1170   7.297  17.818  10.875 -0.0014  0.0261  0.1541
   74loPI    C3 1171   6.937  17.989  10.841  0.1104  0.2131 -0.1266
   74loPI   PO4 1172   7.020  17.480  10.593 -0.0988 -0.3137 -0.0328
   74loPI   GL1 1173   7.019  17.625  10.187  0.4098  0.0808 -0.1410
   74loPI   GL2 1174   7.232  17.684   9.977 -0.0467 -0.1593 -0.2427
   74loPI   C1A 1175   6.740  17.698   9.737 -0.0898 -0.1684 -0.1390
   74loPI   C2A 1176   6.745  17.607   9.304 -0.3867 -0.2164  0.0108
   74loPI   C3A 1177   6.558  17.423   8.984 -0.2478  0.0921  0.1308
   74loPI   C4A 1178   6.607  17.314   8.501 -0.0898  0.0714 -0.0086
   74loPI   C5A 1179   6.556  16.960   8.064 -0.1153 -0.0448  0.1338
   74loPI   C6A 1180   6.549  16.553   7.939 -0.0360  0.0665 -0.1314
   74loPI   C1B 1181   7.227  17.708   9.553  0.2087 -0.3636  0.1355
   74loPI   C2B 1182   7.465  17.418   9.295 -0.1373 -0.2815 -0.0889
   74loPI   C3B 1183   7.456  17.435   8.827  0.1752 -0.3964  0.2548
   74loPI   C4B 1184   7.282  17.522   8.444  0.0713  0.0003 -0.4695
   75loPI    C1 1185  17.270   3.660  10.672  0.0627 -0.0054 -0.0619
   75loPI    C2 1186  17.654   3.549  10.692  0.0564 -0.0118  0.0301
   75loPI    C3 1187  17.555   3.935  10.728  0.0531 -0.0119  0.0217
   75loPI   PO4 1188  17.153   3.573  10.397 -0.1970  0.1678 -0.0203
   75loPI   GL1 1189  16.834   3.790  10.145 -0.1847 -0.1484 -0.2458
   75loPI   GL2 1190  17.033   3.860   9.951  0.0075  0.1250  0.3309
   75loPI   C1A 1191  16.616   3.835   9.633  0.1550 -0.0560  0.0676
   75loPI   C2A 1192  16.652   4.033   9.306 -0.0811  0.1543  0.1834
   75loPI   C3A 1193  16.702   4.409   9.021 -0.0662 -0.0327  0.0237
   75loPI   C4A 1194  16.847   4.826   8.992 -0.0603 -0.1396  0.1114
   75loPI   C5A 1195  16.848   5.074   8.733 -0.0802 -0.1929  0.0007
   75loPI   C6A 1196  17.019   4.808   8.367 -0.1417 -0.1572 -0.1851
   75loPI   C1B 1197  17.126   3.727   9.503  0.0969  0.1272  0.4311
   75loPI   C2B 1198  17.108   3.877   9.055 -0.0689  0.1468 -0.0269
   75loPI   C3B 1199  17.253   3.954   8.649  0.1320 -0.0911  0.0817
   75loPI   C4B 1200  17.234   3.973   8.246  0.0584  0.4197 -0.0803
   76loPI    C1 1201   6.768  13.805  11.127  0.1526  0.0368 -0.0455
   76loPI    C2 1202   6.897  13.974  11.466 -0.3563  0.1857  0.0813
   76loPI    C3 1203   6.814  13.583  11.457 -0.0149  0.1113  0.0288
   76loPI   PO4 1204   6.841  13.958  10.980 -0.1780 -0.3174 -0.1344
   76loPI   GL1 1205   7.165  13.985  10.615 -0.0006  0.2781  0.2311
   76loPI   GL2 1206   7.150  14.227  10.393  0.0272 -0.1119  0.0857
   76loPI   C1A 1207   7.246  13.772  10.247  0.1692  0.0640  0.4121
   76loPI   C2A 1208   7.322  13.580   9.907  0.0477  0.1017 -0.1717
   76loPI   C3A 1209   7.279  13.559   9.462 -0.1454  0.2328 -0.3602
   76loPI   C4A 1210   7.175  13.625   9.036  0.2074  0.0871  0.0575
   76loPI   C5A 1211   6.947  13.794   8.615 -0.0820  0.0395  0.0244
   76loPI   C6A 1212   7.050  14.084   8.304  0.0242  0.1207  0.2121
   76loPI   C1B 1213   7.239  14.170   9.954 -0.0044  0.0351 -0.1309
   76loPI   C2B 1214   7.321  14.049   9.612  0.1906  0.1877  0.1329
   76loPI   C3B 1215   7.288  14.021   9.261  0.2553 -0.0488  0.0965
   76loPI   C4B 1216   7.254  14.119   8.867 -0.3318 -0.0097  0.0400
   77loPI    C1 1217  16.606  15.968  11.024 -0.1166 -0.1439  0.0297
   77loPI    C2 1218  16.935  15.902  10.806 -0.1232  0.0846 -0.0527
   77loPI    C3 1219  16.959  15.919  11.205 -0.0300  0.1270 -0.0599
   77loPI   PO4 1220  16.540  16.163  10.873 -0.1569 -0.0625 -0.3851
   77loPI   GL1 1221  16.686  16.228  10.534  0.0985  0.2688 -0.0702
   77loPI   GL2 1222  16.977  16.379  10.620  0.1691 -0.1062 -0.1353
   77loPI   C1A 1223  16.811  15.921  10.178  0.0227  0.0375  0.0603
   77loPI   C2A 1224  16.786  15.969   9.758 -0.2232 -0.0425 -0.2275
   77loPI   C3A 1225  16.721  15.967   9.280 -0.1204  0.2254 -0.1408
   77loPI   C4A 1226  16.773  16.046   8.791 -0.0177  0.4347 -0.4072
   77loPI   C5A 1227  16.370  15.924   8.531 -0.1387 -0.0874  0.1478
   77loPI   C6A 1228  16.112  15.601   8.376  0.1031  0.3509  0.3158
   77loPI   C1B 1229  16.947  16.436  10.154  0.2271 -0.1532  0.0314
   77loPI   C2B 1230  16.914  16.440   9.685 -0.0752  0.1716 -0.1564
   77loPI   C3B 1231  16.887  16.420   9.282  0.0440 -0.4126 -0.0758
   77loPI   C4B 1232  16.895  16.548   8.963 -0.1205  0.0003 -0.0301
   78loPI    C1 1233  11.164   0.144  11.232  0.0566 -0.0093  0.1261
   78loPI    C2 1234  10.804  -0.014  11.304 -0.1041  0.1672 -0.2601
   78loPI    C3 1235  10.937   0.292  11.526 -0.1014 -0.0304  0.0155
   78loPI   PO4 1236  11.189   0.114  10.855 -0.1001  0.0105  0.0301
   78loPI   GL1 1237  11.459   0.317  10.606 -0.0456 -0.2011  0.3405
   78loPI   GL2 1238  11.771   0.330  10.552  0.1393  0.0577 -0.0269
   78loPI   C1A 1239  11.378   0.404  10.130 -0.0477 -0.0535  0.2336
   78loPI   C2A 1240  11.411   0.410   9.790 -0.1423  0.1472  0.0430
   78loPI   C3A 1241  11.504   0.256   9.364 -0.0170  0.0328  0.0527
   78loPI   C4A 1242  11.531   0.117   8.986 -0.0732  0.2409  0.1343
   78loPI   C5A 1243  11.576   0.121   8.520  0.3846 -0.0025 -0.2829
   78loPI   C6A 1244  11.417   0.207   8.010  0.1163  0.2961 -0.0624
   78loPI   C1B 1245  11.951   0.202  10.121  0.2319 -0.0760  0.4985
   78loPI   C2B 1246  11.928   0.196   9.655  0.0377 -0.2796  0.2479
   78loPI   C3B 1247  11.968  -0.005   9.220 -0.2030  0.1912 -0.1579
   78loPI   C4B 1248  11.991  -0.039   8.811 -0.0042  0.0308  0.1602
   79loPI    C1 1249   6.289   3.110  10.627  0.1217  0.1735 -0.1205
   79loPI    C2 1250   6.359   2.796  10.866 -0.0202  0.0361 -0.2576
   79loPI    C3 1251   6.300   3.159  11.024  0.2582  0.0169 -0.1038
   79loPI   PO4 1252   6.091   3.037  10.416  0.0694 -0.0338  0.0854
   79loPI   GL1 1253   6.142   3.251  10.034 -0.0718  0.1238 -0.3398
   79loPI   GL2 1254   6.414   3.406  10.004  0.2259  0.0628 -0.0218
   79loPI   C1A 1255   5.974   2.970   9.771  0.0435  0.2352  0.0672
   79loPI   C2A 1256   5.875   2.815   9.336  0.3334 -0.1618 -0.0323
   79loPI   C3A 1257   5.824   2.689   8.953 -0.2574 -0.1600  0.2454
   79loPI   C4A 1258   5.795   2.624   8.469  0.2225  0.1898  0.0040
   79loPI   C5A 1259   5.757   2.419   8.104  0.1031 -0.0166  0.1878
   79loPI   C6A 1260   5.363   2.527   7.900 -0.1082 -0.0810 -0.1078
   79loPI   C1B 1261   6.280   3.402   9.503  0.0595 -0.2975  0.1309
   79loPI   C2B 1262   6.179   3.229   9.112 -0.0030 -0.1941  0.0329
   79loPI   C3B 1263   6.127   3.093   8.680 -0.1969  0.0392 -0.0290
   79loPI   C4B 1264   6.155   2.967   8.254 -0.0713  0.1455 -0.0363
   80loPI    C1 1265  15.147  11.764  10.988 -0.2436  0.0940 -0.0803
   80loPI    C2 1266  15.337  11.968  11.276 -0.0232 -0.0981 -0.0861
   80loPI    C3 1267  15.033  11.725  11.370 -0.0013 -0.1021 -0.0254
   80loPI   PO4 1268  15.091  11.886  10.793  0.3078  0.0839 -0.1007
   80loPI   GL1 1269  14.886  11.812  10.320 -0.0860 -0.0168  0.0893
   80loPI   GL2 1270  14.983  11.533  10.445  0.0576 -0.3713  0.2619
   80loPI   C1A 1271  15.352  11.983  10.065 -0.0600  0.1944 -0.0730
   80loPI   C2A 1272  15.523  11.956   9.704  0.1519 -0.2255  0.1991
   80loPI   C3A 1273  15.546  11.940   9.296  0.0080  0.0995 -0.0317
   80loPI   C4A 1274  15.514  12.035   8.841 -0.0091  0.0708  0.1837
   80loPI   C5A 1275  15.297  12.269   8.534 -0.0120  0.2436  0.1203
   80loPI   C6A 1276  15.016  12.264   8.115 -0.0485 -0.0943 -0.0619
   80loPI   C1B 1277  14.930  11.494   9.986 -0.0175 -0.0170 -0.0825
   80loPI   C2B 1278  15.070  11.685   9.497  0.1104 -0.1377  0.1797
   80loPI   C3B 1279  15.126  11.741   8.978 -0.0970  0.0033 -0.0497
   80loPI   C4B 1280  14.911  11.481   8.713  0.2569  0.1332  0.1373
   81loPI    C1 1281   1.220   9.709  10.612  0.0058  0.1267  0.1249
   81loPI    C2 1282   1.263   9.528  10.966  0.0128 -0.1603 -0.0201
   81loPI    C3 1283   1.571   9.725  10.804  0.0040 -0.0120  0.1407
   81loPI   PO4 1284   0.997   9.835  10.601 -0.1063  0.1827 -0.1068
   81loPI   GL1 1285   0.966   9.959  10.215  0.1498  0.1407  0.1044
   81loPI   GL2 1286   0.648   9.710  10.253 -0.0881  0.0727 -0.0001
   81loPI   C1A 1287   1.032  10.077   9.783  0.1669 -0.1489  0.0687
   81loPI   C2A 1288   0.895   9.999   9.408 -0.0753  0.0742  0.0479
   81loPI   C3A 1289   0.945  10.085   8.921 -0.1505  0.0579  0.1120
   81loPI   C4A 1290   1.001  10.111   8.504 -0.0135 -0.0686 -0.2537
   81loPI   C5A 1291   0.799  10.018   8.149  0.1356 -0.1612  0.0506
   81loPI   C6A 1292   0.470   9.941   7.971  0.0883 -0.2683  0.0054
   81loPI   C1B 1293   0.540   9.933   9.969 -0.0464 -0.4130  0.1626
   81loPI   C2B 1294   0.414   9.862   9.582 -0.0638 -0.2636 -0.3151
   81loPI   C3B 1295   0.406   9.894   9.131  0.0454 -0.1496  0.3476
   81loPI   C4B 1296   0.489  10.031   8.571 -0.2027 -0.3399  0.3016
   82loPI    C1 1297   0.994   5.595  10.974 -0.1967  0.2362 -0.0941
   82loPI    C2 1298   0.768   5.839  11.196  0.1406  0.2685  0.2236
   82loPI    C3 1299   1.095   5.672  11.353  0.0685 -0.1716 -0.0763
   82loPI   PO4 1300   0.837   5.484  10.840  0.0135 -0.0368  0.3777
   82loPI   GL1 1301   0.568   5.472  10.504 -0.1244  0.2453  0.5482
   82loPI   GL2 1302   0.630   5.182  10.317  0.1328  0.0805  0.5724
   82loPI   C1A 1303   0.588   5.568  10.039 -0.0236 -0.0071  0.0657
   82loPI   C2A 1304   0.495   5.581   9.599  0.1876 -0.0349  0.2678
   82loPI   C3A 1305   0.479   5.638   9.173  0.0831 -0.2400 -0.3279
   82loPI   C4A 1306   0.345   5.772   8.830 -0.1851  0.1595 -0.1507
   82loPI   C5A 1307   0.541   5.824   8.413 -0.0520 -0.1825  0.1853
   82loPI   C6A 1308   0.577   5.611   7.914 -0.2043 -0.0284  0.1556
   82loPI   C1B 1309   0.738   5.013   9.894 -0.0490  0.2105  0.0005
   82loPI   C2B 1310   0.670   5.126   9.463 -0.0457  0.0846 -0.0442
   82loPI   C3B 1311   0.632   5.160   9.057  0.0832  0.3069  0.0956
   82loPI   C4B 1312   0.440   5.328   8.720 -0.0896  0.3476  0.2973
   83loPI    C1 1313   9.724   0.831  11.200 -0.0108 -0.0591 -0.0020
   83loPI    C2 1314   9.862   1.204  11.247 -0.2294  0.0371 -0.1068
   83loPI    C3 1315   9.864   0.950  11.556  0.0118  0.0925 -0.0605
   83loPI   PO4 1316   9.845   0.867  10.864  0.2174 -0.2905  0.0361
   83loPI   GL1 1317   9.692   0.950  10.468 -0.1007  0.1360  0.0699
   83loPI   GL2 1318   9.740   0.590  10.357 -0.1157  0.1069  0.3106
   83loPI   C1A 1319   9.937   1.101  10.094  0.1072  0.0325 -0.2455
   83loPI   C2A 1320  10.017   0.980   9.640  0.0187  0.2018 -0.0316
   83loPI   C3A 1321  10.169   0.920   9.215  0.2774 -0.1115 -0.2837
   83loPI   C4A 1322  10.264   0.874   8.764 -0.0395  0.1380 -0.2649
   83loPI   C5A 1323  10.277   0.908   8.374 -0.0618  0.2602 -0.2455
   83loPI   C6A 1324  10.080   0.810   7.901  0.1647  0.2998 -0.1852
   83loPI   C1B 1325   9.589   0.679   9.897  0.0983  0.0209 -0.1738
   83loPI   C2B 1326   9.589   0.694   9.512  0.1369 -0.0737  0.3954
   83loPI   C3B 1327   9.729   0.675   9.159  0.0330  0.0409  0.0431
   83loPI   C4B 1328   9.622   0.625   8.638  0.2259 -0.0522 -0.0772
   84loPI    C1 1329   3.613  14.654  10.658  0.1135 -0.1030  0.1626
   84loPI    C2 1330   3.872  14.377  10.531  0.2189  0.0558  0.0266
   84loPI    C3 1331   3.841  14.459  10.922  0.1339 -0.1982  0.0748
   84loPI   PO4 1332   3.659  14.843  10.522  0.1353 -0.0922  0.1440
   84loPI   GL1 1333   3.464  15.077  10.142  0.1953 -0.2536  0.1592
   84loPI   GL2 1334   3.351  14.783  10.151  0.0786 -0.0852  0.2579
   84loPI   C1A 1335   3.383  15.244   9.812  0.3341 -0.0454 -0.1123
   84loPI   C2A 1336   3.361  15.351   9.294 -0.0988  0.0120 -0.0387
   84loPI   C3A 1337   3.407  15.313   8.766  0.0145  0.2539 -0.0153
   84loPI   C4A 1338   3.384  15.326   8.371 -0.1041  0.0397  0.0204
   84loPI   C5A 1339   3.380  15.617   8.075  0.3281 -0.1404 -0.2697
   84loPI   C6A 1340   3.631  15.941   7.880 -0.0659  0.0067  0.0194
   84loPI   C1B 1341   3.055  14.824   9.830  0.0038 -0.0914 -0.2118
   84loPI   C2B 1342   2.918  15.026   9.438 -0.3914 -0.2599  0.3806
   84loPI   C3B 1343   2.967  15.076   9.033  0.1772 -0.0482  0.0914
   84loPI   C4B 1344   2.949  15.153   8.563 -0.2161 -0.3075  0.3348
   85loPI    C1 1345   2.106   0.137  10.861  0.0278  0.1957  0.0607
   85loPI    C2 1346   2.377   0.172  11.152  0.0618 -0.1912  0.0806
   85loPI    C3 1347   2.234  -0.189  11.055 -0.1511 -0.0349 -0.1997
   85loPI   PO4 1348   2.194   0.217  10.707 -0.2486 -0.0077 -0.0037
   85loPI   GL1 1349   2.196   0.289  10.360  0.0541  0.0839 -0.1125
   85loPI   GL2 1350   2.118   0.523  10.236 -0.1029  0.0982 -0.2902
   85loPI   C1A 1351   1.992   0.176   9.922 -0.0053  0.0408 -0.0387
   85loPI   C2A 1352   1.788  -0.040   9.599 -0.0006  0.3300 -0.0047
   85loPI   C3A 1353   1.682  -0.201   9.236  0.1251  0.1361  0.0625
   85loPI   C4A 1354   1.657  -0.460   8.969  0.1695  0.2212  0.0206
   85loPI   C5A 1355   1.724  -0.571   8.494 -0.1226  0.0446  0.1095
   85loPI   C6A 1356   1.818  -0.500   8.058  0.1940 -0.0084 -0.1690
   85loPI   C1B 1357   2.011   0.759   9.934 -0.3221 -0.0228  0.3276
   85loPI   C2B 1358   1.896   0.775   9.447 -0.3285 -0.1075  0.1341
   85loPI   C3B 1359   1.723   0.859   9.014 -0.0357 -0.2901  0.2834
   85loPI   C4B 1360   1.603   0.935   8.614 -0.1845  0.1091 -0.1146
   86loPI    C1 1361   4.380  11.200  10.503 -0.1512  0.0954 -0.0238
   86loPI    C2 1362   4.160  11.443  10.273 -0.1144  0.0433 -0.1146
   86loPI    C3 1363   4.310  11.576  10.619 -0.0239  0.1762 -0.2040
   86loPI   PO4 1364   4.462  11.007  10.359 -0.2343  0.2115  0.1771
   86loPI   GL1 1365   4.608  10.787   9.983  0.3835  0.1321  0.0311
   86loPI   GL2 1366   4.863  11.025  10.005 -0.1743 -0.2917 -0.0600
   86loPI   C1A 1367   4.857  10.446   9.774 -0.4815  0.2028  0.0773
   86loPI   C2A 1368   5.047  10.358   9.369  0.0862  0.1553  0.1849
   86loPI   C3A 1369   5.042  10.401   8.898  0.0816 -0.0263 -0.1538
   86loPI   C4A 1370   4.878  10.345   8.551  0.1282  0.0902 -0.1012
   86loPI   C5A 1371   4.543  10.123   8.285  0.0574 -0.1684  0.2555
   86loPI   C6A 1372   4.302  10.133   8.040  0.1145  0.0625  0.0915
   86loPI   C1B 1373   4.925  10.910   9.537 -0.1401 -0.2414 -0.1900
   86loPI   C2B 1374   4.907  11.021   9.089  0.0555  0.1656 -0.0103
   86loPI   C3B 1375   4.696  11.190   8.735 -0.1375 -0.0683  0.0486
   86loPI   C4B 1376   4.397  11.315   8.370  0.0672 -0.0646  0.1038
   87loPI    C1 1377  17.911  13.346  11.012  0.0987  0.1133 -0.1098
   87loPI    C2 1378  17.631  13.524  11.235 -0.0544 -0.2035 -0.0438
   87loPI    C3 1379  17.963  13.723  11.135 -0.1562  0.0680  0.1471
   87loPI   PO4 1380  17.752  13.252  10.821 -0.0358  0.3027  0.0522
   87loPI   GL1 1381  17.804  13.071  10.372  0.1591 -0.0024  0.0015
   87loPI   GL2 1382  17.501  12.993  10.468 -0.0686 -0.0110  0.1517
   87loPI   C1A 1383  17.612  12.891   9.968 -0.0749 -0.3013  0.2356
   87loPI   C2A 1384  17.576  12.934   9.483 -0.0379  0.0584 -0.2749
   87loPI   C3A 1385  17.710  12.909   9.046  0.2990  0.0760 -0.0155
   87loPI   C4A 1386  17.565  12.869   8.704  0.1158 -0.0877 -0.2140
   87loPI   C5A 1387  17.483  13.082   8.349 -0.1171 -0.0637  0.2997
   87loPI   C6A 1388  17.076  13.311   8.258 -0.1911  0.1873 -0.1220
   87loPI   C1B 1389  17.348  13.238  10.162 -0.1801  0.2156 -0.0903
   87loPI   C2B 1390  17.289  13.248   9.704  0.0680 -0.1723 -0.2077
   87loPI   C3B 1391  17.249  13.280   9.212 -0.0282  0.0757  0.2387
   87loPI   C4B 1392  17.255  13.285   8.767 -0.3250 -0.1035  0.1296
   88loPI    C1 1393   3.805  16.261  10.265  0.0171  0.0526 -0.0933
   88loPI    C2 1394   4.025  16.243  10.599 -0.1871  0.0121  0.0405
   88loPI    C3 1395   4.180  16.120  10.251  0.0943  0.2357  0.0829
   88loPI   PO4 1396   3.742  16.509  10.237  0.0979  0.0119  0.0594
   88loPI   GL1 1397   3.501  16.705  10.030  0.5073 -0.0347  0.3300
   88loPI   GL2 1398   3.160  16.737   9.993  0.0916 -0.1443 -0.0513
   88loPI   C1A 1399   3.586  16.484   9.655 -0.0731  0.2320  0.4268
   88loPI   C2A 1400   3.480  16.330   9.183  0.1868  0.3277  0.0807
   88loPI   C3A 1401   3.390  16.168   8.751  0.0122  0.0624  0.1160
   88loPI   C4A 1402   3.329  16.152   8.285  0.1664 -0.0051  0.1264
   88loPI   C5A 1403   3.426  16.415   7.916 -0.1632  0.0922  0.0946
   88loPI   C6A 1404   3.687  16.721   7.766  0.0141 -0.1101 -0.3161
   88loPI   C1B 1405   3.106  16.600   9.512 -0.0610 -0.3025  0.1942
   88loPI   C2B 1406   2.957  16.509   9.070 -0.0506  0.0821  0.0376
   88loPI   C3B 1407   2.789  16.540   8.556  0.2113  0.2304  0.2578
   88loPI   C4B 1408   2.948  16.603   8.213  0.1110  0.2593  0.2661
   89loPI    C1 1409   8.603   7.508  10.799  0.1375  0.0097 -0.1331
   89loPI    C2 1410   8.887   7.719  10.612 -0.0542  0.3131 -0.0883
   89loPI    C3 1411   8.902   7.669  11.009  0.1179  0.0379 -0.1268
   89loPI   PO4 1412   8.473   7.360  10.631  0.1020  0.1844 -0.1175
   89loPI   GL1 1413   8.557   7.052  10.324 -0.0918 -0.0734  0.2053
   89loPI   GL2 1414   8.402   6.867  10.144  0.0312 -0.1678  0.2421
   89loPI   C1A 1415   8.535   7.364  10.043 -0.1614  0.2642  0.1816
   89loPI   C2A 1416   8.614   7.439   9.611 -0.2241 -0.0209 -0.0359
   89loPI   C3A 1417   8.706   7.557   9.135  0.0497  0.1462  0.1613
   89loPI   C4A 1418   8.758   7.537   8.737 -0.4733 -0.1329  0.0530
   89loPI   C5A 1419   8.515   7.614   8.295  0.1817 -0.0943 -0.0182
   89loPI   C6A 1420   8.046   7.707   8.306 -0.3731 -0.0628  0.1722
   89loPI   C1B 1421   8.276   6.980   9.746 -0.0280 -0.0571  0.2249
   89loPI   C2B 1422   8.472   7.053   9.262 -0.0935  0.0547  0.1474
   89loPI   C3B 1423   8.539   7.081   8.912 -0.0282  0.1442 -0.1246
   89loPI   C4B 1424   8.699   7.081   8.497  0.0536 -0.2778 -0.3078
   90loPI    C1 1425   8.346  11.782  11.352 -0.0802 -0.1890 -0.0520
   90loPI    C2 1426   8.459  11.525  11.637 -0.3007 -0.1132  0.1072
   90loPI    C3 1427   8.421  11.914  11.723 -0.0731 -0.0412 -0.1052
   90loPI   PO4 1428   8.531  11.698  11.118 -0.0089  0.1487  0.1830
   90loPI   GL1 1429   8.802  11.681  10.715 -0.1415  0.0681  0.1722
   90loPI   GL2 1430   8.827  11.456  10.786 -0.0488  0.3030 -0.2343
   90loPI   C1A 1431   8.860  11.794  10.295 -0.2679 -0.0971  0.0343
   90loPI   C2A 1432   8.969  11.646   9.853 -0.1426  0.1169  0.0347
   90loPI   C3A 1433   9.026  11.560   9.382 -0.3744  0.1931  0.1558
   90loPI   C4A 1434   9.055  11.607   9.059 -0.1089 -0.2878 -0.1037
   90loPI   C5A 1435   8.858  11.430   8.656 -0.3396  0.0360  0.0089
   90loPI   C6A 1436   8.518  11.648   8.627  0.1948 -0.2539  0.0920
   90loPI   C1B 1437   8.816  11.285  10.335 -0.1504 -0.2431  0.3415
   90loPI   C2B 1438   8.803  11.124   9.895 -0.1745  0.2995 -0.0905
   90loPI   C3B 1439   8.863  11.128   9.553 -0.3311 -0.1119 -0.1834
   90loPI   C4B 1440   8.919  11.108   9.130  0.1256 -0.0616 -0.0394
   91loPI    C1 1441  14.637   0.381  10.802  0.3511 -0.0289 -0.0246
   91loPI    C2 1442  14.522   0.028  10.950 -0.1220  0.0668 -0.1444
   91loPI    C3 1443  14.669   0.308  11.194 -0.1255 -0.0675  0.0139
   91loPI   PO4 1444  14.479   0.520  10.767 -0.1149  0.1801  0.1973
   91loPI   GL1 1445  14.154   0.567  10.456  0.1330 -0.0993 -0.0258
   91loPI   GL2 1446  14.436   0.681  10.299  0.2221  0.2057 -0.1815
   91loPI   C1A 1447  14.246   0.327  10.045  0.0262  0.2171  0.1335
   91loPI   C2A 1448  14.278   0.023   9.741  0.0308 -0.0092  0.1526
   91loPI   C3A 1449  14.165  -0.394   9.632  0.1539 -0.0205  0.0044
   91loPI   C4A 1450  14.233  -0.715   9.359 -0.0389  0.1122  0.0170
   91loPI   C5A 1451  14.226  -0.942   8.926 -0.2483 -0.1177 -0.0475
   91loPI   C6A 1452  14.214  -1.151   8.596 -0.2661  0.0418  0.1381
   91loPI   C1B 1453  14.517   0.649   9.784  0.1501 -0.2853 -0.2759
   91loPI   C2B 1454  14.436   0.636   9.335  0.0443 -0.0565 -0.0173
   91loPI   C3B 1455  14.673   0.415   8.981  0.2041  0.3097 -0.1571
   91loPI   C4B 1456  14.500   0.495   8.542 -0.1137  0.2664 -0.1673
   92loPI    C1 1457   9.640   1.457  10.881 -0.0526 -0.1757 -0.1643
   92loPI    C2 1458   9.399   1.140  10.922 -0.1188 -0.0805  0.2137
   92loPI    C3 1459   9.368   1.450  11.174  0.0377  0.1694 -0.0676
   92loPI   PO4 1460   9.847   1.357  10.733  0.1431 -0.1442 -0.1434
   92loPI   GL1 1461  10.209   1.406  10.428  0.2459  0.0922 -0.5338
   92loPI   GL2 1462  10.395   1.688  10.488  0.1835  0.0026 -0.0234
   92loPI   C1A 1463  10.479   1.304  10.066  0.1062  0.1472 -0.0048
   92loPI   C2A 1464  10.434   1.292   9.617 -0.1911  0.2086  0.2417
   92loPI   C3A 1465  10.579   1.206   9.180 -0.1038 -0.1363 -0.1867
   92loPI   C4A 1466  10.553   1.279   8.692 -0.1192 -0.0354 -0.0803
   92loPI   C5A 1467  10.981   1.255   8.440 -0.0670  0.0048 -0.1461
   92loPI   C6A 1468  11.258   1.128   8.255  0.2819 -0.2027  0.2720
   92loPI   C1B 1469  10.323   1.796  10.056 -0.0722  0.0152  0.0662
   92loPI   C2B 1470   9.924   1.996   9.929 -0.1458 -0.0092  0.0857
   92loPI   C3B 1471   9.948   1.991   9.413 -0.1918  0.0558  0.1368
   92loPI   C4B 1472  10.080   1.911   9.014 -0.1671 -0.0337 -0.0306
   93loPI    C1 1473  15.489   3.770  11.041 -0.0453  0.1461  0.0239
   93loPI    C2 1474  15.757   4.064  10.997  0.2744 -0.1291  0.0862
   93loPI    C3 1475  15.741   3.858  11.339  0.1105 -0.2404  0.0127
   93loPI   PO4 1476  15.512   3.613  10.734 -0.1932 -0.0013  0.1013
   93loPI   GL1 1477  15.304   3.483  10.358 -0.2557 -0.2139 -0.1093
   93loPI   GL2 1478  15.187   3.160  10.336 -0.2243  0.1222  0.0349
   93loPI   C1A 1479  15.519   3.388   9.880 -0.0674  0.1975 -0.2389
   93loPI   C2A 1480  15.686   3.468   9.499  0.3598 -0.0460  0.0852
   93loPI   C3A 1481  15.545   3.573   9.020 -0.0672 -0.4143  0.2811
   93loPI   C4A 1482  15.323   3.599   8.648  0.3253  0.0303  0.3339
   93loPI   C5A 1483  15.150   3.410   8.313 -0.0383 -0.0314 -0.0658
   93loPI   C6A 1484  15.080   3.172   7.922  0.0481  0.2961 -0.0854
   93loPI   C1B 1485  14.952   3.335   9.940  0.0952 -0.2153 -0.1109
   93loPI   C2B 1486  15.022   3.472   9.645  0.1813  0.2611  0.0805
   93loPI   C3B 1487  15.063   3.468   9.139 -0.1063  0.0589 -0.0947
   93loPI   C4B 1488  14.864   3.250   8.787 -0.0982  0.4273 -0.0267
   94loPI    C1 1489  10.519  13.125  11.082  0.0042 -0.1332 -0.1137
   94loPI    C2 1490  10.558  13.115  11.480  0.1015  0.1955 -0.1121
   94loPI    C3 1491  10.487  12.777  11.277 -0.1619  0.0557  0.2037
   94loPI   PO4 1492  10.381  13.338  10.979 -0.2180  0.0611 -0.1696
   94loPI   GL1 1493  10.256  13.312  10.618  0.0608 -0.3189 -0.0977
   94loPI   GL2 1494  10.444  13.454  10.354 -0.1308  0.3482 -0.1206
   94loPI   C1A 1495   9.891  13.525  10.421  0.0784  0.2861 -0.1096
   94loPI   C2A 1496   9.688  13.690  10.134 -0.0391 -0.0796  0.1604
   94loPI   C3A 1497   9.533  13.769   9.886  0.0082 -0.0216 -0.0429
   94loPI   C4A 1498   9.495  13.926   9.499 -0.1894 -0.1798 -0.0263
   94loPI   C5A 1499   9.468  13.855   9.034 -0.0668 -0.0851  0.2721
   94loPI   C6A 1500   9.462  13.835   8.632  0.0233 -0.0089 -0.0518
   94loPI   C1B 1501  10.291  13.476   9.980  0.0006  0.0094 -0.3552
   94loPI   C2B 1502   9.962  13.607   9.675 -0.0200 -0.1792  0.1882
   94loPI   C3B 1503   9.884  13.745   9.218  0.3271  0.1931 -0.3212
   94loPI   C4B 1504   9.905  13.618   8.788 -0.1332  0.0856 -0.0657
   95loPI    C1 1505  11.469   7.033  10.903 -0.2416 -0.0192  0.1303
   95loPI    C2 1506  11.213   6.729  10.861 -0.2010 -0.0357 -0.0010
   95loPI    C3 1507  11.410   6.778  11.206 -0.1260 -0.2228 -0.0162
   95loPI   PO4 1508  11.359   7.215  10.781 -0.2236 -0.2810  0.0837
   95loPI   GL1 1509  11.088   7.214  10.444 -0.1147 -0.2297  0.1053
   95loPI   GL2 1510  11.261   6.921  10.390  0.0686  0.0905 -0.2288
   95loPI   C1A 1511  11.047   7.488  10.055  0.2574  0.4684 -0.2832
   95loPI   C2A 1512  10.979   7.538   9.636 -0.3092  0.0276  0.1502
   95loPI   C3A 1513  11.006   7.547   9.186 -0.2278  0.1056 -0.2046
   95loPI   C4A 1514  10.981   7.573   8.767 -0.0121 -0.1034  0.0648
   95loPI   C5A 1515  11.033   7.528   8.382  0.0149 -0.0995 -0.3417
   95loPI   C6A 1516  10.805   7.561   7.966 -0.2944  0.0023  0.1881
   95loPI   C1B 1517  11.443   7.067  10.016  0.0425 -0.1607  0.1015
   95loPI   C2B 1518  11.388   7.126   9.618  0.1359 -0.1236 -0.3448
   95loPI   C3B 1519  11.413   7.218   9.164  0.1897 -0.0199  0.1227
   95loPI   C4B 1520  11.343   7.075   8.824 -0.2842 -0.0386 -0.1064
   96loPI    C1 1521  11.157   3.738  11.159  0.1027 -0.1421 -0.0148
   96loPI    C2 1522  10.870   3.820  11.425  0.1148  0.0075 -0.0467
   96loPI    C3 1523  10.999   3.444  11.379 -0.0284 -0.0501  0.0152
   96loPI   PO4 1524  11.058   3.926  10.927  0.0432 -0.3116 -0.2313
   96loPI   GL1 1525  11.038   3.824  10.477  0.0053  0.1695  0.1048
   96loPI   GL2 1526  11.262   3.954  10.383  0.2524  0.1020  0.0174
   96loPI   C1A 1527  11.042   3.788   9.967  0.1459  0.0365 -0.2245
   96loPI   C2A 1528  10.833   3.781   9.581  0.1373  0.0157  0.1987
   96loPI   C3A 1529  10.876   3.959   9.202  0.0510  0.0112 -0.0589
   96loPI   C4A 1530  10.809   4.191   8.769 -0.2903 -0.0173  0.0513
   96loPI   C5A 1531  10.569   4.613   8.667 -0.1232  0.0867  0.0025
   96loPI   C6A 1532  10.255   4.661   8.434  0.2688 -0.0265  0.3828
   96loPI   C1B 1533  11.685   4.020  10.171  0.0362  0.1270 -0.1659
   96loPI   C2B 1534  12.006   4.035   9.804  0.0284  0.2292 -0.0508
   96loPI   C3B 1535  12.240   4.080   9.521  0.1753 -0.1607  0.0281
   96loPI   C4B 1536  12.361   4.232   9.111 -0.0552 -0.3647 -0.2269
   97loPI    C1 1537   2.613  16.924  10.648 -0.1420  0.1676 -0.1629
   97loPI    C2 1538   2.332  16.697  10.820 -0.1177  0.2408 -0.0258
   97loPI    C3 1539   2.643  16.827  11.034  0.1206  0.0050 -0.2221
   97loPI   PO4 1540   2.690  16.789  10.506 -0.3078  0.5246  0.0681
   97loPI   GL1 1541   2.753  16.561  10.279 -0.0690  0.1288 -0.5442
   97loPI   GL2 1542   2.310  16.660  10.303  0.1959  0.1573 -0.1197
   97loPI   C1A 1543   2.814  16.403   9.904 -0.0947  0.2496 -0.2496
   97loPI   C2A 1544   2.689  16.267   9.575 -0.1016 -0.1353 -0.2444
   97loPI   C3A 1545   2.467  16.328   9.145  0.2434  0.1244  0.2387
   97loPI   C4A 1546   2.366  16.241   8.718 -0.0275 -0.0149  0.0875
   97loPI   C5A 1547   2.402  16.488   8.295 -0.2048  0.5680 -0.1126
   97loPI   C6A 1548   2.237  16.499   7.979 -0.0675 -0.0491  0.0280
   97loPI   C1B 1549   2.289  16.687   9.817  0.0216 -0.0700 -0.0177
   97loPI   C2B 1550   2.104  16.648   9.375 -0.0838 -0.0067 -0.1180
   97loPI   C3B 1551   2.118  16.725   8.955 -0.1832  0.3388  0.0532
   97loPI   C4B 1552   2.023  16.662   8.578 -0.1626 -0.3135  0.1783
   98loPI    C1 1553   9.384   6.325  10.783 -0.0602  0.0124 -0.0197
   98loPI    C2 1554   9.704   6.460  10.982 -0.3139  0.4972  0.0740
   98loPI    C3 1555   9.361   6.391  11.177 -0.2756 -0.0147 -0.0261
   98loPI   PO4 1556   9.465   6.126  10.625  0.3070  0.0528  0.1173
   98loPI   GL1 1557   9.569   6.167  10.297  0.1049 -0.2399  0.2111
   98loPI   GL2 1558   9.436   6.510  10.265 -0.1334 -0.1289 -0.0338
   98loPI   C1A 1559   9.676   6.162   9.922  0.1027 -0.0654 -0.1132
   98loPI   C2A 1560   9.698   6.293   9.530 -0.0604 -0.2832 -0.0892
   98loPI   C3A 1561   9.752   6.349   9.133  0.1050 -0.0742  0.0708
   98loPI   C4A 1562   9.677   6.523   8.715 -0.0229  0.1327 -0.1763
   98loPI   C5A 1563   9.356   6.800   8.841 -0.0897 -0.0899  0.2246
   98loPI   C6A 1564   9.067   7.088   8.956 -0.0369 -0.0541 -0.2905
   98loPI   C1B 1565   9.336   6.507   9.829 -0.0714 -0.1033  0.3981
   98loPI   C2B 1566   9.376   6.672   9.456  0.2137  0.2142  0.1885
   98loPI   C3B 1567   9.041   7.048   9.494  0.1265  0.0198  0.0844
   98loPI   C4B 1568   8.802   7.018   9.846  0.0848 -0.2049 -0.2900
   99loPI    C1 1569   5.443   5.263  10.774  0.2191 -0.0053  0.2492
   99loPI    C2 1570   5.559   5.325  11.152  0.0181  0.0143  0.3090
   99loPI    C3 1571   5.225   5.118  11.077  0.1429 -0.1276  0.1369
   99loPI   PO4 1572   5.482   5.517  10.572  0.0517  0.1218 -0.0713
   99loPI   GL1 1573   5.386   5.753  10.239 -0.2684  0.0189  0.1976
   99loPI   GL2 1574   5.468   6.054  10.217  0.1540  0.0847 -0.2408
   99loPI   C1A 1575   5.431   5.756   9.760 -0.2368  0.0584 -0.4468
   99loPI   C2A 1576   5.414   5.728   9.321  0.0867 -0.1307  0.1441
   99loPI   C3A 1577   5.383   5.677   8.927 -0.0998 -0.0147  0.1091
   99loPI   C4A 1578   5.130   5.829   8.569 -0.0370  0.4262  0.0201
   99loPI   C5A 1579   4.957   5.894   8.243 -0.0707 -0.1942 -0.0785
   99loPI   C6A 1580   4.616   6.126   7.912  0.0500  0.3287  0.0803
   99loPI   C1B 1581   5.337   6.209   9.865 -0.2933 -0.1830 -0.0064
   99loPI   C2B 1582   5.289   6.246   9.412 -0.4483  0.0348 -0.4390
   99loPI   C3B 1583   5.160   6.132   9.014 -0.2723 -0.0336  0.0916
   99loPI   C4B 1584   5.519   6.119   8.631 -0.0951  0.0628  0.1065
  100loPI    C1 1585   6.933   4.770  10.524  0.0672 -0.1125  0.0617
  100loPI    C2 1586   7.009   5.161  10.484  0.1671 -0.1609 -0.2550
  100loPI    C3 1587   7.174   4.954  10.785 -0.1617  0.1074  0.1216
  100loPI   PO4 1588   6.709   4.731  10.362 -0.2165 -0.1029  0.2066
  100loPI   GL1 1589   6.717   4.748   9.885 -0.2447 -0.5064  0.1604
  100loPI   GL2 1590   6.587   5.077   9.725  0.0123 -0.0499  0.4480
  100loPI   C1A 1591   6.803   4.747   9.428 -0.0282 -0.0678  0.0085
  100loPI   C2A 1592   7.097   4.703   9.093 -0.2402  0.0966  0.0444
  100loPI   C3A 1593   7.278   4.350   8.841  0.0697 -0.3493  0.0403
  100loPI   C4A 1594   7.370   4.265   8.415 -0.1093  0.1130  0.1251
  100loPI   C5A 1595   7.470   3.870   8.399 -0.3803 -0.0397  0.1924
  100loPI   C6A 1596   7.688   3.559   8.190 -0.0314  0.4046  0.1092
  100loPI   C1B 1597   6.475   5.075   9.302  0.0807  0.0239  0.1308
  100loPI   C2B 1598   6.663   4.896   8.945  0.1228 -0.0428  0.3815
  100loPI   C3B 1599   6.918   5.086   8.593 -0.0210 -0.0236  0.0598
  100loPI   C4B 1600   7.158   5.354   8.431 -0.2287 -0.2259  0.0281
  101loPI    C1 1601  10.098   4.008  10.985  0.3547  0.1371  0.0236
  101loPI    C2 1602  10.357   3.969  11.288  0.2249 -0.1633  0.0999
  101loPI    C3 1603  10.168   3.647  11.143 -0.0412  0.0392 -0.0131
  101loPI   PO4 1604  10.211   4.147  10.811 -0.0868  0.1872 -0.1188
  101loPI   GL1 1605  10.398   4.185  10.418  0.2301 -0.0032 -0.0929
  101loPI   GL2 1606  10.705   4.217  10.479  0.0844  0.0737 -0.0249
  101loPI   C1A 1607  10.349   4.234   9.923 -0.0645 -0.1478 -0.0869
  101loPI   C2A 1608  10.457   4.147   9.469 -0.1456  0.2916  0.3082
  101loPI   C3A 1609  10.376   4.071   8.971  0.3335  0.0931 -0.2939
  101loPI   C4A 1610  10.425   4.048   8.506  0.0961  0.2857 -0.2399
  101loPI   C5A 1611  10.458   4.260   8.188 -0.2508  0.0269  0.2259
  101loPI   C6A 1612  10.655   4.679   8.121 -0.0470  0.1127 -0.1829
  101loPI   C1B 1613  10.835   4.301  10.112  0.0661 -0.1650  0.1612
  101loPI   C2B 1614  10.819   4.308   9.707 -0.1248 -0.0353  0.0265
  101loPI   C3B 1615  10.872   4.436   9.292  0.0920  0.0386 -0.0321
  101loPI   C4B 1616  11.078   4.599   8.793 -0.5198 -0.1337  0.0068
  102loPI    C1 1617  10.750   2.063  10.650  0.0285 -0.0213 -0.0325
  102loPI    C2 1618  10.732   1.996  11.044 -0.0807  0.1199 -0.0130
  102loPI    C3 1619  11.035   1.847  10.830  0.0357  0.1314  0.1420
  102loPI   PO4 1620  10.707   2.383  10.594 -0.0135  0.2386  0.1539
  102loPI   GL1 1621  10.801   2.551  10.265  0.2687 -0.0215 -0.2266
  102loPI   GL2 1622  10.506   2.780  10.217 -0.0536 -0.0156  0.2785
  102loPI   C1A 1623  11.210   2.440  10.034  0.0324 -0.1833  0.2589
  102loPI   C2A 1624  11.397   2.367   9.645  0.1549  0.0924  0.2276
  102loPI   C3A 1625  11.451   2.410   9.226 -0.0608  0.4046  0.0101
  102loPI   C4A 1626  11.465   2.633   8.902  0.1089 -0.0412 -0.0669
  102loPI   C5A 1627  11.503   3.054   8.674  0.1053 -0.2194  0.2239
  102loPI   C6A 1628  11.410   3.467   8.472 -0.3229  0.2146  0.3260
  102loPI   C1B 1629  10.531   2.662   9.735 -0.0347  0.0135 -0.0149
  102loPI   C2B 1630  10.578   2.809   9.320  0.0163 -0.0129 -0.0039
  102loPI   C3B 1631  10.567   2.613   8.909  0.1034  0.1633  0.4249
  102loPI   C4B 1632  10.750   2.323   8.538 -0.1761 -0.1323  0.0577
  103loPI    C1 1633   9.397  13.045  10.970  0.0869  0.1160 -0.2754
  103loPI    C2 1634   9.598  12.757  11.162 -0.0665  0.0310 -0.2402
  103loPI    C3 1635   9.269  12.915  11.326  0.1436  0.3885 -0.1539
  103loPI   PO4 1636   9.365  12.948  10.698  0.0027  0.2574  0.1944
  103loPI   GL1 1637   9.358  13.202  10.352  0.1426 -0.0724  0.1874
  103loPI   GL2 1638   9.113  13.036  10.154 -0.1064  0.3178 -0.0479
  103loPI   C1A 1639   9.176  13.472  10.086 -0.0231 -0.2350 -0.1531
  103loPI   C2A 1640   9.107  13.600   9.717 -0.1168 -0.0863 -0.0266
  103loPI   C3A 1641   9.062  13.667   9.220  0.3535 -0.4089 -0.3190
  103loPI   C4A 1642   9.026  13.537   8.804  0.0217 -0.0970  0.2854
  103loPI   C5A 1643   8.806  13.385   8.468  0.0187 -0.0422  0.0931
  103loPI   C6A 1644   8.937  13.268   8.044 -0.0374 -0.4481 -0.3142
  103loPI   C1B 1645   9.151  13.115   9.651 -0.3614 -0.0613 -0.0761
  103loPI   C2B 1646   9.069  13.171   9.212  0.3619 -0.0462  0.0132
  103loPI   C3B 1647   9.103  13.026   8.871 -0.1988  0.2106 -0.0707
  103loPI   C4B 1648   8.940  12.924   8.561 -0.0424 -0.0514  0.3036
  104loPI    C1 1649  15.790  13.264  11.010 -0.1336  0.0592 -0.0666
  104loPI    C2 1650  15.708  13.211  11.397  0.3066  0.0361  0.0288
  104loPI    C3 1651  16.082  13.292  11.282  0.1432  0.2433 -0.3748
  104loPI   PO4 1652  15.664  13.474  10.894  0.1763 -0.4815 -0.2632
  104loPI   GL1 1653  15.321  13.690  10.708  0.0882  0.0067  0.0587
  104loPI   GL2 1654  15.181  13.390  10.693 -0.2174  0.2642 -0.1025
  104loPI   C1A 1655  15.281  13.699  10.248 -0.3024  0.2051 -0.0651
  104loPI   C2A 1656  15.331  13.564   9.818  0.3480  0.2014  0.0855
  104loPI   C3A 1657  15.213  13.514   9.444  0.1824  0.0932 -0.0175
  104loPI   C4A 1658  15.181  13.388   9.014  0.1554  0.1415  0.0273
  104loPI   C5A 1659  15.327  13.416   8.603 -0.0169 -0.1191  0.0348
  104loPI   C6A 1660  15.658  13.372   8.322 -0.0118 -0.0769 -0.0323
  104loPI   C1B 1661  15.173  13.227  10.177  0.0847 -0.0165 -0.0939
  104loPI   C2B 1662  14.899  13.210   9.799 -0.2279 -0.0516  0.0176
  104loPI   C3B 1663  14.793  13.183   9.362  0.0202  0.0356  0.1175
  104loPI   C4B 1664  14.581  13.453   8.952 -0.2565 -0.0317 -0.2289
  105loPI    C1 1665  16.789   5.442  10.997 -0.0252 -0.0913  0.0232
  105loPI    C2 1666  16.488   5.624  11.188 -0.0390 -0.0964  0.0061
  105loPI    C3 1667  16.696   5.336  11.372 -0.0706 -0.1208  0.0037
  105loPI   PO4 1668  16.835   5.613  10.818  0.2007  0.1881  0.0976
  105loPI   GL1 1669  16.640   5.585  10.451  0.3586  0.1789  0.2392
  105loPI   GL2 1670  16.522   5.669  10.238  0.2492 -0.0029 -0.1433
  105loPI   C1A 1671  16.804   5.198  10.156 -0.2788  0.3209  0.0984
  105loPI   C2A 1672  16.948   5.376   9.695  0.0234  0.1262  0.0335
  105loPI   C3A 1673  17.295   5.493   9.365 -0.1839  0.2638 -0.0186
  105loPI   C4A 1674  17.348   5.431   8.890 -0.2144 -0.0571 -0.2303
  105loPI   C5A 1675  17.456   5.744   8.593 -0.0920  0.1228  0.0637
  105loPI   C6A 1676  17.794   5.706   8.233 -0.2123  0.3027 -0.0564
  105loPI   C1B 1677  16.635   5.647   9.890  0.0322  0.2488 -0.2657
  105loPI   C2B 1678  16.565   5.778   9.483 -0.2214  0.1542 -0.0427
  105loPI   C3B 1679  16.570   5.712   9.084 -0.1785  0.0406 -0.1552
  105loPI   C4B 1680  16.367   5.305   8.979 -0.2921  0.0944  0.2119
  106loPI    C1 1681  10.709   7.903  10.912  0.1787  0.3641 -0.1819
  106loPI    C2 1682  11.061   7.953  11.096  0.1787  0.0249 -0.0812
  106loPI    C3 1683  10.721   8.002  11.300  0.1677  0.2082 -0.1410
  106loPI   PO4 1684  10.741   8.003  10.733 -0.3105  0.2185  0.3920
  106loPI   GL1 1685  10.715   7.895  10.308  0.1031 -0.1049  0.2111
  106loPI   GL2 1686  10.470   8.155  10.292 -0.1107  0.1420 -0.3523
  106loPI   C1A 1687  10.682   7.746   9.957  0.0934 -0.0646  0.0399
  106loPI   C2A 1688  10.609   7.834   9.495 -0.2350  0.2310 -0.0252
  106loPI   C3A 1689  10.700   7.921   9.119  0.0741 -0.4097  0.0437
  106loPI   C4A 1690  10.719   7.978   8.742  0.1061 -0.0218 -0.2222
  106loPI   C5A 1691  10.787   7.956   8.337 -0.2945 -0.0792 -0.2402
  106loPI   C6A 1692  11.182   7.930   8.164  0.0280 -0.1095 -0.0355
  106loPI   C1B 1693  10.175   8.230   9.893 -0.0167 -0.2607 -0.3255
  106loPI   C2B 1694  10.305   8.248   9.459  0.2094 -0.0669  0.2697
  106loPI   C3B 1695  10.306   8.269   8.965 -0.0316 -0.0259 -0.0302
  106loPI   C4B 1696  10.431   8.354   8.600  0.2715 -0.3431  0.3398
  107loPI    C1 1697  12.261  10.477  10.966 -0.2083 -0.0158 -0.1012
  107loPI    C2 1698  12.239  10.862  10.858 -0.1080 -0.0068 -0.0900
  107loPI    C3 1699  12.162  10.755  11.236 -0.1182  0.0046 -0.0889
  107loPI   PO4 1700  12.115  10.399  10.744  0.0404 -0.1224 -0.1584
  107loPI   GL1 1701  11.933  10.694  10.437 -0.1676  0.0600 -0.5364
  107loPI   GL2 1702  11.945  10.531  10.210  0.0175 -0.0111 -0.0336
  107loPI   C1A 1703  12.045  11.045  10.092  0.2158 -0.0530 -0.0982
  107loPI   C2A 1704  12.111  11.084   9.665  0.1480  0.2335  0.0025
  107loPI   C3A 1705  11.956  10.995   9.325  0.1120 -0.0746  0.1752
  107loPI   C4A 1706  12.061  10.890   8.868  0.0792  0.2365  0.1463
  107loPI   C5A 1707  12.242  11.129   8.592 -0.1909  0.0081 -0.3366
  107loPI   C6A 1708  12.449  11.414   8.336  0.2282 -0.2307  0.0073
  107loPI   C1B 1709  11.872  10.622   9.736 -0.1188  0.0339 -0.0367
  107loPI   C2B 1710  11.889  10.469   9.304  0.0983  0.0405 -0.4219
  107loPI   C3B 1711  11.869  10.435   8.856 -0.1443 -0.0806  0.3307
  107loPI   C4B 1712  11.977  10.610   8.402 -0.0372 -0.0297  0.0573
  108loPI    C1 1713   4.050   9.949  10.766 -0.2288  0.1952 -0.0117
  108loPI    C2 1714   3.747   9.796  10.977 -0.0960  0.0134  0.0497
  108loPI    C3 1715   4.054   9.970  11.165 -0.0514 -0.0104 -0.0011
  108loPI   PO4 1716   3.938  10.091  10.558  0.2478 -0.3555 -0.1513
  108loPI   GL1 1717   3.786  10.335  10.136 -0.1813 -0.1364  0.1493
  108loPI   GL2 1718   3.583  10.532  10.060  0.0364  0.2529 -0.1541
  108loPI   C1A 1719   3.857  10.147   9.718  0.2030 -0.3742 -0.0546
  108loPI   C2A 1720   3.857  10.011   9.395 -0.1572 -0.0604  0.2285
  108loPI   C3A 1721   3.931   9.844   8.995  0.4528  0.0727 -0.1281
  108loPI   C4A 1722   3.652   9.946   8.712 -0.3934  0.0672  0.0188
  108loPI   C5A 1723   3.332  10.018   8.303  0.2041 -0.1633 -0.0241
  108loPI   C6A 1724   3.195  10.514   8.271  0.1980 -0.0439  0.0942
  108loPI   C1B 1725   3.376  10.365   9.681 -0.0966  0.5171 -0.2045
  108loPI   C2B 1726   3.488  10.303   9.271 -0.3453 -0.0105  0.0723
  108loPI   C3B 1727   3.954  10.464   9.049 -0.1414 -0.0552  0.2736
  108loPI   C4B 1728   4.038  10.475   8.650  0.3155  0.2221 -0.0540
  109loPI    C1 1729   2.029  10.552  10.621  0.0885 -0.1026 -0.3492
  109loPI    C2 1730   1.693  10.499  10.411 -0.1219  0.2594 -0.1144
  109loPI    C3 1731   1.798  10.866  10.533  0.3550  0.1496 -0.1724
  109loPI   PO4 1732   2.196  10.514  10.558 -0.3024  0.0620 -0.0745
  109loPI   GL1 1733   2.411  10.444  10.218  0.0009 -0.3301  0.0951
  109loPI   GL2 1734   2.067  10.509  10.093 -0.1503  0.1697  0.3293
  109loPI   C1A 1735   2.465  10.641   9.809  0.0179 -0.2593 -0.0884
  109loPI   C2A 1736   2.740  10.650   9.454 -0.1476 -0.1107 -0.2571
  109loPI   C3A 1737   2.767  10.687   9.067 -0.0991  0.1619  0.1102
  109loPI   C4A 1738   3.058  10.795   8.709  0.1829  0.1643 -0.0366
  109loPI   C5A 1739   3.411  11.167   8.564 -0.1770 -0.0064 -0.0061
  109loPI   C6A 1740   3.672  11.401   8.410  0.1586 -0.1226  0.2175
  109loPI   C1B 1741   1.910  10.523   9.685  0.1052  0.1760  0.3480
  109loPI   C2B 1742   1.957  10.360   9.226  0.2311 -0.0428 -0.0278
  109loPI   C3B 1743   2.010  10.244   8.772  0.1008 -0.3148 -0.0583
  109loPI   C4B 1744   2.173  10.377   8.340 -0.1290  0.0725 -0.0433
  110loPI    C1 1745   8.491  10.236  11.410 -0.1074  0.1345  0.0522
  110loPI    C2 1746   8.527   9.845  11.486  0.0928  0.1328 -0.0468
  110loPI    C3 1747   8.335  10.082  11.745  0.0723 -0.0104  0.0705
  110loPI   PO4 1748   8.525  10.212  11.115  0.1424  0.2571 -0.0992
  110loPI   GL1 1749   8.653  10.068  10.713  0.0744 -0.1662  0.0147
  110loPI   GL2 1750   8.896  10.149  10.538  0.2001  0.0879  0.1449
  110loPI   C1A 1751   8.499  10.147  10.232 -0.1137 -0.0296 -0.2687
  110loPI   C2A 1752   8.509  10.097   9.794 -0.0894 -0.2307 -0.5058
  110loPI   C3A 1753   8.708  10.127   9.325 -0.2868  0.1671  0.0099
  110loPI   C4A 1754   8.778  10.156   8.939  0.0695  0.1231  0.3680
  110loPI   C5A 1755   8.632  10.130   8.537 -0.0337 -0.2324  0.1863
  110loPI   C6A 1756   8.554  10.324   8.118  0.0071 -0.2413  0.2513
  110loPI   C1B 1757   9.025  10.292  10.131  0.1534  0.0772  0.1283
  110loPI   C2B 1758   9.034  10.336   9.636  0.0156  0.2046  0.1547
  110loPI   C3B 1759   9.204  10.271   9.204  0.0256 -0.0442 -0.0945
  110loPI   C4B 1760   9.244  10.378   8.874  0.0403  0.3040 -0.1505
  111loPI    C1 1761  15.062   0.104  10.915  0.2794  0.1135 -0.0194
  111loPI    C2 1762  15.178   0.141  11.296 -0.0142 -0.1030  0.0946
  111loPI    C3 1763  14.949  -0.168  11.185  0.2084 -0.1353 -0.2943
  111loPI   PO4 1764  15.318   0.193  10.831 -0.1433 -0.2240  0.2354
  111loPI   GL1 1765  15.243   0.335  10.485 -0.0758 -0.0879  0.1449
  111loPI   GL2 1766  15.439   0.227  10.328  0.1816 -0.0140  0.1649
  111loPI   C1A 1767  14.863   0.431  10.102  0.2784  0.1332  0.1317
  111loPI   C2A 1768  14.945   0.536   9.713 -0.0189 -0.2634  0.0926
  111loPI   C3A 1769  14.913   0.703   9.363 -0.0348 -0.1118  0.0796
  111loPI   C4A 1770  14.980   0.908   9.004 -0.3605 -0.0243 -0.1491
  111loPI   C5A 1771  14.896   0.825   8.632 -0.2585  0.1150 -0.0660
  111loPI   C6A 1772  14.961   0.411   8.378  0.1464  0.0600  0.0426
  111loPI   C1B 1773  15.309   0.240   9.962  0.2691 -0.3006  0.2110
  111loPI   C2B 1774  15.322   0.178   9.535 -0.0736 -0.1494  0.1783
  111loPI   C3B 1775  15.137   0.241   9.163 -0.1128  0.1103 -0.1229
  111loPI   C4B 1776  15.229   0.489   8.802  0.1412  0.2055 -0.0532
  112loPI    C1 1777   5.240  15.762  10.875  0.0295  0.0129  0.2201
  112loPI    C2 1778   4.841  15.786  10.880  0.0359  0.2148 -0.0337
  112loPI    C3 1779   5.055  15.963  11.167 -0.0510  0.2580  0.0046
  112loPI   PO4 1780   5.303  15.738  10.570 -0.0493  0.1021 -0.0520
  112loPI   GL1 1781   5.153  16.027  10.200  0.1792 -0.1551  0.2178
  112loPI   GL2 1782   5.178  16.322  10.137  0.2514 -0.2521 -0.0655
  112loPI   C1A 1783   5.412  16.003   9.779  0.2829 -0.2497  0.0213
  112loPI   C2A 1784   5.358  15.994   9.437 -0.3034 -0.2259  0.0216
  112loPI   C3A 1785   5.233  15.923   9.198 -0.2651  0.0260  0.2616
  112loPI   C4A 1786   5.068  15.786   8.818  0.0832 -0.4174  0.0989
  112loPI   C5A 1787   5.062  15.798   8.301  0.1917  0.0477 -0.1483
  112loPI   C6A 1788   5.288  15.642   7.899  0.1100  0.0641 -0.0687
  112loPI   C1B 1789   5.222  16.535   9.722 -0.0374 -0.1303  0.2225
  112loPI   C2B 1790   5.330  16.534   9.359 -0.0872  0.1723  0.2322
  112loPI   C3B 1791   5.304  16.515   8.934 -0.0107 -0.2047  0.2912
  112loPI   C4B 1792   5.338  16.720   8.482 -0.1300  0.0404  0.0110
  113loPI    C1 1793   5.119  17.104  10.463 -0.0700  0.1113 -0.1119
  113loPI    C2 1794   5.182  17.488  10.556 -0.0154  0.0726  0.0146
  113loPI    C3 1795   5.223  17.206  10.836 -0.2234 -0.0090 -0.0352
  113loPI   PO4 1796   4.842  17.141  10.349 -0.0228  0.0697 -0.0407
  113loPI   GL1 1797   4.684  16.800  10.018 -0.0575 -0.3225 -0.1299
  113loPI   GL2 1798   4.763  16.495  10.019 -0.0395  0.1268 -0.2423
  113loPI   C1A 1799   4.499  17.063   9.748 -0.2949  0.0224 -0.0521
  113loPI   C2A 1800   4.478  17.075   9.274 -0.1261 -0.0534  0.1000
  113loPI   C3A 1801   4.344  17.047   8.877 -0.3946 -0.2998  0.2288
  113loPI   C4A 1802   4.407  17.065   8.385  0.0891 -0.1559  0.0044
  113loPI   C5A 1803   4.721  17.027   8.129 -0.1221 -0.3063  0.2418
  113loPI   C6A 1804   4.987  17.398   7.973 -0.0513  0.2838  0.0210
  113loPI   C1B 1805   4.862  16.190   9.738 -0.1228 -0.1957  0.1879
  113loPI   C2B 1806   4.904  16.213   9.374  0.0346  0.3881 -0.2495
  113loPI   C3B 1807   4.847  16.197   8.927  0.1413  0.1206 -0.0664
  113loPI   C4B 1808   4.812  16.157   8.473  0.1099 -0.3160 -0.1430
  114loPI    C1 1809  13.450   8.402  11.222 -0.0648  0.0155 -0.1327
  114loPI    C2 1810  13.254   8.296  11.553 -0.2691 -0.0408 -0.2699
  114loPI    C3 1811  13.541   8.574  11.572 -0.0563 -0.2724  0.0091
  114loPI   PO4 1812  13.291   8.276  11.005 -0.1222 -0.1673 -0.2248
  114loPI   GL1 1813  13.336   8.318  10.572 -0.0675 -0.1351  0.0013
  114loPI   GL2 1814  13.494   7.959  10.489 -0.0476 -0.0783  0.1635
  114loPI   C1A 1815  13.286   8.407  10.143  0.1228  0.0609 -0.0726
  114loPI   C2A 1816  13.257   8.494   9.650 -0.2439 -0.0063 -0.2108
  114loPI   C3A 1817  13.198   8.497   9.263  0.2848 -0.0075  0.1213
  114loPI   C4A 1818  13.226   8.546   8.782 -0.0555  0.3557  0.0298
  114loPI   C5A 1819  13.253   8.495   8.371  0.0843 -0.1502 -0.0142
  114loPI   C6A 1820  13.400   8.610   7.962  0.0507 -0.0448 -0.0307
  114loPI   C1B 1821  13.611   8.053   9.975  0.2007 -0.0950 -0.2183
  114loPI   C2B 1822  13.633   8.089   9.535 -0.2086 -0.0954  0.1598
  114loPI   C3B 1823  13.542   8.210   9.100 -0.2935 -0.1025  0.1522
  114loPI   C4B 1824  13.477   8.115   8.665 -0.2211  0.0452  0.1520
  115loPI    C1 1825  10.739  10.507  11.273  0.0781 -0.1851 -0.0918
  115loPI    C2 1826  10.973  10.328  11.544  0.1097 -0.1603 -0.1027
  115loPI    C3 1827  10.903  10.721  11.569  0.1076 -0.1592 -0.1269
  115loPI   PO4 1828  10.842  10.530  11.037  0.0045  0.3385  0.2693
  115loPI   GL1 1829  10.587  10.254  10.629 -0.3772 -0.0171  0.0077
  115loPI   GL2 1830  10.554  10.588  10.580  0.1145  0.3301 -0.2788
  115loPI   C1A 1831  10.914  10.278  10.327  0.3425 -0.1241  0.2080
  115loPI   C2A 1832  10.902  10.248   9.959 -0.0989 -0.5886  0.1541
  115loPI   C3A 1833  10.895  10.205   9.524 -0.0555  0.0133  0.0067
  115loPI   C4A 1834  10.956  10.223   9.121 -0.1226 -0.1957 -0.1169
  115loPI   C5A 1835  10.942  10.225   8.724  0.1774 -0.1434 -0.2428
  115loPI   C6A 1836  10.639  10.072   8.447  0.1595 -0.2252 -0.0292
  115loPI   C1B 1837  10.545  10.571  10.205 -0.3758  0.0309 -0.0847
  115loPI   C2B 1838  10.592  10.614   9.679 -0.3551 -0.3736  0.1472
  115loPI   C3B 1839  10.650  10.547   9.278  0.0632 -0.0385  0.1688
  115loPI   C4B 1840  10.620  10.574   8.842 -0.1735 -0.0422  0.0247
  116loPI    C1 1841  14.097   8.916  11.009  0.0443  0.0810 -0.0968
  116loPI    C2 1842  13.798   8.956  11.271 -0.0213  0.3724 -0.2126
  116loPI    C3 1843  14.155   9.118  11.350  0.1217 -0.0079 -0.0568
  116loPI   PO4 1844  13.993   8.953  10.790  0.0948 -0.0721  0.1202
  116loPI   GL1 1845  14.053   8.886  10.361  0.1786 -0.0161  0.0256
  116loPI   GL2 1846  14.273   8.652  10.264  0.0144 -0.2531  0.0093
  116loPI   C1A 1847  13.830   9.028  10.086  0.2123  0.2016  0.4886
  116loPI   C2A 1848  13.865   9.090   9.691 -0.2254  0.0101  0.1397
  116loPI   C3A 1849  13.906   9.126   9.298 -0.3963 -0.0263 -0.2293
  116loPI   C4A 1850  13.883   9.192   8.865  0.1728  0.1258  0.1577
  116loPI   C5A 1851  14.009   9.383   8.412  0.2486  0.4463 -0.0904
  116loPI   C6A 1852  14.318   9.429   8.134  0.2560 -0.1634 -0.0208
  116loPI   C1B 1853  14.264   8.722   9.867 -0.3852  0.0338  0.3231
  116loPI   C2B 1854  14.220   8.783   9.503  0.1708 -0.0867  0.0130
  116loPI   C3B 1855  14.176   8.804   9.045 -0.1859  0.1242 -0.1592
  116loPI   C4B 1856  14.217   8.934   8.609 -0.5045  0.0261 -0.1443
  117loPI    C1 1857  16.535   8.788  10.623  0.2041 -0.0210  0.2092
  117loPI    C2 1858  16.248   8.510  10.600  0.0143  0.1784  0.1408
  117loPI    C3 1859  16.615   8.430  10.463 -0.0851  0.0215 -0.0393
  117loPI   PO4 1860  16.446   8.983  10.529  0.0150 -0.3047 -0.0437
  117loPI   GL1 1861  16.246   9.126  10.231 -0.1395  0.0174  0.0921
  117loPI   GL2 1862  16.083   8.809  10.257 -0.1416  0.0807 -0.1515
  117loPI   C1A 1863  16.172   9.242   9.811 -0.1478  0.0152 -0.3245
  117loPI   C2A 1864  16.210   9.294   9.453 -0.0175 -0.0021 -0.1575
  117loPI   C3A 1865  16.196   9.326   9.073 -0.1458  0.0816 -0.0672
  117loPI   C4A 1866  16.216   9.329   8.659 -0.0567  0.1771  0.1393
  117loPI   C5A 1867  16.174   9.617   8.330  0.0829  0.2498  0.3065
  117loPI   C6A 1868  16.012   9.758   7.951 -0.0980 -0.1127 -0.1407
  117loPI   C1B 1869  16.078   8.770   9.844 -0.1432  0.2387 -0.2603
  117loPI   C2B 1870  16.030   8.821   9.390 -0.2851 -0.0801  0.2075
  117loPI   C3B 1871  16.133   8.863   8.930  0.0561 -0.1226 -0.1900
  117loPI   C4B 1872  16.026   8.926   8.389 -0.0103 -0.1062  0.1673
  118loPI    C1 1873   1.456   7.069  11.164 -0.0223  0.1238 -0.0378
  118loPI    C2 1874   1.417   6.692  11.291  0.0611  0.1517  0.0719
  118loPI    C3 1875   1.093   6.921  11.242  0.0117  0.0714  0.0209
  118loPI   PO4 1876   1.632   7.021  10.926  0.0647 -0.1519  0.0938
  118loPI   GL1 1877   1.539   6.890  10.438  0.2210  0.0391 -0.1238
  118loPI   GL2 1878   1.607   6.699  10.124 -0.0758 -0.1859  0.2173
  118loPI   C1A 1879   1.470   7.217  10.100 -0.0777 -0.0956 -0.0902
  118loPI   C2A 1880   1.429   7.222   9.719  0.0223 -0.2856  0.0561
  118loPI   C3A 1881   1.315   7.197   9.301  0.2849  0.2982 -0.3414
  118loPI   C4A 1882   1.391   7.132   8.960  0.1410 -0.2606  0.0132
  118loPI   C5A 1883   1.410   6.970   8.516 -0.1556 -0.4313  0.0477
  118loPI   C6A 1884   1.585   7.029   8.076 -0.1386  0.2600 -0.0670
  118loPI   C1B 1885   1.615   6.715   9.676  0.2820  0.0617 -0.2506
  118loPI   C2B 1886   1.476   6.698   9.262  0.0858 -0.1705 -0.0353
  118loPI   C3B 1887   1.606   6.594   8.913 -0.1895  0.1393  0.3186
  118loPI   C4B 1888   1.637   6.352   8.513  0.0108 -0.1104 -0.0658
  119loPI    C1 1889   9.391  15.534  10.937 -0.0861 -0.1756  0.1299
  119loPI    C2 1890   9.298  15.179  10.777 -0.0824 -0.1022 -0.0374
  119loPI    C3 1891   9.565  15.201  11.075  0.0648 -0.2198 -0.1588
  119loPI   PO4 1892   9.517  15.690  10.673  0.0802 -0.3178  0.2163
  119loPI   GL1 1893   9.767  15.636  10.352  0.2762  0.2757 -0.2376
  119loPI   GL2 1894   9.802  15.959  10.318  0.0858  0.3048 -0.1885
  119loPI   C1A 1895   9.757  15.682   9.891 -0.0187  0.0247 -0.4465
  119loPI   C2A 1896   9.782  15.731   9.444 -0.0706 -0.0005  0.1842
  119loPI   C3A 1897   9.918  15.743   9.055  0.1025 -0.0148  0.3420
  119loPI   C4A 1898   9.866  15.702   8.637  0.1973  0.1191 -0.3770
  119loPI   C5A 1899   9.530  15.903   8.378  0.2224 -0.1452 -0.4842
  119loPI   C6A 1900   9.105  15.941   8.278  0.2170 -0.3277  0.0597
  119loPI   C1B 1901   9.836  16.277   9.977  0.0502 -0.1237  0.2558
  119loPI   C2B 1902   9.874  16.362   9.483  0.1037  0.0212 -0.2664
  119loPI   C3B 1903   9.827  16.279   9.097  0.1928 -0.1935  0.1457
  119loPI   C4B 1904   9.850  16.236   8.710 -0.3891  0.0752  0.2740
  120loPI    C1 1905  17.728   6.728  11.227  0.0990  0.0622 -0.1054
  120loPI    C2 1906  18.086   6.907  11.210  0.1743 -0.0665  0.0876
  120loPI    C3 1907  17.868   6.927  11.545 -0.0384  0.0826 -0.0570
  120loPI   PO4 1908  17.561   6.799  10.913 -0.0626  0.1072  0.3118
  120loPI   GL1 1909  17.470   6.796  10.531  0.1718 -0.0024 -0.1704
  120loPI   GL2 1910  17.610   7.059  10.406  0.1633  0.1203 -0.1947
  120loPI   C1A 1911  17.337   6.709  10.166 -0.3477 -0.0896  0.0504
  120loPI   C2A 1912  17.388   6.711   9.645  0.2164 -0.2148  0.1989
  120loPI   C3A 1913  17.357   6.766   9.214 -0.3585 -0.3794  0.1163
  120loPI   C4A 1914  17.319   6.724   8.758  0.1121 -0.1014  0.1047
  120loPI   C5A 1915  17.138   6.821   8.311  0.0558  0.0122 -0.1887
  120loPI   C6A 1916  17.270   6.517   7.935  0.1657  0.2267 -0.1731
  120loPI   C1B 1917  17.582   7.182   9.918  0.1024  0.1151  0.1663
  120loPI   C2B 1918  17.486   7.193   9.466 -0.0556  0.1458  0.0426
  120loPI   C3B 1919  17.484   7.218   9.000 -0.3645 -0.1159 -0.0239
  120loPI   C4B 1920  17.496   7.131   8.517 -0.2038  0.2292 -0.2088
  121loPI    C1 1921   0.715   8.506  11.001  0.0257  0.0804  0.0182
  121loPI    C2 1922   0.711   8.471  11.399  0.2976  0.0266  0.0187
  121loPI    C3 1923   0.884   8.188  11.176 -0.1886 -0.1376 -0.1638
  121loPI   PO4 1924   0.444   8.581  10.958 -0.0395 -0.0716 -0.3050
  121loPI   GL1 1925   0.341   8.613  10.554 -0.2953 -0.0131  0.0288
  121loPI   GL2 1926   0.705   8.769  10.534 -0.0038 -0.1591  0.2441
  121loPI   C1A 1927   0.556   8.629  10.094  0.1614  0.0323 -0.0365
  121loPI   C2A 1928   0.445   8.599   9.643 -0.4953  0.0122 -0.6056
  121loPI   C3A 1929   0.595   8.514   9.193  0.0310  0.0084 -0.0682
  121loPI   C4A 1930   0.694   8.451   8.804  0.0404 -0.1202  0.2762
  121loPI   C5A 1931   0.666   8.482   8.372 -0.2181 -0.0239  0.0628
  121loPI   C6A 1932   0.455   8.651   8.042  0.1759 -0.0868 -0.1222
  121loPI   C1B 1933   0.749   8.292  10.457 -0.0267  0.1285 -0.0077
  121loPI   C2B 1934   0.746   7.855  10.268 -0.2899 -0.1637 -0.1019
  121loPI   C3B 1935   0.731   7.823   9.838 -0.0354  0.1035  0.2984
  121loPI   C4B 1936   0.724   7.751   9.433 -0.0708 -0.2657 -0.1383
  122loPI    C1 1937   2.159  12.764  11.174 -0.1298 -0.0143  0.0025
  122loPI    C2 1938   2.237  13.156  11.171  0.1361 -0.0639  0.1563
  122loPI    C3 1939   2.414  12.919  11.440 -0.0055 -0.2938  0.0494
  122loPI   PO4 1940   2.188  12.725  10.946 -0.0936 -0.1695  0.5067
  122loPI   GL1 1941   2.297  12.628  10.456 -0.3152  0.1194  0.1602
  122loPI   GL2 1942   2.114  12.381  10.484 -0.0879 -0.1220  0.0543
  122loPI   C1A 1943   1.993  12.803  10.249  0.3438  0.2187  0.0445
  122loPI   C2A 1944   1.833  12.988   9.851 -0.0709 -0.0197  0.3350
  122loPI   C3A 1945   1.941  12.961   9.461  0.0564 -0.4921 -0.0483
  122loPI   C4A 1946   1.841  13.054   8.979 -0.1692  0.1057 -0.3248
  122loPI   C5A 1947   1.868  13.045   8.567  0.2068 -0.0971  0.2237
  122loPI   C6A 1948   2.060  12.936   8.176  0.1448 -0.3115  0.0587
  122loPI   C1B 1949   1.947  12.296  10.119 -0.1498 -0.0228  0.2622
  122loPI   C2B 1950   1.934  12.278   9.725  0.3708  0.1615  0.0510
  122loPI   C3B 1951   1.985  12.212   9.337  0.2195 -0.1262  0.0439
  122loPI   C4B 1952   2.095  12.220   8.956 -0.1382 -0.1969 -0.1164
  123loPI    C1 1953  14.172   2.226  10.940 -0.2354 -0.0016 -0.0585
  123loPI    C2 1954  14.359   2.543  11.097  0.2051 -0.2493 -0.0680
  123loPI    C3 1955  14.136   2.307  11.330  0.1907 -0.1525  0.0170
  123loPI   PO4 1956  14.421   2.083  10.840  0.2928 -0.0398  0.1273
  123loPI   GL1 1957  14.463   1.973  10.475 -0.1377  0.3252  0.0222
  123loPI   GL2 1958  14.535   2.344  10.368  0.1417 -0.0310 -0.0424
  123loPI   C1A 1959  14.169   2.072  10.143  0.1762  0.0629  0.0549
  123loPI   C2A 1960  14.186   2.041   9.698  0.1177 -0.3406 -0.2192
  123loPI   C3A 1961  14.157   2.032   9.286  0.2146 -0.2143  0.1055
  123loPI   C4A 1962  14.078   2.195   8.866  0.0982  0.0952  0.1364
  123loPI   C5A 1963  14.061   1.845   8.549 -0.0911 -0.1481  0.0436
  123loPI   C6A 1964  13.941   1.893   8.116  0.2122  0.3140  0.2026
  123loPI   C1B 1965  14.579   2.383   9.840  0.0919 -0.0056 -0.1421
  123loPI   C2B 1966  14.638   2.183   9.511  0.1693 -0.1405 -0.1081
  123loPI   C3B 1967  14.879   2.087   9.303  0.0169  0.3597 -0.2372
  123loPI   C4B 1968  15.213   2.191   9.015 -0.1080  0.0801  0.1237
  124loPI    C1 1969  11.925  11.728  11.222 -0.0487 -0.2018  0.0524
  124loPI    C2 1970  12.316  11.786  11.155 -0.0936  0.1350  0.0619
  124loPI    C3 1971  12.196  11.511  11.421  0.1272 -0.1489 -0.1258
  124loPI   PO4 1972  11.820  11.877  10.876 -0.1583 -0.0194 -0.3828
  124loPI   GL1 1973  11.890  12.118  10.496  0.0159 -0.1392 -0.0357
  124loPI   GL2 1974  12.266  12.015  10.328 -0.2260  0.0844 -0.1858
  124loPI   C1A 1975  11.558  12.154  10.252  0.1100  0.0301  0.2662
  124loPI   C2A 1976  11.415  12.232   9.903  0.2755 -0.0049 -0.1187
  124loPI   C3A 1977  11.435  12.197   9.438  0.1112  0.0149  0.1606
  124loPI   C4A 1978  11.380  12.153   8.995 -0.0900 -0.0920 -0.0829
  124loPI   C5A 1979  11.118  12.052   8.614 -0.0386 -0.2458  0.0760
  124loPI   C6A 1980  10.760  11.929   8.416  0.1294  0.0668  0.1861
  124loPI   C1B 1981  12.432  11.947   9.891  0.0522 -0.0555  0.2348
  124loPI   C2B 1982  12.638  11.669   9.692  0.2645 -0.0667  0.2338
  124loPI   C3B 1983  12.696  11.577   9.224  0.0314  0.1882  0.0590
  124loPI   C4B 1984  12.647  11.521   8.744  0.0021 -0.2591 -0.1043
  125loPI    C1 1985  16.750  11.078  11.337 -0.0399  0.1195 -0.1165
  125loPI    C2 1986  17.096  11.158  11.152 -0.2094  0.2277 -0.3934
  125loPI    C3 1987  16.990  11.366  11.477  0.1346 -0.0276 -0.1093
  125loPI   PO4 1988  16.599  11.026  11.145  0.0724 -0.1048  0.1614
  125loPI   GL1 1989  16.510  10.948  10.736 -0.1266  0.0834 -0.1014
  125loPI   GL2 1990  16.572  10.753  10.590 -0.0923  0.2057  0.0210
  125loPI   C1A 1991  16.229  10.987  10.300 -0.0858 -0.1686 -0.1208
  125loPI   C2A 1992  16.196  11.137   9.907  0.1229  0.0380 -0.1335
  125loPI   C3A 1993  16.173  11.176   9.497 -0.1676 -0.0917 -0.0754
  125loPI   C4A 1994  16.260  11.195   9.125  0.1629 -0.1097 -0.2546
  125loPI   C5A 1995  16.260  11.222   8.679 -0.2912  0.3735 -0.3144
  125loPI   C6A 1996  16.498  11.061   8.354  0.0531  0.0378  0.1181
  125loPI   C1B 1997  16.576  10.648  10.210  0.0650 -0.2332 -0.0303
  125loPI   C2B 1998  16.595  10.773   9.681 -0.0654  0.3401 -0.1323
  125loPI   C3B 1999  16.611  10.814   9.291  0.1669  0.1073 -0.0385
  125loPI   C4B 2000  16.577  10.747   8.770  0.2564 -0.1178  0.2174
  126loPI    C1 2001  11.474   7.632  11.254 -0.0058 -0.1451 -0.2047
  126loPI    C2 2002  11.190   7.352  11.229 -0.1076 -0.0386 -0.2485
  126loPI    C3 2003  11.147   7.658  11.484  0.0821 -0.1522 -0.0775
  126loPI   PO4 2004  11.508   7.683  10.932  0.1242 -0.2734  0.1119
  126loPI   GL1 2005  11.655   7.590  10.598  0.3656  0.0222 -0.1389
  126loPI   GL2 2006  11.362   7.658  10.371  0.0099  0.0568  0.0355
  126loPI   C1A 2007  11.741   7.328  10.333 -0.0087 -0.0192 -0.0732
  126loPI   C2A 2008  11.915   7.151   9.985  0.1403  0.3155 -0.0995
  126loPI   C3A 2009  11.903   7.334   9.508 -0.0670  0.0778 -0.0443
  126loPI   C4A 2010  11.889   7.284   9.125  0.1279 -0.0798  0.0377
  126loPI   C5A 2011  11.924   7.319   8.748 -0.4040  0.0460  0.0117
  126loPI   C6A 2012  12.393   7.384   8.454  0.1420 -0.0663  0.0315
  126loPI   C1B 2013  11.524   7.593   9.981 -0.1264 -0.0489 -0.1885
  126loPI   C2B 2014  11.513   7.670   9.646 -0.1067  0.1001  0.0609
  126loPI   C3B 2015  11.522   7.715   9.254  0.0394 -0.0390 -0.1515
  126loPI   C4B 2016  11.539   7.621   8.801  0.3162 -0.1484  0.0152
  127loPI    C1 2017  16.154   0.297  10.890  0.0147 -0.2143  0.0966
  127loPI    C2 2018  16.373   0.628  10.933 -0.0262 -0.1769  0.0183
  127loPI    C3 2019  16.033   0.586  11.138 -0.1009 -0.1013 -0.0891
  127loPI   PO4 2020  16.222   0.151  10.646  0.0762  0.1943 -0.1667
  127loPI   GL1 2021  15.919   0.203  10.295 -0.1090  0.2134 -0.1625
  127loPI   GL2 2022  15.816   0.518  10.165 -0.4494  0.1514  0.0857
  127loPI   C1A 2023  16.162  -0.003   9.950 -0.0046 -0.2225 -0.1894
  127loPI   C2A 2024  16.108  -0.039   9.490 -0.0585 -0.1516 -0.1152
  127loPI   C3A 2025  16.110   0.012   9.088 -0.0896 -0.1036 -0.3204
  127loPI   C4A 2026  16.067  -0.013   8.753 -0.0923 -0.2675  0.2918
  127loPI   C5A 2027  16.073   0.156   8.414 -0.0994 -0.0447 -0.0805
  127loPI   C6A 2028  16.096   0.549   8.094  0.1879  0.0339  0.0037
  127loPI   C1B 2029  15.766   0.363   9.780 -0.2958  0.1602 -0.1810
  127loPI   C2B 2030  15.776   0.401   9.298 -0.0326 -0.0560 -0.1638
  127loPI   C3B 2031  15.818   0.485   8.897 -0.1185 -0.2846  0.0768
  127loPI   C4B 2032  15.773   0.665   8.451  0.0354 -0.0971  0.0326
  128loPI    C1 2033  15.026   3.444  10.729  0.0023  0.1553  0.0047
  128loPI    C2 2034  15.098   3.388  11.118 -0.1379 -0.1781 -0.0145
  128loPI    C3 2035  15.316   3.194  10.844  0.2795  0.4117 -0.1202
  128loPI   PO4 2036  14.948   3.696  10.675 -0.0605  0.2688 -0.0690
  128loPI   GL1 2037  15.018   3.954  10.244  0.3234  0.0782  0.2771
  128loPI   GL2 2038  15.033   4.219  10.089 -0.1105 -0.0138  0.3440
  128loPI   C1A 2039  15.270   3.857   9.893  0.1056  0.1941 -0.1437
  128loPI   C2A 2040  15.277   3.870   9.472 -0.0336 -0.0206  0.1528
  128loPI   C3A 2041  15.192   3.940   9.076  0.0847  0.0600  0.2679
  128loPI   C4A 2042  14.973   3.919   8.611  0.2988 -0.3273 -0.4209
  128loPI   C5A 2043  14.729   3.851   8.223  0.0592  0.1732 -0.1722
  128loPI   C6A 2044  14.724   4.165   7.904  0.0264  0.0958 -0.0551
  128loPI   C1B 2045  14.869   4.214   9.677 -0.0576 -0.0533  0.0622
  128loPI   C2B 2046  14.852   4.375   9.239 -0.0207  0.1117  0.1127
  128loPI   C3B 2047  14.751   4.298   8.846  0.0192  0.0774 -0.1587
  128loPI   C4B 2048  14.881   4.343   8.465  0.0719  0.0082 -0.0335
  129loPI    C1 2049   8.705  12.183  10.811  0.0489 -0.2296 -0.0750
  129loPI    C2 2050   8.538  12.238  11.170 -0.1645  0.1765 -0.2304
  129loPI    C3 2051   8.921  12.126  11.143 -0.2268 -0.1418  0.1225
  129loPI   PO4 2052   8.650  12.445  10.579 -0.4097  0.1569 -0.0082
  129loPI   GL1 2053   8.796  12.580  10.184  0.1331  0.3444  0.1051
  129loPI   GL2 2054   8.736  12.209   9.939 -0.0233 -0.3090 -0.2899
  129loPI   C1A 2055   8.723  12.907   9.876  0.0933  0.0411 -0.1438
  129loPI   C2A 2056   8.730  12.899   9.481 -0.0254 -0.0670  0.2999
  129loPI   C3A 2057   8.685  12.855   9.017 -0.2204  0.3661 -0.3960
  129loPI   C4A 2058   8.476  12.730   8.709  0.2451 -0.2469  0.1828
  129loPI   C5A 2059   8.320  12.540   8.287 -0.0642 -0.0025  0.1528
  129loPI   C6A 2060   8.114  12.679   7.876  0.1179  0.1145 -0.1833
  129loPI   C1B 2061   8.627  12.001   9.489 -0.0925 -0.3394 -0.0049
  129loPI   C2B 2062   8.665  11.948   9.081 -0.1428 -0.1601  0.0909
  129loPI   C3B 2063   8.923  11.986   8.742  0.0586  0.1230 -0.1244
  129loPI   C4B 2064   9.054  11.736   8.340  0.0668 -0.1299 -0.0020
  130loPI    C1 2065   5.493   6.389  10.644 -0.0549 -0.2713  0.0754
  130loPI    C2 2066   5.121   6.481  10.759  0.0438  0.3205 -0.0451
  130loPI    C3 2067   5.435   6.620  10.965  0.2043 -0.0631 -0.0229
  130loPI   PO4 2068   5.547   6.498  10.386 -0.0200  0.0311  0.2162
  130loPI   GL1 2069   5.357   6.736  10.025 -0.2406  0.2598 -0.0690
  130loPI   GL2 2070   5.531   6.893  10.084  0.2133  0.1783 -0.2153
  130loPI   C1A 2071   5.160   6.677   9.664  0.4360  0.1154  0.0263
  130loPI   C2A 2072   4.991   6.633   9.240  0.4065  0.1103  0.1008
  130loPI   C3A 2073   5.019   6.722   8.857 -0.1036  0.0528  0.1888
  130loPI   C4A 2074   5.104   6.383   8.592  0.3623  0.0231 -0.2770
  130loPI   C5A 2075   5.186   6.361   8.240  0.1291 -0.2382 -0.0803
  130loPI   C6A 2076   5.181   6.272   7.853  0.2192 -0.0436  0.1110
  130loPI   C1B 2077   5.582   7.076   9.728  0.0439 -0.0909  0.2831
  130loPI   C2B 2078   5.827   7.065   9.325  0.2958  0.0722 -0.4544
  130loPI   C3B 2079   5.820   7.092   8.861 -0.1660 -0.0643 -0.0941
  130loPI   C4B 2080   5.919   6.967   8.461 -0.2193  0.0110 -0.0113
  131loPI    C1 2081   4.532   5.773  10.919 -0.1697 -0.0315  0.0731
  131loPI    C2 2082   4.841   5.930  11.120 -0.0602 -0.0837 -0.0525
  131loPI    C3 2083   4.470   5.957  11.269  0.0255 -0.1638  0.1792
  131loPI   PO4 2084   4.531   5.761  10.644  0.1432 -0.0601  0.1127
  131loPI   GL1 2085   4.401   5.828  10.264 -0.0019  0.1071 -0.0872
  131loPI   GL2 2086   4.254   5.503  10.189  0.2790  0.1198 -0.0730
  131loPI   C1A 2087   4.406   5.865   9.790  0.2078 -0.1452 -0.0820
  131loPI   C2A 2088   4.402   5.855   9.417 -0.0239 -0.2304  0.0481
  131loPI   C3A 2089   4.322   5.913   9.011  0.4538 -0.1497  0.0910
  131loPI   C4A 2090   4.208   5.859   8.548 -0.0136  0.1353 -0.4082
  131loPI   C5A 2091   4.208   5.918   8.083  0.3023  0.1884  0.1081
  131loPI   C6A 2092   4.024   6.260   7.881 -0.1350 -0.2134 -0.0895
  131loPI   C1B 2093   4.017   5.420   9.826  0.0912 -0.0974 -0.1033
  131loPI   C2B 2094   4.045   5.481   9.423  0.1860 -0.1788 -0.2089
  131loPI   C3B 2095   4.003   5.488   9.001 -0.3023 -0.2215 -0.2283
  131loPI   C4B 2096   3.953   5.383   8.599  0.0081  0.0366  0.0162
  132loPI    C1 2097   0.247  14.062  11.123  0.0090 -0.1399  0.0948
  132loPI    C2 2098   0.049  14.035  11.469  0.0991  0.2236  0.1792
  132loPI    C3 2099   0.448  14.006  11.464  0.0755 -0.1290  0.0577
  132loPI   PO4 2100   0.187  13.897  10.930  0.2238 -0.0003  0.0865
  132loPI   GL1 2101   0.199  13.892  10.498 -0.0729 -0.0002 -0.0510
  132loPI   GL2 2102   0.505  14.034  10.572  0.0808 -0.0123 -0.0231
  132loPI   C1A 2103   0.207  14.070  10.039 -0.2069 -0.3124  0.4322
  132loPI   C2A 2104   0.252  14.095   9.512 -0.0247 -0.1162 -0.0125
  132loPI   C3A 2105   0.140  13.993   9.161 -0.0148  0.1814  0.0994
  132loPI   C4A 2106   0.261  13.961   8.674 -0.2575  0.0651 -0.1730
  132loPI   C5A 2107   0.239  14.020   8.215 -0.0624 -0.0075 -0.1194
  132loPI   C6A 2108   0.414  14.206   7.944 -0.2335 -0.0450 -0.2850
  132loPI   C1B 2109   0.728  14.143  10.265 -0.1171  0.0923  0.0781
  132loPI   C2B 2110   0.689  14.234   9.819 -0.2066  0.0846 -0.0476
  132loPI   C3B 2111   0.716  14.131   9.384  0.0274  0.1054  0.2348
  132loPI   C4B 2112   0.720  14.046   8.922 -0.4384 -0.0770  0.0788
  133loPI    C1 2113  14.650  12.430  11.228  0.1531  0.0928 -0.0342
  133loPI    C2 2114  14.688  12.687  10.925  0.1068  0.2813  0.1184
  133loPI    C3 2115  14.862  12.765  11.277  0.2133  0.0330  0.1229
  133loPI   PO4 2116  14.754  12.103  11.101 -0.0371  0.2224  0.0304
  133loPI   GL1 2117  14.740  12.238  10.630  0.2279  0.1591 -0.0925
  133loPI   GL2 2118  14.617  12.474  10.478  0.0748  0.0009 -0.1849
  133loPI   C1A 2119  14.866  12.258  10.108  0.3228 -0.1111  0.2422
  133loPI   C2A 2120  14.995  12.110   9.715 -0.0624  0.0497  0.1366
  133loPI   C3A 2121  15.069  12.165   9.310  0.0484  0.1242  0.0300
  133loPI   C4A 2122  14.969  12.398   8.882  0.1971  0.0278 -0.1507
  133loPI   C5A 2123  14.721  12.571   8.513  0.4719 -0.3658  0.3417
  133loPI   C6A 2124  14.421  12.808   8.217 -0.2184 -0.1608 -0.3661
  133loPI   C1B 2125  14.415  12.517  10.102  0.0848  0.3081  0.1453
  133loPI   C2B 2126  14.482  12.388   9.747 -0.0417  0.0291 -0.2652
  133loPI   C3B 2127  14.558  12.006   9.457 -0.0337 -0.1774 -0.0578
  133loPI   C4B 2128  14.644  11.986   9.042 -0.0613 -0.2672 -0.1398
  134loPI    C1 2129  12.600  11.232  10.912 -0.2212 -0.2941 -0.0733
  134loPI    C2 2130  12.893  11.114  11.159 -0.0213 -0.2597 -0.2905
  134loPI    C3 2131  12.514  11.124  11.288  0.0894 -0.1702  0.0368
  134loPI   PO4 2132  12.673  11.141  10.691 -0.0284  0.1597 -0.0992
  134loPI   GL1 2133  12.748  11.136  10.308 -0.0376 -0.0440 -0.0595
  134loPI   GL2 2134  12.900  10.869  10.108  0.0553  0.0631  0.0498
  134loPI   C1A 2135  12.553  11.162   9.930 -0.0824  0.0025  0.0138
  134loPI   C2A 2136  12.483  11.182   9.408  0.0437  0.2436  0.0602
  134loPI   C3A 2137  12.553  11.097   8.999  0.0857  0.0406  0.0669
  134loPI   C4A 2138  12.718  11.004   8.616 -0.2983  0.4892  0.0190
  134loPI   C5A 2139  13.063  10.912   8.362  0.1154 -0.0822  0.0756
  134loPI   C6A 2140  13.265  10.771   8.004 -0.0391 -0.0707  0.0545
  134loPI   C1B 2141  12.790  10.794   9.579 -0.0033  0.1435  0.0534
  134loPI   C2B 2142  12.927  10.706   9.190  0.3260 -0.2129 -0.0616
  134loPI   C3B 2143  13.175  10.817   8.849  0.0082  0.0666  0.2781
  134loPI   C4B 2144  13.646  10.808   8.536 -0.1526  0.2113  0.1130
  135loPI    C1 2145  16.852   3.802  11.012 -0.2039 -0.1918  0.0035
  135loPI    C2 2146  16.669   3.602  11.306 -0.3857 -0.0665 -0.0230
  135loPI    C3 2147  16.652   4.001  11.295  0.0520 -0.0403  0.0804
  135loPI   PO4 2148  16.741   3.675  10.756  0.0044  0.0573 -0.0500
  135loPI   GL1 2149  16.457   3.639  10.540  0.0714  0.2884  0.0477
  135loPI   GL2 2150  16.262   3.418  10.524 -0.0585 -0.1284  0.0082
  135loPI   C1A 2151  16.451   3.555  10.041 -0.1902 -0.0713  0.1047
  135loPI   C2A 2152  16.134   3.602   9.712 -0.2631  0.0767  0.0408
  135loPI   C3A 2153  16.200   3.667   9.374  0.2863  0.1057  0.0273
  135loPI   C4A 2154  16.022   3.686   8.866  0.2534 -0.1214  0.0573
  135loPI   C5A 2155  15.772   3.610   8.516 -0.1551  0.1135  0.1781
  135loPI   C6A 2156  15.662   3.277   8.249 -0.0349 -0.1936 -0.0555
  135loPI   C1B 2157  16.320   3.078  10.289 -0.1881  0.0952 -0.0914
  135loPI   C2B 2158  16.272   3.097   9.834 -0.0812 -0.1318 -0.0713
  135loPI   C3B 2159  16.231   3.086   9.410 -0.4554  0.4750  0.1107
  135loPI   C4B 2160  16.270   3.278   9.075 -0.0504 -0.3577  0.1295
  136loPI    C1 2161   0.547  11.776  11.027 -0.0156 -0.0529 -0.0259
  136loPI    C2 2162   0.599  12.017  11.342  0.1965 -0.0018 -0.0982
  136loPI    C3 2163   0.311  12.096  11.076  0.1069  0.0332  0.0081
  136loPI   PO4 2164   0.732  11.731  10.934 -0.0972  0.1866 -0.1346
  136loPI   GL1 2165   0.929  11.729  10.590 -0.1325  0.0354  0.1069
  136loPI   GL2 2166   0.701  11.532  10.447 -0.1734 -0.2581 -0.0804
  136loPI   C1A 2167   0.878  11.967  10.255 -0.0394 -0.0555  0.3474
  136loPI   C2A 2168   0.918  11.962   9.831  0.1832  0.3622  0.1984
  136loPI   C3A 2169   1.021  11.959   9.480  0.3636 -0.2477  0.0394
  136loPI   C4A 2170   1.042  11.916   9.098  0.0604  0.0199  0.0631
  136loPI   C5A 2171   1.031  11.962   8.667  0.0205  0.3897 -0.1559
  136loPI   C6A 2172   0.810  11.844   8.325 -0.1044 -0.0797  0.1175
  136loPI   C1B 2173   0.727  11.435   9.997  0.0174 -0.1139  0.2640
  136loPI   C2B 2174   0.833  11.418   9.620  0.4600 -0.1355  0.3554
  136loPI   C3B 2175   0.858  11.457   9.245 -0.1405  0.2323 -0.0576
  136loPI   C4B 2176   0.876  11.530   8.852 -0.0542 -0.1659  0.2115
  137loPI    C1 2177  13.339  14.605  11.093 -0.1015 -0.1026 -0.2137
  137loPI    C2 2178  13.596  14.399  11.320 -0.1376  0.0728 -0.0108
  137loPI    C3 2179  13.206  14.310  11.329 -0.1011 -0.1157 -0.2300
  137loPI   PO4 2180  13.498  14.658  10.854  0.2341 -0.0974  0.1921
  137loPI   GL1 2181  13.398  14.605  10.379  0.0292 -0.1715  0.2248
  137loPI   GL2 2182  13.704  14.812  10.338  0.0754  0.0993  0.0381
  137loPI   C1A 2183  13.513  14.276  10.091 -0.1830  0.2370  0.2009
  137loPI   C2A 2184  13.843  14.267   9.743  0.0234  0.0915 -0.2847
  137loPI   C3A 2185  14.131  14.478   9.642 -0.4021  0.1230 -0.2651
  137loPI   C4A 2186  14.281  14.451   9.210 -0.1013  0.0957 -0.1470
  137loPI   C5A 2187  14.439  14.574   8.865  0.1559  0.0032 -0.0978
  137loPI   C6A 2188  14.629  14.812   8.698 -0.0579  0.0420  0.1475
  137loPI   C1B 2189  13.341  15.069  10.136 -0.0699 -0.1487 -0.4021
  137loPI   C2B 2190  13.072  15.306   9.911 -0.0838  0.1599  0.1748
  137loPI   C3B 2191  12.961  15.416   9.549  0.1714 -0.1771 -0.0706
  137loPI   C4B 2192  13.012  15.553   9.049 -0.1485  0.1531  0.0892
  138loPI    C1 2193   9.242  16.535  10.928 -0.1109  0.0175  0.1700
  138loPI    C2 2194   9.329  16.701  11.281 -0.1438  0.2044  0.0920
  138loPI    C3 2195   8.992  16.801  11.091 -0.0977  0.1494 -0.0199
  138loPI   PO4 2196   9.374  16.591  10.733  0.3344 -0.0012 -0.1340
  138loPI   GL1 2197   9.427  16.418  10.245 -0.0900 -0.2230  0.0543
  138loPI   GL2 2198   9.326  16.096  10.433  0.2077  0.2342 -0.1918
  138loPI   C1A 2199   9.385  16.479   9.775  0.1687 -0.2539  0.1770
  138loPI   C2A 2200   9.353  16.496   9.374  0.1484 -0.1354 -0.0783
  138loPI   C3A 2201   9.416  16.557   8.964  0.0324 -0.1272 -0.1902
  138loPI   C4A 2202   9.345  16.452   8.508 -0.0045 -0.0409 -0.2330
  138loPI   C5A 2203   9.386  16.318   8.086  0.1839 -0.1360  0.0213
  138loPI   C6A 2204   9.236  16.219   7.657  0.1072 -0.1354  0.3067
  138loPI   C1B 2205   9.323  15.909   9.980  0.2499  0.1082  0.1795
  138loPI   C2B 2206   9.350  15.934   9.628 -0.4341  0.0152  0.0204
  138loPI   C3B 2207   9.425  15.986   9.239  0.0099  0.2244 -0.4957
  138loPI   C4B 2208   9.403  16.043   8.849  0.0427 -0.1680 -0.4284
  139loPI    C1 2209   2.680   0.480  10.717  0.0666  0.2718  0.1933
  139loPI    C2 2210   2.980   0.240  10.826  0.0269  0.0664 -0.1367
  139loPI    C3 2211   2.904   0.571  11.036  0.3235 -0.0092  0.0981
  139loPI   PO4 2212   2.674   0.407  10.445 -0.1576 -0.4338 -0.1101
  139loPI   GL1 2213   2.774   0.444   9.996  0.0415 -0.0488  0.0824
  139loPI   GL2 2214   2.441   0.355   9.939  0.0448  0.3254  0.0086
  139loPI   C1A 2215   2.817   0.522   9.545  0.0788  0.0625 -0.1237
  139loPI   C2A 2216   2.809   0.494   9.161 -0.1049  0.2025 -0.1595
  139loPI   C3A 2217   2.688   0.585   8.787 -0.1346  0.3479  0.0720
  139loPI   C4A 2218   2.635   0.501   8.397 -0.0837  0.3352  0.1520
  139loPI   C5A 2219   2.546   0.506   8.004  0.1721  0.1539 -0.3476
  139loPI   C6A 2220   2.420   0.757   7.700  0.0052 -0.0814 -0.1729
  139loPI   C1B 2221   2.249   0.387   9.592 -0.3896 -0.0396 -0.2687
  139loPI   C2B 2222   1.899   0.351   9.151  0.4189  0.1516  0.1456
  139loPI   C3B 2223   1.762   0.101   8.807 -0.2780  0.0528  0.2164
  139loPI   C4B 2224   1.808  -0.046   8.397  0.0685  0.1239  0.0598
  140loPI    C1 2225   1.018  12.131  10.984  0.1032 -0.0927  0.1652
  140loPI    C2 2226   1.069  12.262  11.359  0.0177 -0.2152  0.2203
  140loPI    C3 2227   1.084  11.870  11.280 -0.3372 -0.2201  0.1583
  140loPI   PO4 2228   0.744  12.268  10.893  0.1766  0.1337  0.1192
  140loPI   GL1 2229   0.698  12.501  10.634 -0.1376 -0.0595  0.0736
  140loPI   GL2 2230   0.966  12.437  10.511 -0.1832  0.2133 -0.1985
  140loPI   C1A 2231   0.578  12.318  10.233 -0.1319  0.0523  0.0696
  140loPI   C2A 2232   0.584  12.297   9.876  0.1642 -0.3032  0.3857
  140loPI   C3A 2233   0.628  12.232   9.331 -0.2873  0.2110 -0.0679
  140loPI   C4A 2234   0.690  12.254   8.914  0.0243  0.0083 -0.1023
  140loPI   C5A 2235   0.639  12.322   8.454 -0.2451 -0.0887 -0.2525
  140loPI   C6A 2236   0.434  12.119   8.137  0.1291  0.1809 -0.0370
  140loPI   C1B 2237   1.004  12.408  10.052 -0.1141 -0.1734 -0.0111
  140loPI   C2B 2238   1.086  12.398   9.649  0.1109 -0.0856  0.0968
  140loPI   C3B 2239   1.124  12.415   9.292 -0.0551 -0.0321  0.1445
  140loPI   C4B 2240   1.172  12.373   8.796  0.1905 -0.4012  0.1237
  141loPI    C1 2241  13.518  15.977  10.923  0.0884  0.0075  0.0534
  141loPI    C2 2242  13.213  16.207  11.042 -0.0274 -0.1303  0.0274
  141loPI    C3 2243  13.263  15.844  11.202  0.0808 -0.1373 -0.0213
  141loPI   PO4 2244  13.440  16.002  10.610  0.0897  0.1910 -0.0487
  141loPI   GL1 2245  13.259  16.127  10.255  0.0268  0.0415 -0.1076
  141loPI   GL2 2246  13.198  16.510  10.339  0.1354  0.0781 -0.2010
  141loPI   C1A 2247  13.347  16.019   9.928 -0.1502  0.1355 -0.0600
  141loPI   C2A 2248  13.355  15.682   9.760  0.0721 -0.1423 -0.2359
  141loPI   C3A 2249  13.438  15.557   9.288  0.1990 -0.1282  0.1984
  141loPI   C4A 2250  13.671  15.345   9.020 -0.1022 -0.1019  0.1219
  141loPI   C5A 2251  13.885  15.239   8.744  0.3856  0.0189 -0.2952
  141loPI   C6A 2252  14.320  15.195   8.595  0.3960  0.1896 -0.3630
  141loPI   C1B 2253  13.320  16.542   9.877  0.0506 -0.1684  0.2403
  141loPI   C2B 2254  13.484  16.583   9.424 -0.1065  0.1128  0.0026
  141loPI   C3B 2255  13.480  16.948   9.175 -0.0136  0.0638 -0.2016
  141loPI   C4B 2256  13.672  17.023   8.765 -0.0248  0.0421  0.2283
  142loPI    C1 2257   2.716  10.431  10.715  0.1606 -0.0541 -0.2061
  142loPI    C2 2258   2.910  10.419  11.064  0.2934  0.0934 -0.2741
  142loPI    C3 2259   2.792  10.079  10.890  0.1486  0.0235 -0.0435
  142loPI   PO4 2260   2.857  10.543  10.542 -0.1044  0.1358 -0.2049
  142loPI   GL1 2261   2.846  10.703  10.142 -0.1445  0.0105  0.2492
  142loPI   GL2 2262   3.098  10.408  10.141  0.1337  0.1996  0.0614
  142loPI   C1A 2263   3.134  10.808   9.782  0.1914 -0.1466 -0.1965
  142loPI   C2A 2264   3.269  10.750   9.378 -0.0967  0.0888 -0.1836
  142loPI   C3A 2265   3.413  10.833   9.036  0.0642 -0.4266  0.1312
  142loPI   C4A 2266   3.728  10.842   8.737 -0.0355  0.0470 -0.0178
  142loPI   C5A 2267   3.812  10.897   8.397 -0.3312  0.2021 -0.1258
  142loPI   C6A 2268   3.970  11.097   8.032 -0.0088 -0.1871  0.0172
  142loPI   C1B 2269   2.839  10.279   9.795 -0.3239  0.0011  0.0037
  142loPI   C2B 2270   3.020  10.220   9.355  0.0036  0.0510 -0.0301
  142loPI   C3B 2271   3.030  10.272   8.919  0.0806 -0.2598 -0.1040
  142loPI   C4B 2272   3.450  10.402   8.671 -0.0654 -0.0506  0.2250
  143loPI    C1 2273  12.745  15.935  11.116 -0.0798  0.0875  0.1652
  143loPI    C2 2274  12.649  15.599  11.311 -0.1263  0.0306  0.0454
  143loPI    C3 2275  12.446  15.937  11.382 -0.0679  0.0380  0.1789
  143loPI   PO4 2276  12.830  15.812  10.843  0.1461 -0.0939 -0.3321
  143loPI   GL1 2277  12.879  15.742  10.387 -0.2789 -0.0591  0.2286
  143loPI   GL2 2278  12.522  15.808  10.413  0.2018 -0.0125  0.1682
  143loPI   C1A 2279  12.872  15.766   9.978  0.0593  0.1772 -0.1722
  143loPI   C2A 2280  12.988  15.971   9.532 -0.1601 -0.3035  0.0257
  143loPI   C3A 2281  13.072  16.378   9.377  0.1365 -0.1779  0.1115
  143loPI   C4A 2282  13.100  16.605   8.994  0.2603  0.3039 -0.0213
  143loPI   C5A 2283  13.210  16.927   8.738  0.0913 -0.1799 -0.0196
  143loPI   C6A 2284  13.550  16.935   8.291  0.1261 -0.0220  0.2509
  143loPI   C1B 2285  12.696  16.195  10.207  0.0678 -0.0857 -0.1063
  143loPI   C2B 2286  12.846  16.349   9.824 -0.1052  0.2059 -0.0585
  143loPI   C3B 2287  12.878  16.789   9.712 -0.0651  0.0745  0.1504
  143loPI   C4B 2288  13.330  17.063   9.694  0.0342  0.1013 -0.0042
  144loPI    C1 2289  12.955   8.738  10.972 -0.0341  0.2134  0.0081
  144loPI    C2 2290  13.293   8.850  11.155  0.0666 -0.2595  0.1247
  144loPI    C3 2291  12.995   8.688  11.367 -0.2387  0.1525  0.0225
  144loPI   PO4 2292  13.041   8.644  10.794  0.2232 -0.0900  0.0143
  144loPI   GL1 2293  12.761   8.427  10.535  0.1161  0.1172  0.2119
  144loPI   GL2 2294  12.491   8.163  10.486  0.0025  0.1115  0.2615
  144loPI   C1A 2295  12.737   8.363  10.055  0.3237  0.2754  0.1164
  144loPI   C2A 2296  12.740   8.322   9.594 -0.0334 -0.0437 -0.1615
  144loPI   C3A 2297  12.635   8.363   9.245  0.0107  0.2227 -0.1955
  144loPI   C4A 2298  12.704   8.430   8.803  0.0758  0.0319  0.0549
  144loPI   C5A 2299  12.664   8.500   8.397 -0.1915  0.1916 -0.0981
  144loPI   C6A 2300  12.776   8.697   7.934  0.1870 -0.1336  0.0054
  144loPI   C1B 2301  12.474   7.827  10.156  0.0221 -0.3123 -0.1083
  144loPI   C2B 2302  12.677   7.796   9.793 -0.0185  0.2186  0.0527
  144loPI   C3B 2303  12.547   7.852   9.333  0.0400  0.0468 -0.3056
  144loPI   C4B 2304  12.514   7.914   8.854  0.1943 -0.1154  0.3170
  145loPI    C1 2305   8.447   6.620  10.716 -0.1546  0.1258  0.0650
  145loPI    C2 2306   8.564   6.589  11.097 -0.0825 -0.0843  0.0272
  145loPI    C3 2307   8.557   6.947  10.919 -0.3132  0.0441  0.2860
  145loPI   PO4 2308   8.564   6.374  10.613  0.1889 -0.0317  0.5202
  145loPI   GL1 2309   8.525   6.423  10.158  0.0198  0.0193 -0.3226
  145loPI   GL2 2310   8.865   6.533  10.068  0.0640 -0.0868 -0.0487
  145loPI   C1A 2311   8.443   6.541   9.748  0.2440  0.0915 -0.2537
  145loPI   C2A 2312   8.276   6.594   9.373 -0.1185 -0.0809 -0.1604
  145loPI   C3A 2313   8.305   6.501   8.967  0.0286 -0.2367 -0.1635
  145loPI   C4A 2314   8.281   6.339   8.508  0.1408 -0.0172 -0.0965
  145loPI   C5A 2315   8.289   6.256   8.085 -0.0939  0.0828  0.2446
  145loPI   C6A 2316   8.353   6.436   7.718 -0.2181 -0.2908  0.1684
  145loPI   C1B 2317   8.874   6.589   9.609  0.0297 -0.0348  0.1953
  145loPI   C2B 2318   8.790   6.626   9.141  0.2186 -0.1999  0.0664
  145loPI   C3B 2319   8.717   6.559   8.726 -0.2902  0.0702 -0.0128
  145loPI   C4B 2320   8.779   6.338   8.299 -0.2187 -0.0101  0.1176
  146loPI    C1 2321  10.384   3.285  10.800  0.0772 -0.1154  0.0306
  146loPI    C2 2322  10.578   3.452  11.107 -0.0160 -0.0107  0.0331
  146loPI    C3 2323  10.512   3.058  11.103  0.1087 -0.0325  0.0799
  146loPI   PO4 2324  10.566   3.352  10.582  0.1547 -0.2715 -0.1826
  146loPI   GL1 2325  10.615   3.505  10.215  0.0358 -0.0567  0.1608
  146loPI   GL2 2326  10.578   3.843  10.127 -0.2220  0.0444 -0.0027
  146loPI   C1A 2327  10.717   3.351   9.873 -0.3458  0.2461  0.0843
  146loPI   C2A 2328  10.885   3.191   9.465 -0.0870  0.1700  0.0275
  146loPI   C3A 2329  10.840   3.137   8.967  0.0280  0.1755 -0.1337
  146loPI   C4A 2330  10.955   3.265   8.531 -0.1697  0.0578 -0.1680
  146loPI   C5A 2331  11.225   3.045   8.241  0.0322  0.0986 -0.1505
  146loPI   C6A 2332  11.681   2.766   8.294 -0.0694  0.0734 -0.0876
  146loPI   C1B 2333  10.253   3.737   9.926 -0.2460 -0.3341  0.2881
  146loPI   C2B 2334  10.170   3.761   9.630  0.1010 -0.0687  0.2337
  146loPI   C3B 2335  10.469   3.668   9.316  0.0866  0.1643  0.0652
  146loPI   C4B 2336  10.565   3.596   8.842  0.0710 -0.0527  0.1861
  147loPI    C1 2337   1.935   4.619  10.713  0.0692  0.0505 -0.0135
  147loPI    C2 2338   1.907   4.523  11.100 -0.1237 -0.1488 -0.0755
  147loPI    C3 2339   1.648   4.782  10.938 -0.0081 -0.0221 -0.0591
  147loPI   PO4 2340   2.218   4.716  10.713 -0.2120 -0.0856 -0.0421
  147loPI   GL1 2341   2.286   4.844  10.259 -0.0716 -0.1217  0.1308
  147loPI   GL2 2342   2.021   4.669  10.234  0.1503 -0.1356  0.1375
  147loPI   C1A 2343   2.413   4.918   9.875 -0.3636 -0.3829 -0.0863
  147loPI   C2A 2344   2.344   4.897   9.466 -0.2609 -0.0266 -0.0598
  147loPI   C3A 2345   2.282   4.947   9.123  0.1001  0.0186 -0.2371
  147loPI   C4A 2346   2.181   4.865   8.713  0.1355  0.1272 -0.1826
  147loPI   C5A 2347   1.984   4.936   8.421 -0.0990  0.3859  0.0850
  147loPI   C6A 2348   2.185   5.024   8.108  0.0688  0.0675  0.1421
  147loPI   C1B 2349   1.825   4.886   9.888  0.0947 -0.1111 -0.2292
  147loPI   C2B 2350   1.820   4.953   9.516 -0.0812  0.1159 -0.1489
  147loPI   C3B 2351   1.794   4.927   9.049  0.0920 -0.0440  0.0432
  147loPI   C4B 2352   1.570   4.951   8.685  0.1035 -0.1395  0.2286
  148loPI    C1 2353   4.481   2.124  10.840 -0.0305 -0.0211 -0.0866
  148loPI    C2 2354   4.211   2.253  11.105 -0.1613  0.0307 -0.2436
  148loPI    C3 2355   4.552   2.087  11.232 -0.2110  0.0791 -0.0434
  148loPI   PO4 2356   4.561   2.383  10.711 -0.0883 -0.1467  0.0662
  148loPI   GL1 2357   4.489   2.793  10.381  0.2541 -0.2334 -0.3265
  148loPI   GL2 2358   4.200   2.724  10.348  0.0034 -0.1450  0.3181
  148loPI   C1A 2359   4.613   2.592   9.988  0.0946  0.0126 -0.1112
  148loPI   C2A 2360   4.653   2.551   9.525 -0.1604  0.0015  0.1409
  148loPI   C3A 2361   4.556   2.575   9.071 -0.1837 -0.0562  0.0813
  148loPI   C4A 2362   4.505   2.583   8.681 -0.2441 -0.2617 -0.0722
  148loPI   C5A 2363   4.405   2.404   8.222 -0.1215 -0.0296 -0.0383
  148loPI   C6A 2364   4.281   2.327   7.763  0.0707  0.2245  0.0658
  148loPI   C1B 2365   4.122   2.727   9.896 -0.3487  0.0390  0.2705
  148loPI   C2B 2366   4.098   2.630   9.402  0.0752  0.0494  0.2423
  148loPI   C3B 2367   3.968   2.646   8.936  0.2420 -0.0869 -0.2353
  148loPI   C4B 2368   4.040   2.538   8.523  0.1360  0.2160  0.0199
  149loPI    C1 2369   3.868   5.465  10.519 -0.2029  0.0550 -0.0951
  149loPI    C2 2370   3.817   5.390  10.908  0.1663  0.0274 -0.0477
  149loPI    C3 2371   4.186   5.416  10.757  0.0280  0.2181 -0.3627
  149loPI   PO4 2372   3.605   5.570  10.486  0.0921  0.1731 -0.1382
  149loPI   GL1 2373   3.578   5.485  10.041  0.2215  0.2792 -0.1737
  149loPI   GL2 2374   3.475   5.221  10.108  0.1449  0.0024 -0.2612
  149loPI   C1A 2375   3.542   5.482   9.571 -0.3635 -0.0227 -0.1318
  149loPI   C2A 2376   3.481   5.560   9.200  0.1081  0.0763 -0.1367
  149loPI   C3A 2377   3.427   5.450   8.688 -0.0417 -0.0516  0.2211
  149loPI   C4A 2378   3.600   5.390   8.254 -0.1177  0.0500  0.0818
  149loPI   C5A 2379   3.626   5.318   7.810 -0.2690 -0.2570 -0.1703
  149loPI   C6A 2380   3.631   5.173   7.435 -0.0198  0.1978  0.0698
  149loPI   C1B 2381   3.252   5.009   9.712 -0.0241  0.1634 -0.1030
  149loPI   C2B 2382   3.207   5.082   9.256 -0.1886  0.2825 -0.0337
  149loPI   C3B 2383   3.147   5.075   8.815 -0.1333 -0.2101  0.1182
  149loPI   C4B 2384   3.169   5.130   8.311  0.1836 -0.1452 -0.1626
  150loPI    C1 2385  17.467   7.319  10.866 -0.1169 -0.1988  0.0299
  150loPI    C2 2386  17.673   7.207  11.190 -0.0156 -0.3213 -0.0761
  150loPI    C3 2387  17.854   7.223  10.833 -0.1107 -0.1262 -0.1167
  150loPI   PO4 2388  17.232   7.152  10.807 -0.4300 -0.0627 -0.3122
  150loPI   GL1 2389  16.933   7.100  10.478 -0.1155  0.0277 -0.1001
  150loPI   GL2 2390  16.609   7.291  10.377  0.1322 -0.0400  0.1943
  150loPI   C1A 2391  16.989   7.032  10.008 -0.3995 -0.1873  0.0348
  150loPI   C2A 2392  16.993   7.081   9.598  0.1149  0.1756 -0.0421
  150loPI   C3A 2393  16.989   7.154   9.107 -0.0281  0.2079  0.1080
  150loPI   C4A 2394  16.981   7.240   8.754 -0.0822 -0.2515  0.0693
  150loPI   C5A 2395  17.074   7.360   8.370  0.1391 -0.2340  0.1084
  150loPI   C6A 2396  17.294   7.305   8.061 -0.0220  0.0293  0.0545
  150loPI   C1B 2397  16.688   7.476   9.989 -0.1951  0.2661  0.1002
  150loPI   C2B 2398  16.643   7.568   9.552  0.1655  0.0273 -0.1710
  150loPI   C3B 2399  16.664   7.619   9.154 -0.0133  0.2513 -0.0712
  150loPI   C4B 2400  16.643   7.658   8.802 -0.0812  0.1957 -0.3379
  151loPI    C1 2401  14.064   0.679  10.986 -0.0069 -0.1912 -0.0706
  151loPI    C2 2402  13.789   0.478  11.196 -0.0905  0.0087  0.0129
  151loPI    C3 2403  14.161   0.514  11.338 -0.1228  0.0655  0.0842
  151loPI   PO4 2404  13.952   0.891  10.840 -0.0804 -0.1012 -0.0725
  151loPI   GL1 2405  14.080   1.170  10.405  0.2010  0.0633 -0.0712
  151loPI   GL2 2406  13.792   0.947  10.349  0.1424 -0.3401  0.2284
  151loPI   C1A 2407  14.147   0.998  10.028  0.1262 -0.3368 -0.0108
  151loPI   C2A 2408  14.065   0.812   9.612  0.0191 -0.1307 -0.0645
  151loPI   C3A 2409  14.071   0.363   9.415 -0.1509  0.0961 -0.4398
  151loPI   C4A 2410  14.121   0.364   9.031  0.0448 -0.0488  0.0801
  151loPI   C5A 2411  13.786   0.482   8.794 -0.3862  0.0199  0.2982
  151loPI   C6A 2412  13.389   0.682   8.733  0.1205  0.5840 -0.2604
  151loPI   C1B 2413  13.722   0.771   9.958 -0.0270  0.1335 -0.2321
  151loPI   C2B 2414  13.723   0.329   9.858 -0.2990  0.2836 -0.0234
  151loPI   C3B 2415  13.658   0.122   9.443  0.0185 -0.0920 -0.0089
  151loPI   C4B 2416  13.749   0.082   9.097 -0.1668  0.1380 -0.0084
  152loPI    C1 2417   4.698  15.173  10.737  0.0802 -0.1132  0.2168
  152loPI    C2 2418   5.048  15.357  10.800  0.0902  0.0213 -0.1957
  152loPI    C3 2419   4.967  15.011  10.984  0.4500 -0.0250 -0.1167
  152loPI   PO4 2420   4.665  15.150  10.484 -0.0083  0.1677  0.0632
  152loPI   GL1 2421   4.662  14.851  10.185  0.2195 -0.0995 -0.1457
  152loPI   GL2 2422   4.970  14.764  10.078 -0.1661  0.1298 -0.0559
  152loPI   C1A 2423   4.528  14.794   9.820 -0.0369 -0.0609  0.2122
  152loPI   C2A 2424   4.483  14.970   9.312 -0.1767  0.3960  0.2825
  152loPI   C3A 2425   4.480  14.820   8.881 -0.0261 -0.2526 -0.0160
  152loPI   C4A 2426   4.107  14.675   8.545  0.0519 -0.3049  0.0771
  152loPI   C5A 2427   3.883  14.900   8.179 -0.1608  0.1217 -0.2037
  152loPI   C6A 2428   3.527  14.729   8.059  0.0753 -0.1348 -0.0067
  152loPI   C1B 2429   4.956  14.594   9.640  0.0659 -0.1448  0.2827
  152loPI   C2B 2430   4.887  14.669   9.210 -0.0359 -0.0732  0.4262
  152loPI   C3B 2431   5.041  14.652   8.809 -0.3447  0.4393  0.1741
  152loPI   C4B 2432   4.731  14.781   8.451 -0.1680 -0.1061 -0.4702
  153loPI    C1 2433   4.058   6.175  10.555  0.0535  0.0935 -0.1613
  153loPI    C2 2434   4.036   5.862  10.802 -0.0403  0.1434 -0.1059
  153loPI    C3 2435   4.231   6.192  10.915  0.0371  0.1145 -0.1544
  153loPI   PO4 2436   3.951   5.972  10.303  0.0707 -0.0193 -0.0259
  153loPI   GL1 2437   3.583   5.974  10.080 -0.0691  0.0414 -0.1512
  153loPI   GL2 2438   3.604   6.248  10.120 -0.0030  0.1330 -0.3505
  153loPI   C1A 2439   3.834   5.867   9.678  0.1723 -0.1802  0.5474
  153loPI   C2A 2440   3.806   5.905   9.246  0.0813 -0.1437  0.1858
  153loPI   C3A 2441   3.838   5.978   8.841  0.0037 -0.1428 -0.1620
  153loPI   C4A 2442   3.722   5.827   8.478 -0.4104 -0.0252 -0.0861
  153loPI   C5A 2443   3.711   5.785   8.033  0.0206  0.2943 -0.1595
  153loPI   C6A 2444   3.895   5.819   7.597 -0.1307  0.0506 -0.0168
  153loPI   C1B 2445   3.552   6.318   9.598 -0.0466 -0.0109 -0.1089
  153loPI   C2B 2446   3.640   6.363   9.163 -0.1040 -0.3452  0.0213
  153loPI   C3B 2447   3.563   6.361   8.560 -0.5569  0.2078 -0.1400
  153loPI   C4B 2448   3.557   6.249   8.172 -0.2021  0.3425  0.1819
  154loPI    C1 2449   3.888  15.736  10.718  0.0997 -0.1510 -0.2042
  154loPI    C2 2450   3.639  15.439  10.817 -0.0386  0.0258 -0.0167
  154loPI    C3 2451   3.955  15.521  11.048  0.1662 -0.1633 -0.2253
  154loPI   PO4 2452   3.818  15.752  10.400  0.0757 -0.3937 -0.0705
  154loPI   GL1 2453   3.891  15.753  10.125 -0.2525  0.2231 -0.3157
  154loPI   GL2 2454   3.931  15.510   9.917 -0.1374 -0.3196 -0.0715
  154loPI   C1A 2455   3.973  16.032   9.687  0.0830  0.3811 -0.0323
  154loPI   C2A 2456   4.121  16.280   9.444  0.0668 -0.0107 -0.0478
  154loPI   C3A 2457   4.003  16.452   8.978 -0.2355  0.0327 -0.0921
  154loPI   C4A 2458   3.910  16.483   8.575 -0.0139  0.0534  0.4497
  154loPI   C5A 2459   3.911  16.327   8.100 -0.1148  0.2501  0.1370
  154loPI   C6A 2460   4.020  16.369   7.646  0.0500  0.0238 -0.1847
  154loPI   C1B 2461   4.253  15.301   9.550 -0.1478 -0.3192 -0.2688
  154loPI   C2B 2462   4.314  15.355   9.060 -0.3559  0.1053 -0.0014
  154loPI   C3B 2463   4.383  15.203   8.580 -0.0668  0.4622  0.4140
  154loPI   C4B 2464   4.332  15.182   8.156 -0.1562  0.1870  0.2011
  155loPI    C1 2465   0.624   6.907  10.856 -0.0722 -0.0180 -0.0899
  155loPI    C2 2466   0.284   6.742  10.986 -0.0906  0.0331 -0.0727
  155loPI    C3 2467   0.577   6.825  11.245 -0.0074 -0.1449 -0.1084
  155loPI   PO4 2468   0.716   6.782  10.598  0.1290  0.2593  0.1995
  155loPI   GL1 2469   0.949   6.899  10.260 -0.0420 -0.1556 -0.1547
  155loPI   GL2 2470   1.174   6.780   9.984  0.0655 -0.0681 -0.0183
  155loPI   C1A 2471   0.630   6.949   9.857  0.1633 -0.5788 -0.0162
  155loPI   C2A 2472   0.421   6.847   9.558 -0.0716 -0.0082 -0.0091
  155loPI   C3A 2473   0.147   7.009   9.293 -0.0582  0.1402 -0.0100
  155loPI   C4A 2474  -0.042   7.209   8.940 -0.0632 -0.0914  0.1343
  155loPI   C5A 2475  -0.339   7.466   8.797 -0.0635 -0.0396  0.2265
  155loPI   C6A 2476  -0.733   7.617   8.639 -0.0018  0.1393 -0.1430
  155loPI   C1B 2477   0.980   6.827   9.537 -0.0082  0.1262  0.1153
  155loPI   C2B 2478   1.010   6.871   9.061 -0.1379  0.1621  0.3265
  155loPI   C3B 2479   0.952   7.152   8.763 -0.1765  0.2434  0.2741
  155loPI   C4B 2480   0.725   7.410   8.401 -0.0375 -0.1784 -0.1887
  156loPI    C1 2481   8.930  11.328  11.422 -0.0216  0.2970 -0.3087
  156loPI    C2 2482   9.249  11.515  11.573 -0.0581  0.1425 -0.0334
  156loPI    C3 2483   8.897  11.704  11.556 -0.0385  0.1836  0.0140
  156loPI   PO4 2484   8.982  11.133  11.191  0.0452  0.1865  0.1050
  156loPI   GL1 2485   9.154  11.118  10.757 -0.1948 -0.0909  0.0577
  156loPI   GL2 2486   9.363  10.865  10.798 -0.1240 -0.1010  0.1481
  156loPI   C1A 2487   9.340  11.286  10.339 -0.0389 -0.0381  0.0010
  156loPI   C2A 2488   9.311  11.247   9.903 -0.0567  0.0108  0.1156
  156loPI   C3A 2489   9.406  11.249   9.471 -0.3086 -0.0091 -0.0246
  156loPI   C4A 2490   9.398  11.272   8.957 -0.1046 -0.1720 -0.0403
  156loPI   C5A 2491   9.362  11.372   8.516  0.1066 -0.0962  0.0565
  156loPI   C6A 2492   9.435  11.358   8.078 -0.0550 -0.1797  0.0188
  156loPI   C1B 2493   9.442  10.442  10.501  0.1168 -0.0269 -0.2777
  156loPI   C2B 2494   9.555  10.431  10.019 -0.1231 -0.2072  0.0572
  156loPI   C3B 2495   9.632  10.410   9.527  0.0676  0.2454 -0.1554
  156loPI   C4B 2496   9.672  10.422   9.087 -0.0901  0.1887 -0.0100
  157loPI    C1 2497   5.594   7.074  10.946  0.2133 -0.1759  0.1287
  157loPI    C2 2498   5.791   7.189  11.275  0.0387 -0.0133  0.1781
  157loPI    C3 2499   5.451   6.981  11.308  0.0433 -0.0337  0.0989
  157loPI   PO4 2500   5.689   7.380  10.743  0.1842  0.1226 -0.0644
  157loPI   GL1 2501   5.779   7.340  10.310 -0.3729  0.1021  0.0588
  157loPI   GL2 2502   5.510   7.405  10.295 -0.3559 -0.3667 -0.0853
  157loPI   C1A 2503   5.924   7.452   9.884 -0.0636  0.1564 -0.3441
  157loPI   C2A 2504   6.012   7.498   9.467 -0.3035  0.0640 -0.0031
  157loPI   C3A 2505   6.123   7.444   9.060  0.0599 -0.3151 -0.1391
  157loPI   C4A 2506   6.301   7.286   8.676 -0.0217  0.2519 -0.2254
  157loPI   C5A 2507   6.451   7.394   8.330  0.0514 -0.3283  0.0136
  157loPI   C6A 2508   6.725   7.276   7.849 -0.0171 -0.2109  0.1669
  157loPI   C1B 2509   5.465   7.509   9.898 -0.0365 -0.2002 -0.0800
  157loPI   C2B 2510   5.496   7.464   9.393 -0.2885  0.2186 -0.1403
  157loPI   C3B 2511   5.532   7.616   9.002 -0.1870  0.3054  0.1113
  157loPI   C4B 2512   5.583   7.565   8.558 -0.0218  0.0277  0.2279
  158loPI    C1 2513  12.207  15.301  11.314 -0.1781  0.0047  0.0162
  158loPI    C2 2514  11.896  15.531  11.213 -0.1705 -0.0042 -0.0273
  158loPI    C3 2515  12.087  15.594  11.559 -0.2565 -0.0356  0.0263
  158loPI   PO4 2516  12.300  15.268  10.992  0.0126 -0.0228 -0.1761
  158loPI   GL1 2517  12.407  15.326  10.576 -0.0157 -0.0795 -0.0881
  158loPI   GL2 2518  12.132  15.521  10.510 -0.3310 -0.1449 -0.1093
  158loPI   C1A 2519  12.574  15.383  10.142  0.1130  0.0805 -0.1384
  158loPI   C2A 2520  12.528  15.543   9.785 -0.1722 -0.1833  0.0036
  158loPI   C3A 2521  12.303  15.477   9.335  0.0739  0.0460 -0.2556
  158loPI   C4A 2522  12.123  15.806   9.021  0.0546  0.3727 -0.0922
  158loPI   C5A 2523  12.189  16.221   8.950 -0.1548  0.0769 -0.0883
  158loPI   C6A 2524  12.102  16.623   9.072  0.2488 -0.1561 -0.0653
  158loPI   C1B 2525  12.114  15.600  10.018  0.1540 -0.4135 -0.0229
  158loPI   C2B 2526  12.039  15.778   9.628  0.2557 -0.4861 -0.0408
  158loPI   C3B 2527  12.034  16.228   9.446 -0.3893 -0.1699 -0.1730
  158loPI   C4B 2528  11.965  16.676   9.522  0.3102  0.0793  0.0237
  159loPI    C1 2529   7.164   5.975  10.895  0.3383  0.0114 -0.1876
  159loPI    C2 2530   7.203   6.082  11.278  0.1044 -0.0428 -0.1472
  159loPI    C3 2531   7.469   5.834  11.112  0.2379  0.0249 -0.0368
  159loPI   PO4 2532   7.227   6.142  10.710  0.0882 -0.3108 -0.1508
  159loPI   GL1 2533   7.169   6.183  10.256  0.0016 -0.0081  0.1737
  159loPI   GL2 2534   6.869   6.066  10.375 -0.2267 -0.2446 -0.0360
  159loPI   C1A 2535   7.385   6.288   9.920 -0.2006 -0.0718 -0.1767
  159loPI   C2A 2536   7.240   6.338   9.579  0.2612  0.1173 -0.0810
  159loPI   C3A 2537   7.252   6.168   9.245  0.2370 -0.0664 -0.0992
  159loPI   C4A 2538   7.330   6.253   8.740  0.2308  0.1131  0.1257
  159loPI   C5A 2539   7.163   6.106   8.349 -0.1340 -0.3752  0.3144
  159loPI   C6A 2540   6.961   5.777   8.184  0.0851  0.1187 -0.0471
  159loPI   C1B 2541   6.867   6.140   9.904 -0.2387  0.1335  0.1382
  159loPI   C2B 2542   6.787   6.208   9.557  0.0522  0.0052 -0.0518
  159loPI   C3B 2543   6.657   6.397   9.147 -0.1277 -0.1880  0.2932
  159loPI   C4B 2544   6.788   6.340   8.670 -0.0252 -0.0126 -0.1764
  160loPI    C1 2545   1.711  15.190  10.834  0.1648 -0.1210  0.0349
  160loPI    C2 2546   1.723  15.557  10.675 -0.0528 -0.1279 -0.0006
  160loPI    C3 2547   1.727  15.511  11.072 -0.0913 -0.0837  0.0050
  160loPI   PO4 2548   1.545  15.079  10.662  0.0222  0.0524 -0.0181
  160loPI   GL1 2549   1.466  15.243  10.295  0.1181 -0.0267  0.0405
  160loPI   GL2 2550   1.758  15.236  10.167 -0.0164  0.1383  0.2560
  160loPI   C1A 2551   1.138  15.130   9.999 -0.1830 -0.2962  0.3510
  160loPI   C2A 2552   1.090  15.131   9.478 -0.0309  0.2213 -0.1254
  160loPI   C3A 2553   1.030  15.133   9.024  0.0211 -0.1327  0.0249
  160loPI   C4A 2554   1.032  15.119   8.569 -0.2561 -0.0872 -0.0969
  160loPI   C5A 2555   0.856  15.135   8.131 -0.1243  0.1515  0.0310
  160loPI   C6A 2556   0.498  15.231   7.917  0.0183 -0.2847 -0.1846
  160loPI   C1B 2557   1.702  15.241   9.677 -0.0090 -0.0284  0.0055
  160loPI   C2B 2558   1.580  15.172   9.257  0.4042  0.0012 -0.0561
  160loPI   C3B 2559   1.653  15.156   8.811  0.0172  0.1264  0.1447
  160loPI   C4B 2560   1.485  15.065   8.336 -0.2145  0.0293 -0.1872
  161loPI    C1 2561   0.232  10.926  11.520 -0.1989 -0.2987  0.0670
  161loPI    C2 2562   0.150  11.286  11.673  0.0194 -0.2244  0.0122
  161loPI    C3 2563  -0.025  10.960  11.825 -0.1127 -0.1049  0.1191
  161loPI   PO4 2564   0.407  11.011  11.230 -0.1457  0.3588 -0.0470
  161loPI   GL1 2565   0.355  10.961  10.902  0.0581  0.1260  0.1563
  161loPI   GL2 2566   0.277  10.737  10.681  0.0203 -0.0949 -0.0874
  161loPI   C1A 2567   0.208  11.303  10.545  0.3198 -0.1297 -0.1128
  161loPI   C2A 2568   0.266  11.258  10.105 -0.2871 -0.2072 -0.3205
  161loPI   C3A 2569   0.316  11.220   9.715 -0.2592 -0.1480  0.0574
  161loPI   C4A 2570   0.334  11.316   9.253 -0.1244 -0.1329  0.1706
  161loPI   C5A 2571   0.433  11.296   8.815 -0.1235  0.1285 -0.2302
  161loPI   C6A 2572   0.503  10.966   8.435  0.0474 -0.0821 -0.0419
  161loPI   C1B 2573   0.249  10.802  10.294 -0.0391  0.0162  0.3368
  161loPI   C2B 2574   0.216  10.754   9.850  0.1438 -0.4419 -0.2805
  161loPI   C3B 2575   0.200  10.768   9.425 -0.2321 -0.3769 -0.3843
  161loPI   C4B 2576   0.237  10.829   8.980 -0.1132  0.0926  0.0498
  162loPI    C1 2577   8.979   8.815  11.411  0.0186 -0.1261  0.0500
  162loPI    C2 2578   8.842   8.566  11.693  0.0976 -0.0277  0.1763
  162loPI    C3 2579   9.024   8.907  11.798  0.0130  0.0716  0.0049
  162loPI   PO4 2580   9.129   8.711  11.277  0.0772  0.0734 -0.2631
  162loPI   GL1 2581   9.320   8.746  10.871 -0.2958 -0.0567  0.4624
  162loPI   GL2 2582   9.078   8.905  10.742  0.0370  0.1243 -0.0063
  162loPI   C1A 2583   9.522   8.895  10.499 -0.2739  0.0164  0.0845
  162loPI   C2A 2584   9.572   8.961  10.076  0.0496  0.0454  0.0481
  162loPI   C3A 2585   9.530   9.073   9.612 -0.2104 -0.2822 -0.0735
  162loPI   C4A 2586   9.639   8.998   9.272 -0.1495 -0.0179 -0.0869
  162loPI   C5A 2587   9.562   8.975   8.779 -0.0225 -0.2322  0.0536
  162loPI   C6A 2588   9.168   8.789   8.630  0.1705 -0.0044  0.1541
  162loPI   C1B 2589   8.970   8.863  10.421  0.0972 -0.0118  0.2573
  162loPI   C2B 2590   9.031   8.909   9.985  0.0546  0.4492 -0.0160
  162loPI   C3B 2591   9.078   8.945   9.606  0.0495  0.3078 -0.0606
  162loPI   C4B 2592   9.142   8.882   9.182  0.0292  0.0765 -0.0460
  163loPI    C1 2593  13.039   3.939  10.965 -0.0158 -0.3046 -0.0328
  163loPI    C2 2594  12.652   4.029  11.009  0.1235  0.3586 -0.0595
  163loPI    C3 2595  12.861   3.888  11.320 -0.1430 -0.0532 -0.0586
  163loPI   PO4 2596  13.085   4.178  10.804  0.1793 -0.0844  0.1204
  163loPI   GL1 2597  12.905   4.121  10.401 -0.3421  0.0463  0.0196
  163loPI   GL2 2598  13.001   4.340  10.253 -0.1866 -0.4063  0.1593
  163loPI   C1A 2599  12.713   3.860  10.036  0.0607 -0.1242 -0.0911
  163loPI   C2A 2600  12.619   3.752   9.645  0.0401 -0.0476  0.2674
  163loPI   C3A 2601  12.680   3.847   9.215 -0.0507  0.0004 -0.0129
  163loPI   C4A 2602  12.614   4.081   8.737  0.2766 -0.3355  0.0619
  163loPI   C5A 2603  12.496   4.110   8.358  0.2287 -0.1162  0.0004
  163loPI   C6A 2604  12.034   4.074   8.229 -0.1244 -0.2683 -0.1333
  163loPI   C1B 2605  13.154   4.575   9.891  0.1559 -0.1290  0.0087
  163loPI   C2B 2606  13.180   4.679   9.431 -0.2229 -0.0042 -0.0354
  163loPI   C3B 2607  13.062   4.871   9.087  0.1051 -0.0047 -0.2534
  163loPI   C4B 2608  13.095   4.956   8.608  0.0989 -0.1785 -0.1403
  164loPI    C1 2609  13.521   5.761  11.290 -0.0117 -0.1047  0.1857
  164loPI    C2 2610  13.372   5.948  11.610  0.0009  0.0237  0.1170
  164loPI    C3 2611  13.162   5.657  11.432 -0.0269 -0.0152  0.2127
  164loPI   PO4 2612  13.608   5.927  11.121  0.1039 -0.1002  0.0195
  164loPI   GL1 2613  13.647   5.920  10.676 -0.0570 -0.1619 -0.0589
  164loPI   GL2 2614  13.739   5.720  10.488 -0.1885 -0.1941  0.0267
  164loPI   C1A 2615  13.573   6.232  10.398 -0.2715  0.0118 -0.1979
  164loPI   C2A 2616  13.480   6.200   9.935 -0.1123  0.0894  0.1546
  164loPI   C3A 2617  13.465   6.275   9.577  0.1298 -0.1009 -0.0574
  164loPI   C4A 2618  13.510   6.320   9.177 -0.0744 -0.2437 -0.0018
  164loPI   C5A 2619  13.476   6.404   8.740  0.3695 -0.0916 -0.1016
  164loPI   C6A 2620  13.831   6.460   8.486  0.1169  0.3303 -0.0433
  164loPI   C1B 2621  13.822   5.789  10.089  0.1450  0.1482 -0.4303
  164loPI   C2B 2622  13.780   5.873   9.624 -0.4574  0.1093  0.0570
  164loPI   C3B 2623  13.862   5.912   9.253  0.0692 -0.0796  0.1328
  164loPI   C4B 2624  13.845   6.027   8.864 -0.1425  0.0648 -0.0117
  165loPI    C1 2625   2.453  17.413  10.504 -0.0505  0.0133  0.0732
  165loPI    C2 2626   2.517  17.679  10.796  0.0336  0.0271  0.0422
  165loPI    C3 2627   2.823  17.469  10.646 -0.0240 -0.0466  0.0280
  165loPI   PO4 2628   2.366  17.533  10.362  0.2349 -0.0828 -0.0086
  165loPI   GL1 2629   2.273  17.699  10.130  0.0603  0.1947 -0.1431
  165loPI   GL2 2630   2.289  18.011   9.895  0.2079 -0.1405 -0.0151
  165loPI   C1A 2631   2.154  17.608   9.661 -0.1863 -0.1045  0.0051
  165loPI   C2A 2632   2.069  17.601   9.225 -0.0596  0.2139  0.1552
  165loPI   C3A 2633   2.073  17.404   8.863  0.1490  0.0873  0.2526
  165loPI   C4A 2634   2.175  17.391   8.478  0.0571 -0.0866  0.0480
  165loPI   C5A 2635   2.253  17.689   8.276  0.2320  0.3212  0.2330
  165loPI   C6A 2636   2.259  17.915   7.897  0.2401  0.0547  0.2629
  165loPI   C1B 2637   2.352  18.112   9.515  0.0294  0.1679  0.1778
  165loPI   C2B 2638   2.346  18.401   9.121 -0.0981  0.2958  0.2021
  165loPI   C3B 2639   2.297  18.390   8.707  0.0193 -0.1342 -0.0021
  165loPI   C4B 2640   2.358  18.238   8.278  0.1203 -0.3010 -0.1652
  166loPI    C1 2641   8.994  14.556  10.702  0.0503 -0.1703 -0.1270
  166loPI    C2 2642   9.243  14.246  10.745  0.1020 -0.1408 -0.2123
  166loPI    C3 2643   8.985  14.336  11.036  0.2581 -0.1117 -0.0812
  166loPI   PO4 2644   9.150  14.755  10.653  0.2736  0.1347  0.1664
  166loPI   GL1 2645   8.956  14.991  10.378  0.4561  0.4958 -0.0385
  166loPI   GL2 2646   8.646  14.798  10.288  0.2795  0.0990 -0.0355
  166loPI   C1A 2647   8.923  15.145   9.901  0.2365  0.1151  0.1537
  166loPI   C2A 2648   8.967  15.161   9.414  0.0497  0.2501  0.1904
  166loPI   C3A 2649   9.088  15.202   9.033  0.0334 -0.2675 -0.0855
  166loPI   C4A 2650   8.990  15.157   8.631 -0.0941 -0.1742  0.0220
  166loPI   C5A 2651   8.834  15.047   8.203 -0.0836 -0.0011 -0.0211
  166loPI   C6A 2652   9.002  14.778   7.903 -0.2260 -0.0203 -0.0472
  166loPI   C1B 2653   8.508  14.878   9.803  0.2454 -0.2744  0.3354
  166loPI   C2B 2654   8.484  14.982   9.414 -0.2397  0.0863  0.0208
  166loPI   C3B 2655   8.573  14.867   9.035  0.1990 -0.2088 -0.1826
  166loPI   C4B 2656   8.544  14.918   8.645  0.1581  0.1408 -0.3629
  167loPI    C1 2657  11.700   9.303  10.774  0.0804 -0.0549 -0.0222
  167loPI    C2 2658  11.309   9.226  10.734  0.0876 -0.1181  0.0294
  167loPI    C3 2659  11.462   9.308  11.095  0.0934  0.0661 -0.0140
  167loPI   PO4 2660  11.715   9.494  10.539  0.0118  0.1363 -0.1987
  167loPI   GL1 2661  11.389   9.587  10.309  0.4050  0.0881  0.2442
  167loPI   GL2 2662  11.155   9.825  10.359 -0.3018 -0.1592 -0.2252
  167loPI   C1A 2663  11.624   9.477   9.920  0.0450 -0.1292  0.0241
  167loPI   C2A 2664  11.616   9.468   9.589 -0.0827 -0.0882  0.0204
  167loPI   C3A 2665  11.654   9.488   9.162 -0.1614  0.0534  0.1420
  167loPI   C4A 2666  11.575   9.521   8.673 -0.0589 -0.1254  0.1265
  167loPI   C5A 2667  11.913   9.661   8.349 -0.0491  0.1888 -0.0780
  167loPI   C6A 2668  12.350   9.533   8.333 -0.1993  0.1964  0.2542
  167loPI   C1B 2669  11.225   9.824   9.901  0.0009 -0.2264  0.1033
  167loPI   C2B 2670  11.286   9.810   9.438  0.0316 -0.3161  0.0258
  167loPI   C3B 2671  11.235   9.875   9.012  0.0475 -0.0909  0.0496
  167loPI   C4B 2672  11.253   9.857   8.493  0.0372  0.1219  0.2075
  168loPI    C1 2673   8.013   0.635  10.444 -0.1022 -0.3712 -0.2636
  168loPI    C2 2674   8.308   0.470  10.657 -0.0649  0.2124  0.1626
  168loPI    C3 2675   7.934   0.335  10.696  0.0115  0.0239  0.2594
  168loPI   PO4 2676   8.099   0.720  10.284  0.3209  0.1204 -0.4056
  168loPI   GL1 2677   7.911   0.944  10.035 -0.0880 -0.0840  0.1253
  168loPI   GL2 2678   7.798   0.565   9.937 -0.4594  0.0959 -0.4393
  168loPI   C1A 2679   8.163   0.987   9.712  0.1243 -0.0322  0.2471
  168loPI   C2A 2680   8.178   0.819   9.365 -0.1273 -0.1219 -0.0565
  168loPI   C3A 2681   8.389   0.943   8.937  0.1013  0.2198 -0.0162
  168loPI   C4A 2682   8.303   1.084   8.477  0.0953  0.1061  0.3564
  168loPI   C5A 2683   8.291   1.094   8.053  0.0487 -0.1074  0.0189
  168loPI   C6A 2684   8.044   1.105   7.710  0.1751 -0.0089 -0.0766
  168loPI   C1B 2685   7.817   0.184   9.702 -0.0773  0.0511 -0.1956
  168loPI   C2B 2686   7.604  -0.070   9.369 -0.0504 -0.0318  0.0632
  168loPI   C3B 2687   7.385  -0.256   8.993 -0.2802  0.2382 -0.2083
  168loPI   C4B 2688   7.052  -0.453   8.887 -0.0150  0.1447  0.1619
  169loPI    C1 2689   3.823  11.376  10.720  0.0958 -0.1458 -0.2103
  169loPI    C2 2690   4.124  11.339  10.981  0.0196  0.0411 -0.0941
  169loPI    C3 2691   3.758  11.436  11.110 -0.0323  0.0741 -0.2634
  169loPI   PO4 2692   3.860  11.172  10.550 -0.1677  0.0256 -0.1270
  169loPI   GL1 2693   3.758  11.099  10.206  0.2026  0.0123  0.2984
  169loPI   GL2 2694   3.975  10.876  10.122 -0.0653  0.1400  0.0724
  169loPI   C1A 2695   3.584  11.081   9.877  0.0570 -0.1438 -0.1437
  169loPI   C2A 2696   3.417  11.263   9.480 -0.0189  0.2020 -0.0234
  169loPI   C3A 2697   3.351  11.652   9.160 -0.0657  0.1736  0.1462
  169loPI   C4A 2698   3.317  11.691   8.745  0.4162  0.1492 -0.0880
  169loPI   C5A 2699   3.153  11.923   8.376 -0.1122  0.1413  0.0897
  169loPI   C6A 2700   2.995  12.309   8.320 -0.1467  0.2670 -0.1815
  169loPI   C1B 2701   4.123  10.914   9.786  0.0995  0.0386  0.4595
  169loPI   C2B 2702   4.406  11.235   9.619  0.2268  0.2311  0.1073
  169loPI   C3B 2703   4.372  11.178   9.202 -0.2056 -0.0409  0.0832
  169loPI   C4B 2704   4.187  11.063   8.792  0.0615  0.0645 -0.3473
  170loPI    C1 2705   1.172  18.189  10.938  0.2301 -0.2397  0.0098
  170loPI    C2 2706   1.385  18.184  11.276  0.1652  0.1704  0.0629
  170loPI    C3 2707   1.101  18.461  11.223 -0.1253 -0.1592 -0.1489
  170loPI   PO4 2708   1.263  18.225  10.765 -0.0590 -0.2395  0.1255
  170loPI   GL1 2709   1.210  18.217  10.263 -0.1077  0.2905 -0.1569
  170loPI   GL2 2710   0.924  18.245  10.093 -0.1605 -0.1556  0.1246
  170loPI   C1A 2711   1.436  18.236   9.929 -0.0501  0.0816 -0.2710
  170loPI   C2A 2712   1.347  18.252   9.466  0.1664 -0.3576 -0.0129
  170loPI   C3A 2713   1.294  18.249   8.988 -0.2701 -0.0408 -0.1562
  170loPI   C4A 2714   1.365  18.075   8.580  0.2144  0.1137 -0.2218
  170loPI   C5A 2715   1.345  17.972   8.171  0.0971  0.0760 -0.0113
  170loPI   C6A 2716   1.286  17.764   7.818 -0.1990  0.6264 -0.2699
  170loPI   C1B 2717   0.893  18.190   9.654 -0.3169 -0.0484 -0.0390
  170loPI   C2B 2718   0.706  18.178   9.234  0.1167  0.2052  0.0671
  170loPI   C3B 2719   0.619  18.129   8.761 -0.2417  0.1086  0.0642
  170loPI   C4B 2720   0.300  18.193   8.525  0.3078 -0.0136  0.1447
  171loPI    C1 2721  13.088   9.273  11.180  0.0854  0.0185 -0.0891
  171loPI    C2 2722  12.742   9.083  11.247 -0.0210  0.1217 -0.3317
  171loPI    C3 2723  12.951   9.232  11.553 -0.1796  0.0388 -0.1814
  171loPI   PO4 2724  13.020   9.337  10.866  0.0089  0.1696  0.0557
  171loPI   GL1 2725  13.075   9.043  10.506  0.0323  0.1983  0.1789
  171loPI   GL2 2726  13.348   8.862  10.405 -0.0595  0.2740 -0.1353
  171loPI   C1A 2727  12.894   8.822  10.227 -0.0852 -0.2235 -0.1015
  171loPI   C2A 2728  12.824   8.829   9.782 -0.0330  0.1326  0.3922
  171loPI   C3A 2729  12.873   8.873   9.376 -0.0197 -0.3576 -0.0673
  171loPI   C4A 2730  12.872   8.842   8.940  0.1965  0.0379  0.0207
  171loPI   C5A 2731  12.857   8.906   8.571  0.1602  0.3566 -0.4767
  171loPI   C6A 2732  13.029   9.022   8.255  0.0048  0.2281 -0.1233
  171loPI   C1B 2733  13.298   8.898   9.974  0.0137  0.0508 -0.0554
  171loPI   C2B 2734  13.396   8.944   9.609 -0.1296  0.1718  0.0768
  171loPI   C3B 2735  13.390   8.973   9.212  0.2360  0.2453  0.1865
  171loPI   C4B 2736  13.251   9.108   8.793  0.2112  0.1114  0.1365
  172loPI    C1 2737   6.843   6.679  10.632 -0.1277  0.0948 -0.0695
  172loPI    C2 2738   7.192   6.625  10.819 -0.1198  0.1031 -0.0820
  172loPI    C3 2739   6.849   6.550  11.010 -0.1187  0.3358  0.0142
  172loPI   PO4 2740   6.871   6.582  10.447 -0.1461  0.4185 -0.2540
  172loPI   GL1 2741   6.528   6.494  10.159  0.0027  0.0068 -0.1021
  172loPI   GL2 2742   6.432   6.158  10.118  0.2606 -0.0345 -0.2177
  172loPI   C1A 2743   6.387   6.565   9.719 -0.0458 -0.0826 -0.0990
  172loPI   C2A 2744   6.147   6.708   9.367  0.0873 -0.0278 -0.0095
  172loPI   C3A 2745   6.213   6.764   8.951 -0.0725 -0.1216 -0.0653
  172loPI   C4A 2746   6.347   6.616   8.537  0.0020 -0.2729 -0.1641
  172loPI   C5A 2747   6.668   6.600   8.219 -0.0453 -0.0154  0.3275
  172loPI   C6A 2748   6.876   6.723   7.896 -0.1077 -0.0824  0.0228
  172loPI   C1B 2749   6.313   6.064   9.723  0.0590 -0.2183 -0.1627
  172loPI   C2B 2750   6.285   6.102   9.305  0.1059  0.1597  0.0808
  172loPI   C3B 2751   6.122   6.293   8.942 -0.0042 -0.2458  0.1550
  172loPI   C4B 2752   5.908   6.419   8.537  0.1044  0.1063  0.0176
  173loPI    C1 2753  12.496  14.287  10.819 -0.1712  0.0821 -0.0751
  173loPI    C2 2754  12.471  13.889  10.851  0.1638  0.0529 -0.1438
  173loPI    C3 2755  12.468  14.117  11.180 -0.0948  0.0000 -0.1076
  173loPI   PO4 2756  12.635  14.226  10.475  0.0361  0.0477 -0.1522
  173loPI   GL1 2757  12.486  14.156  10.128  0.0227 -0.4899 -0.0394
  173loPI   GL2 2758  12.622  14.454   9.980 -0.0799 -0.1185 -0.2972
  173loPI   C1A 2759  12.248  14.162   9.782  0.5297 -0.1265 -0.0326
  173loPI   C2A 2760  12.105  14.183   9.351  0.0637  0.2669  0.1112
  173loPI   C3A 2761  12.259  14.025   8.926 -0.0807  0.0380 -0.0331
  173loPI   C4A 2762  12.594  14.131   8.675 -0.1394 -0.0093  0.3058
  173loPI   C5A 2763  12.872  14.426   8.700 -0.0513 -0.0880  0.0608
  173loPI   C6A 2764  12.925  14.796   8.736 -0.0546 -0.1283  0.0706
  173loPI   C1B 2765  12.767  14.475   9.537 -0.1652  0.3279 -0.0089
  173loPI   C2B 2766  13.002  14.621   9.237  0.1047  0.2799  0.2791
  173loPI   C3B 2767  13.321  14.538   9.081  0.4202 -0.2339 -0.0350
  173loPI   C4B 2768  13.671  14.769   8.784 -0.1071  0.1137  0.4635
  174loPI    C1 2769   0.777   7.302  11.123  0.0261 -0.1675  0.2152
  174loPI    C2 2770   0.863   7.668  11.260  0.0798 -0.0762 -0.0567
  174loPI    C3 2771   0.594   7.441  11.450  0.2235  0.0087  0.2528
  174loPI   PO4 2772   0.774   7.388  10.816 -0.1952 -0.0101  0.0247
  174loPI   GL1 2773   0.649   7.231  10.439 -0.0201  0.0506  0.3748
  174loPI   GL2 2774   0.393   7.186  10.312 -0.0427  0.2173  0.0291
  174loPI   C1A 2775   0.916   7.374  10.068  0.2994 -0.0478 -0.0880
  174loPI   C2A 2776   0.926   7.326   9.692 -0.0098  0.1733 -0.0637
  174loPI   C3A 2777   0.793   7.228   9.259 -0.1221 -0.1797 -0.1491
  174loPI   C4A 2778   0.512   7.057   8.901 -0.0914  0.0645  0.1891
  174loPI   C5A 2779   0.431   7.004   8.517 -0.0712 -0.2523  0.3057
  174loPI   C6A 2780   0.421   7.124   8.122  0.0146  0.0102 -0.1323
  174loPI   C1B 2781   0.362   7.554  10.072  0.1986 -0.0093 -0.2050
  174loPI   C2B 2782   0.324   7.466   9.595 -0.0079  0.2996 -0.0044
  174loPI   C3B 2783   0.320   7.490   9.166  0.0124 -0.3472  0.1779
  174loPI   C4B 2784   0.249   7.547   8.721  0.2379  0.2576 -0.1805
  175loPI    C1 2785   6.142   7.130  10.917  0.0815 -0.0788 -0.0419
  175loPI    C2 2786   6.465   6.894  10.934  0.0898 -0.0737 -0.1232
  175loPI    C3 2787   6.310   7.046  11.270  0.0920 -0.1846 -0.0718
  175loPI   PO4 2788   6.200   7.253  10.672  0.0972 -0.0476 -0.2687
  175loPI   GL1 2789   6.332   7.223  10.163 -0.0413  0.0814 -0.0139
  175loPI   GL2 2790   6.618   6.945   9.978  0.0250  0.1824 -0.0108
  175loPI   C1A 2791   6.487   7.521   9.944  0.0320  0.0031  0.5204
  175loPI   C2A 2792   6.626   7.605   9.502  0.2260  0.1532  0.0494
  175loPI   C3A 2793   6.624   7.543   9.030 -0.1975  0.1151  0.2759
  175loPI   C4A 2794   6.951   7.537   8.728  0.2142 -0.1755  0.3321
  175loPI   C5A 2795   7.028   7.603   8.253  0.0072 -0.1661 -0.2821
  175loPI   C6A 2796   7.121   7.637   7.855  0.0257 -0.0630  0.1902
  175loPI   C1B 2797   6.757   6.813   9.529 -0.2544  0.1908  0.1499
  175loPI   C2B 2798   6.995   6.736   9.178  0.1248  0.0657 -0.3408
  175loPI   C3B 2799   7.116   6.721   8.802  0.1235  0.4423 -0.4681
  175loPI   C4B 2800   7.145   6.623   8.447 -0.0101  0.1419 -0.0444
  176loPI    C1 2801   3.060  11.609  10.765  0.0687  0.2353  0.0379
  176loPI    C2 2802   3.353  11.338  10.772 -0.0740  0.0773 -0.0222
  176loPI    C3 2803   3.204  11.480  11.115  0.1303  0.2233  0.0083
  176loPI   PO4 2804   3.179  11.733  10.571  0.0518 -0.1324  0.0587
  176loPI   GL1 2805   3.049  11.922  10.142  0.1462 -0.1375  0.0098
  176loPI   GL2 2806   3.500  11.912  10.073 -0.0555 -0.0356  0.2268
  176loPI   C1A 2807   2.906  12.199   9.726  0.0279  0.0566  0.0925
  176loPI   C2A 2808   2.620  12.262   9.466 -0.0603  0.1605  0.1030
  176loPI   C3A 2809   2.572  12.321   9.098 -0.2093 -0.0949  0.2169
  176loPI   C4A 2810   2.620  12.456   8.623 -0.2061 -0.2959 -0.0687
  176loPI   C5A 2811   2.515  12.935   8.556 -0.1111 -0.0969  0.1256
  176loPI   C6A 2812   2.478  13.141   8.067 -0.2333  0.1408 -0.1537
  176loPI   C1B 2813   3.788  11.548  10.010 -0.1418 -0.0160  0.1017
  176loPI   C2B 2814   3.958  11.460   9.638  0.0668 -0.0311 -0.2348
  176loPI   C3B 2815   3.851  11.095   9.336 -0.4657 -0.1148  0.1906
  176loPI   C4B 2816   3.778  10.682   9.524  0.1219  0.1889  0.0095
  177loPI    C1 2817  14.315   5.075  10.878  0.1329 -0.1293 -0.1490
  177loPI    C2 2818  13.986   4.938  11.060  0.2336 -0.0575  0.0918
  177loPI    C3 2819  14.284   5.093  11.277  0.2229  0.3257 -0.1571
  177loPI   PO4 2820  14.265   5.263  10.742  0.2343 -0.0288  0.2508
  177loPI   GL1 2821  14.531   5.312  10.407  0.1381  0.2631 -0.3622
  177loPI   GL2 2822  14.458   5.670  10.454  0.0727 -0.2270 -0.1345
  177loPI   C1A 2823  14.670   5.565  10.027 -0.0965  0.1091  0.0579
  177loPI   C2A 2824  14.617   5.629   9.710  0.2988  0.2059  0.3579
  177loPI   C3A 2825  14.671   5.695   9.302  0.0820  0.7409 -0.4671
  177loPI   C4A 2826  14.672   5.703   8.869  0.1824  0.3040 -0.3127
  177loPI   C5A 2827  14.688   5.853   8.504  0.1416 -0.3259 -0.0823
  177loPI   C6A 2828  14.952   6.274   8.262  0.0024 -0.2984 -0.1496
  177loPI   C1B 2829  14.446   5.931  10.285 -0.0416  0.1022  0.0060
  177loPI   C2B 2830  14.279   5.939   9.910 -0.3903  0.0251 -0.1279
  177loPI   C3B 2831  14.324   6.010   9.467  0.2065  0.2470 -0.1065
  177loPI   C4B 2832  14.398   6.107   8.960  0.0846 -0.0455 -0.2529
  178loPI    C1 2833   7.661   4.009  10.707 -0.0091  0.3501 -0.0778
  178loPI    C2 2834   7.501   3.691  10.889  0.3924  0.0334 -0.2590
  178loPI    C3 2835   7.379   4.060  10.985 -0.1150 -0.1721 -0.0792
  178loPI   PO4 2836   7.709   3.924  10.317 -0.1209 -0.1455 -0.1523
  178loPI   GL1 2837   7.632   3.822   9.968 -0.0173  0.0094  0.1074
  178loPI   GL2 2838   7.345   3.819  10.022 -0.2225 -0.0861 -0.1203
  178loPI   C1A 2839   7.593   3.730   9.581 -0.1061 -0.1993 -0.1492
  178loPI   C2A 2840   7.309   3.968   9.222 -0.3897  0.0237 -0.1605
  178loPI   C3A 2841   7.173   3.885   8.806 -0.0456  0.1060  0.4465
  178loPI   C4A 2842   6.982   3.961   8.516 -0.1395 -0.0432 -0.2034
  178loPI   C5A 2843   6.747   3.887   8.290 -0.0815 -0.0380  0.2068
  178loPI   C6A 2844   6.251   3.906   8.128  0.0487 -0.1142 -0.0838
  178loPI   C1B 2845   7.135   3.986   9.670  0.1332 -0.1164  0.1477
  178loPI   C2B 2846   6.893   4.272   9.284 -0.0082  0.4183 -0.1413
  178loPI   C3B 2847   6.772   4.396   8.897 -0.1793 -0.2330 -0.0635
  178loPI   C4B 2848   6.801   4.526   8.429  0.0958 -0.0086  0.4551
  179loPI    C1 2849  15.727   2.884  11.127  0.0146 -0.1566  0.0827
  179loPI    C2 2850  15.429   2.985  11.373 -0.0826 -0.2590  0.0081
  179loPI    C3 2851  15.651   3.269  11.202 -0.1122 -0.1833  0.0944
  179loPI   PO4 2852  15.603   2.775  10.954  0.2289 -0.1531  0.2371
  179loPI   GL1 2853  15.767   2.600  10.625  0.2927 -0.2221 -0.0793
  179loPI   GL2 2854  16.032   2.671  10.491 -0.3560  0.0164  0.1313
  179loPI   C1A 2855  15.553   2.436  10.285  0.1907  0.0004  0.1948
  179loPI   C2A 2856  15.550   2.485   9.862 -0.0634  0.2142 -0.1175
  179loPI   C3A 2857  15.613   2.618   9.397  0.1595 -0.1366  0.2347
  179loPI   C4A 2858  15.562   2.659   9.035  0.0591  0.3345  0.1788
  179loPI   C5A 2859  15.611   2.806   8.612  0.1191  0.0848  0.1157
  179loPI   C6A 2860  15.497   2.735   8.162  0.1465 -0.0878  0.2993
  179loPI   C1B 2861  16.133   2.663  10.072 -0.0345  0.1586 -0.0409
  179loPI   C2B 2862  16.065   2.573   9.659  0.0333 -0.0755 -0.3155
  179loPI   C3B 2863  16.221   2.645   9.172  0.1636  0.0258  0.1180
  179loPI   C4B 2864  16.046   2.641   8.720  0.2019  0.1000  0.1122
  180loPI    C1 2865   9.511   7.864  11.437  0.2486 -0.1284  0.0858
  180loPI    C2 2866   9.846   8.084  11.443  0.2375 -0.1148  0.2394
  180loPI    C3 2867   9.859   7.696  11.540  0.2250 -0.1374  0.1514
  180loPI   PO4 2868   9.410   7.925  11.222  0.1342 -0.1682  0.1563
  180loPI   GL1 2869   9.287   8.005  10.797 -0.1534 -0.0549  0.2096
  180loPI   GL2 2870   9.387   8.301  10.604 -0.0520  0.0523 -0.0450
  180loPI   C1A 2871   9.330   7.916  10.357 -0.0744  0.0918 -0.1364
  180loPI   C2A 2872   9.249   8.013   9.964 -0.0129 -0.1564 -0.0003
  180loPI   C3A 2873   9.253   8.008   9.457  0.0882  0.0740  0.1069
  180loPI   C4A 2874   9.279   8.091   9.014 -0.0002  0.4363 -0.0221
  180loPI   C5A 2875   9.317   8.323   8.541  0.0447 -0.0527  0.2946
  180loPI   C6A 2876   9.588   8.616   8.339  0.0958 -0.1480  0.0018
  180loPI   C1B 2877   9.307   8.519  10.228  0.0279 -0.0760 -0.0323
  180loPI   C2B 2878   9.402   8.562   9.753 -0.2732  0.1417 -0.1734
  180loPI   C3B 2879   9.423   8.535   9.349  0.1096  0.1465  0.1077
  180loPI   C4B 2880   9.493   8.520   8.978 -0.0493  0.2723 -0.1334
  181loPI    C1 2881  17.977  16.457  10.934  0.1628  0.2499 -0.0637
  181loPI    C2 2882  17.892  16.405  11.321 -0.0312  0.1181 -0.1226
  181loPI    C3 2883  17.668  16.651  11.099 -0.0458  0.0371 -0.1978
  181loPI   PO4 2884  18.197  16.552  10.842 -0.0508 -0.3805  0.2115
  181loPI   GL1 2885  18.426  16.400  10.569  0.2023 -0.1772  0.0987
  181loPI   GL2 2886  18.643  16.188  10.522 -0.0847 -0.1806 -0.0038
  181loPI   C1A 2887  18.453  16.259  10.067  0.1082  0.2640 -0.0241
  181loPI   C2A 2888  18.352  16.232   9.596 -0.1326 -0.0131 -0.0322
  181loPI   C3A 2889  18.295  16.183   9.156  0.2715  0.0031 -0.1853
  181loPI   C4A 2890  18.224  16.141   8.767  0.0577  0.0398  0.2117
  181loPI   C5A 2891  18.210  16.297   8.349  0.1448  0.0609  0.2329
  181loPI   C6A 2892  18.035  16.645   8.111 -0.3228 -0.1765 -0.0511
  181loPI   C1B 2893  18.815  15.963  10.130  0.2702 -0.0823 -0.1181
  181loPI   C2B 2894  18.667  15.849   9.699 -0.0159 -0.1394 -0.0833
  181loPI   C3B 2895  18.594  15.805   9.269 -0.0342 -0.0046 -0.1450
  181loPI   C4B 2896  18.540  15.802   8.781 -0.3228  0.0815  0.1810
  182loPI    C1 2897  17.652  11.987  11.267  0.3427  0.2793 -0.0015
  182loPI    C2 2898  18.042  12.072  11.293  0.3567  0.1668  0.1699
  182loPI    C3 2899  17.899  11.737  11.457  0.1754  0.2438  0.1714
  182loPI   PO4 2900  17.535  12.002  11.004  0.2563  0.2579  0.3422
  182loPI   GL1 2901  17.682  11.839  10.582  0.0309  0.1115 -0.0369
  182loPI   GL2 2902  17.674  11.516  10.383  0.0698 -0.0390  0.2669
  182loPI   C1A 2903  17.831  11.970  10.237 -0.0689 -0.1814  0.2133
  182loPI   C2A 2904  17.763  12.021   9.881  0.2231  0.0300  0.0373
  182loPI   C3A 2905  17.798  12.124   9.539 -0.0852  0.2360  0.1419
  182loPI   C4A 2906  17.834  12.005   9.088 -0.1868  0.1383 -0.1124
  182loPI   C5A 2907  17.880  12.092   8.668 -0.0057 -0.0098 -0.0738
  182loPI   C6A 2908  17.970  12.065   8.225 -0.1302  0.1144 -0.1478
  182loPI   C1B 2909  17.634  11.519   9.939 -0.0308  0.3124  0.0392
  182loPI   C2B 2910  17.655  11.595   9.468 -0.0358 -0.0498  0.1970
  182loPI   C3B 2911  17.710  11.524   8.985  0.0362  0.1847 -0.1223
  182loPI   C4B 2912  17.755  11.568   8.483  0.0643 -0.2015 -0.0749
  183loPI    C1 2913  17.948   3.016  10.953 -0.2275  0.0909  0.0736
  183loPI    C2 2914  17.702   2.803  11.186  0.0204 -0.1252  0.1425
  183loPI    C3 2915  18.010   3.000  11.348  0.0019 -0.0062  0.0350
  183loPI   PO4 2916  17.871   3.119  10.770  0.3221 -0.1343  0.0139
  183loPI   GL1 2917  17.744   3.166  10.299  0.0221  0.1146 -0.0051
  183loPI   GL2 2918  17.567   3.281  10.203  0.2147  0.0641 -0.3406
  183loPI   C1A 2919  17.980   3.305   9.940  0.3944 -0.1893  0.1441
  183loPI   C2A 2920  17.698   3.592   9.601 -0.1671 -0.2216  0.2972
  183loPI   C3A 2921  17.565   3.831   9.319  0.1055 -0.1726 -0.0395
  183loPI   C4A 2922  17.617   4.185   9.081 -0.1083  0.0661 -0.4108
  183loPI   C5A 2923  17.663   4.418   8.734  0.0831 -0.1321  0.0688
  183loPI   C6A 2924  17.429   4.428   8.383  0.4447  0.1713  0.2787
  183loPI   C1B 2925  17.387   3.276   9.813 -0.0572 -0.1910 -0.0818
  183loPI   C2B 2926  17.305   3.253   9.383 -0.0526 -0.3025 -0.1685
  183loPI   C3B 2927  17.073   3.238   8.983 -0.0151  0.0393 -0.0797
  183loPI   C4B 2928  16.872   3.266   8.636 -0.3175  0.2103  0.0047
  184loPI    C1 2929   0.575   9.167  10.793  0.1589  0.0078 -0.1574
  184loPI    C2 2930   0.641   9.561  10.783 -0.1380  0.0706  0.1655
  184loPI    C3 2931   0.913   9.309  10.634  0.0131  0.3994 -0.1290
  184loPI   PO4 2932   0.344   9.168  10.691  0.0513  0.2036  0.0656
  184loPI   GL1 2933   0.291   9.132  10.283 -0.2117  0.1118 -0.1378
  184loPI   GL2 2934   0.549   9.230  10.238  0.2304  0.0559 -0.1749
  184loPI   C1A 2935   0.126   8.845   9.996  0.1200  0.1328  0.2835
  184loPI   C2A 2936   0.065   8.908   9.643  0.1817 -0.0531  0.3187
  184loPI   C3A 2937   0.006   8.972   9.185 -0.0068  0.2723 -0.1109
  184loPI   C4A 2938   0.128   8.942   8.787  0.0376 -0.0658  0.3500
  184loPI   C5A 2939   0.123   8.678   8.445 -0.0485  0.3241 -0.0210
  184loPI   C6A 2940  -0.208   8.464   8.293  0.0399  0.0487  0.0058
  184loPI   C1B 2941   0.540   9.046   9.833  0.1133 -0.2440  0.4213
  184loPI   C2B 2942   0.460   9.034   9.336  0.0919 -0.2825 -0.1614
  184loPI   C3B 2943   0.610   8.937   8.893 -0.0531 -0.2454  0.1725
  184loPI   C4B 2944   0.508   9.052   8.443  0.0001 -0.0905  0.0447
  185loPI    C1 2945   6.399   9.095  10.751  0.0208  0.1701  0.1832
  185loPI    C2 2946   6.747   8.925  10.852  0.0761  0.2669  0.1565
  185loPI    C3 2947   6.592   9.215  11.080  0.0933  0.3355  0.0816
  185loPI   PO4 2948   6.446   9.151  10.535  0.2701  0.1211 -0.1844
  185loPI   GL1 2949   6.445   9.361  10.234  0.4518 -0.0629 -0.2411
  185loPI   GL2 2950   6.448   9.625  10.180  0.0420  0.0961 -0.1506
  185loPI   C1A 2951   6.687   9.314   9.866 -0.0442  0.0568  0.3374
  185loPI   C2A 2952   6.817   9.395   9.463 -0.0397 -0.1325 -0.2384
  185loPI   C3A 2953   6.725   9.504   9.071  0.2468 -0.1651 -0.0929
  185loPI   C4A 2954   6.791   9.592   8.699  0.1331 -0.0722 -0.0233
  185loPI   C5A 2955   6.647   9.685   8.226 -0.0362 -0.0241 -0.1407
  185loPI   C6A 2956   6.529   9.845   7.987  0.0670  0.0858 -0.0705
  185loPI   C1B 2957   6.500   9.796   9.701  0.0792 -0.1499  0.0264
  185loPI   C2B 2958   6.437  10.002   9.364 -0.2300 -0.1417 -0.2443
  185loPI   C3B 2959   6.414  10.006   8.895  0.1833 -0.2141  0.0020
  185loPI   C4B 2960   6.311  10.080   8.508 -0.0695 -0.0555  0.0146
  186loPI    C1 2961  16.195   3.054  11.120  0.0892 -0.0071 -0.0298
  186loPI    C2 2962  16.484   3.265  10.941  0.1967 -0.1844 -0.0674
  186loPI    C3 2963  16.530   3.144  11.319  0.1012 -0.0735 -0.0199
  186loPI   PO4 2964  16.048   3.069  10.814 -0.1525 -0.0129 -0.0491
  186loPI   GL1 2965  15.744   3.116  10.594 -0.0094 -0.0018 -0.2279
  186loPI   GL2 2966  15.767   3.411  10.390 -0.0204 -0.2962  0.0922
  186loPI   C1A 2967  15.625   2.958  10.173 -0.1157  0.0166 -0.0752
  186loPI   C2A 2968  15.742   2.976   9.706  0.2448 -0.0055  0.1830
  186loPI   C3A 2969  15.767   3.104   9.243 -0.3161  0.2222  0.1114
  186loPI   C4A 2970  15.889   3.120   8.812 -0.0281  0.0146 -0.0638
  186loPI   C5A 2971  16.032   2.988   8.309  0.1533  0.3350 -0.0594
  186loPI   C6A 2972  15.880   2.976   7.880  0.4023 -0.1281  0.0328
  186loPI   C1B 2973  15.791   3.767   9.998 -0.0030 -0.0693 -0.0059
  186loPI   C2B 2974  15.756   4.012   9.580  0.0407 -0.0936 -0.2050
  186loPI   C3B 2975  15.692   4.123   9.153  0.1571 -0.1684 -0.2157
  186loPI   C4B 2976  15.520   4.099   8.704 -0.0161  0.2029  0.1512
  187loPI    C1 2977  10.936   4.555  10.925 -0.0158 -0.0287  0.1705
  187loPI    C2 2978  10.635   4.311  11.023  0.0547 -0.2322 -0.1068
  187loPI    C3 2979  10.916   4.400  11.293 -0.1631 -0.1708  0.1038
  187loPI   PO4 2980  11.095   4.411  10.692  0.1756  0.1792 -0.5037
  187loPI   GL1 2981  11.307   4.421  10.329 -0.0482 -0.2123  0.0453
  187loPI   GL2 2982  11.601   4.456  10.320 -0.0209  0.0860 -0.1024
  187loPI   C1A 2983  11.287   4.203   9.891  0.2535  0.0499 -0.0471
  187loPI   C2A 2984  11.267   4.112   9.474 -0.1884 -0.1051  0.0173
  187loPI   C3A 2985  11.286   4.177   9.046 -0.2010  0.3091 -0.2292
  187loPI   C4A 2986  11.353   4.220   8.694 -0.0766  0.0089  0.1432
  187loPI   C5A 2987  11.485   4.128   8.251  0.2597  0.1328  0.2290
  187loPI   C6A 2988  11.615   4.108   7.916 -0.1009  0.0845  0.1440
  187loPI   C1B 2989  11.725   4.488   9.895 -0.1044  0.3372 -0.0188
  187loPI   C2B 2990  11.696   4.340   9.445 -0.1108 -0.1490  0.1708
  187loPI   C3B 2991  11.789   4.267   9.135 -0.2044 -0.1314  0.2304
  187loPI   C4B 2992  11.950   4.301   8.666 -0.2456 -0.0930 -0.1934
  188loPI    C1 2993   9.202   1.435  10.431  0.0019  0.1221 -0.0674
  188loPI    C2 2994   8.998   1.129  10.588 -0.0035  0.0363 -0.2391
  188loPI    C3 2995   9.003   1.483  10.775  0.1306 -0.1103  0.0416
  188loPI   PO4 2996   9.423   1.369  10.438  0.0442  0.3992  0.2369
  188loPI   GL1 2997   9.776   1.548  10.166 -0.3049 -0.0147  0.1613
  188loPI   GL2 2998   9.557   1.722  10.027  0.0680  0.0488  0.2911
  188loPI   C1A 2999   9.993   1.485   9.769 -0.3818  0.1596 -0.1537
  188loPI   C2A 3000   9.995   1.511   9.333  0.0512 -0.0501 -0.2470
  188loPI   C3A 3001  10.151   1.386   8.997  0.3177  0.0437 -0.0523
  188loPI   C4A 3002  10.101   1.419   8.636 -0.2078  0.1313  0.0660
  188loPI   C5A 3003  10.088   1.769   8.443 -0.1397  0.0598  0.2837
  188loPI   C6A 3004  10.229   2.076   8.205  0.1307 -0.3736 -0.3861
  188loPI   C1B 3005   9.564   1.678   9.633  0.0665 -0.0109 -0.0180
  188loPI   C2B 3006   9.568   1.727   9.206  0.1456 -0.2420  0.0174
  188loPI   C3B 3007   9.654   1.708   8.754  0.1794  0.2587 -0.1005
  188loPI   C4B 3008   9.619   1.565   8.283 -0.1600  0.0041  0.3440
  189loPI    C1 3009  13.288   5.581  10.851  0.3759 -0.1877  0.0623
  189loPI    C2 3010  13.259   5.484  10.463  0.0606 -0.1645  0.0775
  189loPI    C3 3011  13.154   5.219  10.744 -0.2059 -0.0039  0.1333
  189loPI   PO4 3012  13.179   5.883  10.797  0.2889 -0.1465  0.3708
  189loPI   GL1 3013  13.101   6.061  10.415  0.1998 -0.2673 -0.0560
  189loPI   GL2 3014  12.913   6.109  10.281  0.0065  0.1012 -0.1103
  189loPI   C1A 3015  13.250   5.792  10.107 -0.3862 -0.1587 -0.0502
  189loPI   C2A 3016  13.276   5.715   9.750 -0.1458 -0.0220 -0.1861
  189loPI   C3A 3017  13.292   5.813   9.330 -0.0362  0.0825 -0.1793
  189loPI   C4A 3018  13.316   5.831   8.927  0.4669 -0.1214  0.2608
  189loPI   C5A 3019  13.295   5.951   8.597 -0.0960 -0.0400  0.0638
  189loPI   C6A 3020  13.327   6.229   8.272 -0.2120 -0.1714 -0.3709
  189loPI   C1B 3021  12.971   6.109   9.824 -0.0908 -0.2648  0.0661
  189loPI   C2B 3022  12.981   6.163   9.410 -0.1516 -0.0417 -0.2303
  189loPI   C3B 3023  13.027   6.258   9.048 -0.1636 -0.1453  0.1918
  189loPI   C4B 3024  12.949   6.293   8.641 -0.0375 -0.1642  0.0673
  190loPI    C1 3025   3.626   3.799  10.410  0.0839 -0.0344 -0.1252
  190loPI    C2 3026   3.545   4.073  10.690  0.1569 -0.2873  0.1487
  190loPI    C3 3027   3.268   3.977  10.418  0.0824 -0.0442  0.1366
  190loPI   PO4 3028   3.801   3.560  10.562  0.0183  0.1463  0.1366
  190loPI   GL1 3029   3.888   3.161  10.264 -0.0422  0.0075 -0.0248
  190loPI   GL2 3030   4.306   3.259  10.244  0.0497 -0.2400  0.0443
  190loPI   C1A 3031   3.839   3.143   9.800  0.0123 -0.0492  0.1405
  190loPI   C2A 3032   3.849   3.042   9.505 -0.4127 -0.0005  0.0823
  190loPI   C3A 3033   3.800   3.134   9.061  0.1665 -0.1088 -0.0941
  190loPI   C4A 3034   3.835   3.169   8.683  0.5613  0.4023  0.0838
  190loPI   C5A 3035   3.906   3.197   8.326  0.0221  0.4052  0.2274
  190loPI   C6A 3036   3.732   3.070   7.930  0.3254  0.1298 -0.0508
  190loPI   C1B 3037   4.317   3.221   9.838 -0.1511 -0.0898 -0.1198
  190loPI   C2B 3038   4.396   3.016   9.502  0.2399  0.0821 -0.0502
  190loPI   C3B 3039   4.323   3.004   9.065 -0.0684  0.3205 -0.2323
  190loPI   C4B 3040   4.346   3.063   8.640  0.1774  0.1222 -0.0761
  191loPI    C1 3041  15.643  10.608  11.020  0.1411 -0.0089 -0.0391
  191loPI    C2 3042  15.622  10.642  11.418  0.0055 -0.0862 -0.0391
  191loPI    C3 3043  15.784  10.316  11.253 -0.0353 -0.1022 -0.0477
  191loPI   PO4 3044  15.465  10.816  10.914  0.2288 -0.1991  0.0205
  191loPI   GL1 3045  15.234  10.929  10.450  0.1353  0.2457 -0.0658
  191loPI   GL2 3046  15.495  10.849  10.425  0.0129  0.4449  0.0450
  191loPI   C1A 3047  15.267  10.978   9.989 -0.0106 -0.0839  0.0741
  191loPI   C2A 3048  15.281  10.907   9.528  0.2152  0.0198  0.2710
  191loPI   C3A 3049  15.298  10.904   9.087 -0.3530  0.2078 -0.0986
  191loPI   C4A 3050  15.246  10.815   8.698 -0.3182  0.2148  0.1497
  191loPI   C5A 3051  15.000  10.994   8.493  0.0392  0.2645 -0.1087
  191loPI   C6A 3052  14.571  11.270   8.323  0.1444 -0.0103  0.1907
  191loPI   C1B 3053  15.778  10.919  10.134 -0.1217 -0.1940  0.2283
  191loPI   C2B 3054  15.705  11.107   9.734  0.0764 -0.0209 -0.1790
  191loPI   C3B 3055  15.773  11.019   9.252  0.1652  0.2387 -0.1125
  191loPI   C4B 3056  15.760  11.062   8.852 -0.1443  0.0919 -0.2242
  192loPI    C1 3057   7.995  10.914  11.338  0.0439  0.2429 -0.1399
  192loPI    C2 3058   8.021  11.278  11.501 -0.2493  0.2728 -0.1535
  192loPI    C3 3059   7.781  11.003  11.664  0.2474 -0.0400  0.0761
  192loPI   PO4 3060   8.052  11.013  11.013 -0.2108 -0.0596 -0.1726
  192loPI   GL1 3061   8.036  10.866  10.634  0.1931 -0.0741 -0.1082
  192loPI   GL2 3062   8.218  10.963  10.398  0.1363  0.2646 -0.1861
  192loPI   C1A 3063   7.796  10.856  10.216  0.0019 -0.0658  0.0221
  192loPI   C2A 3064   7.846  10.867   9.755 -0.1003 -0.2603  0.2084
  192loPI   C3A 3065   7.939  10.746   9.372 -0.1180 -0.2228 -0.1602
  192loPI   C4A 3066   7.991  10.768   8.930  0.0935 -0.1389 -0.1508
  192loPI   C5A 3067   8.316  10.631   8.642 -0.2418  0.2804  0.1524
  192loPI   C6A 3068   8.452  10.791   8.259  0.2707 -0.2856  0.2395
  192loPI   C1B 3069   8.308  10.955   9.991 -0.0675  0.1822 -0.0903
  192loPI   C2B 3070   8.347  10.925   9.626  0.1525 -0.1195 -0.1100
  192loPI   C3B 3071   8.367  10.921   9.193  0.1138  0.0503  0.0683
  192loPI   C4B 3072   8.572  11.064   8.752 -0.2551  0.2306  0.1930
  193loPI    C1 3073   7.747  14.748  11.084  0.0268 -0.0625 -0.1163
  193loPI    C2 3074   7.489  14.580  11.340  0.1018 -0.1668 -0.1085
  193loPI    C3 3075   7.779  14.360  11.174  0.3016 -0.0093  0.0264
  193loPI   PO4 3076   7.507  14.884  10.889 -0.2103 -0.3240 -0.0782
  193loPI   GL1 3077   7.393  14.846  10.529  0.1363  0.5278  0.1623
  193loPI   GL2 3078   7.669  14.678  10.326  0.0582 -0.1991 -0.0516
  193loPI   C1A 3079   7.295  15.118  10.202 -0.2952  0.2058 -0.0959
  193loPI   C2A 3080   7.126  15.074   9.825  0.2250  0.3485  0.1850
  193loPI   C3A 3081   7.118  15.030   9.385  0.1023  0.0452  0.4565
  193loPI   C4A 3082   7.279  15.083   8.946  0.1043 -0.2881  0.1218
  193loPI   C5A 3083   7.134  15.097   8.492 -0.0062  0.0380  0.0252
  193loPI   C6A 3084   7.292  15.272   8.085 -0.0164 -0.1105 -0.0688
  193loPI   C1B 3085   7.617  14.849   9.981  0.1472  0.0378  0.0265
  193loPI   C2B 3086   7.606  14.989   9.611  0.1729  0.0670 -0.1547
  193loPI   C3B 3087   7.661  14.908   9.241  0.1578  0.3839  0.0823
  193loPI   C4B 3088   7.718  14.869   8.871  0.0493  0.2062 -0.1457
  194loPI    C1 3089   8.162  17.128  10.802  0.0528 -0.1076 -0.0748
  194loPI    C2 3090   7.908  16.836  10.703  0.2227 -0.2429 -0.1168
  194loPI    C3 3091   8.114  16.814  11.045 -0.0946  0.0472  0.0996
  194loPI   PO4 3092   8.296  17.117  10.507  0.3294 -0.0165  0.0355
  194loPI   GL1 3093   8.276  16.838  10.247 -0.0501  0.1336  0.1178
  194loPI   GL2 3094   8.161  16.573  10.251  0.0694  0.4220  0.0395
  194loPI   C1A 3095   8.137  16.939   9.944 -0.1269 -0.1293 -0.3291
  194loPI   C2A 3096   7.949  16.723   9.495  0.0231  0.0302  0.0973
  194loPI   C3A 3097   7.974  16.631   9.010 -0.0501 -0.0588  0.0830
  194loPI   C4A 3098   7.746  16.686   8.661 -0.0259  0.0653 -0.0760
  194loPI   C5A 3099   7.662  16.678   8.258  0.1187  0.0196  0.2278
  194loPI   C6A 3100   7.614  16.763   7.842 -0.0103 -0.0945 -0.1433
  194loPI   C1B 3101   8.038  16.308   9.912  0.1635 -0.2437  0.1968
  194loPI   C2B 3102   7.954  16.214   9.489  0.1579 -0.1704 -0.1318
  194loPI   C3B 3103   8.028  16.146   9.067  0.0454 -0.1876  0.0120
  194loPI   C4B 3104   7.999  16.205   8.643 -0.1884 -0.2388  0.2760
  195loPI    C1 3105  17.741   9.382  10.722 -0.0327 -0.1965  0.1285
  195loPI    C2 3106  17.668   9.760  10.829  0.1214 -0.1615  0.1115
  195loPI    C3 3107  17.488   9.460  11.022  0.0754 -0.0837  0.1910
  195loPI   PO4 3108  18.000   9.410  10.748 -0.2513 -0.0361 -0.0994
  195loPI   GL1 3109  18.157   9.769  10.604  0.2606  0.3472  0.2639
  195loPI   GL2 3110  18.390   9.623  10.528  0.0284 -0.1751 -0.0400
  195loPI   C1A 3111  18.081   9.903  10.228 -0.2210 -0.1380 -0.2079
  195loPI   C2A 3112  18.090   9.828   9.848  0.1925  0.4259  0.1348
  195loPI   C3A 3113  18.086   9.819   9.439  0.1573  0.0893 -0.4041
  195loPI   C4A 3114  18.134   9.844   8.973 -0.1529 -0.1512 -0.0242
  195loPI   C5A 3115  18.225   9.782   8.543  0.1689 -0.0638 -0.3155
  195loPI   C6A 3116  18.608   9.561   8.314 -0.3696 -0.0176 -0.0466
  195loPI   C1B 3117  18.401   9.536  10.058 -0.2162 -0.1020 -0.0136
  195loPI   C2B 3118  18.398   9.427   9.653 -0.1451  0.0715 -0.1276
  195loPI   C3B 3119  18.372   9.462   9.191  0.1311 -0.1029  0.1194
  195loPI   C4B 3120  18.502   9.401   8.771 -0.0600 -0.1612  0.2213
  196loPI    C1 3121   5.487   9.422  10.657  0.2015 -0.0670  0.1626
  196loPI    C2 3122   5.365   9.785  10.543  0.0647 -0.2327 -0.2386
  196loPI    C3 3123   5.307   9.663  10.920 -0.0669  0.0839 -0.1527
  196loPI   PO4 3124   5.528   9.323  10.465 -0.0628  0.0306 -0.0994
  196loPI   GL1 3125   5.583   9.180  10.177  0.1046  0.2105  0.0890
  196loPI   GL2 3126   5.591   8.891  10.028  0.2083 -0.3136  0.0138
  196loPI   C1A 3127   5.320   9.256   9.791  0.0267  0.0423 -0.0518
  196loPI   C2A 3128   5.352   8.973   9.463 -0.0816  0.0295  0.2933
  196loPI   C3A 3129   5.363   8.867   9.080  0.0097  0.1394 -0.0592
  196loPI   C4A 3130   5.333   9.013   8.698  0.0279  0.0115  0.1169
  196loPI   C5A 3131   5.331   9.202   8.268 -0.0808 -0.2611 -0.0687
  196loPI   C6A 3132   5.362   9.315   7.729 -0.1228  0.3735  0.2926
  196loPI   C1B 3133   5.795   9.060   9.652 -0.0117 -0.2077  0.0349
  196loPI   C2B 3134   5.865   9.041   9.155  0.1086 -0.0182  0.1935
  196loPI   C3B 3135   6.211   9.047   8.738 -0.1348 -0.1618 -0.0439
  196loPI   C4B 3136   6.214   8.756   8.505  0.0843 -0.0287 -0.0145
  197loPI    C1 3137   0.275   0.292  10.740 -0.0170  0.0372 -0.1023
  197loPI    C2 3138   0.019   0.479  10.983  0.0960  0.0916 -0.0244
  197loPI    C3 3139   0.310   0.251  11.136  0.0891  0.0231 -0.1126
  197loPI   PO4 3140   0.348   0.491  10.546  0.1779 -0.1286 -0.1942
  197loPI   GL1 3141   0.249   0.811  10.265 -0.0669  0.1523  0.0935
  197loPI   GL2 3142   0.127   0.596  10.077 -0.1789  0.0114 -0.3280
  197loPI   C1A 3143   0.466   1.066   9.897  0.3381  0.0609 -0.0376
  197loPI   C2A 3144   0.325   1.274   9.472 -0.1525  0.2095  0.1145
  197loPI   C3A 3145   0.344   1.296   8.971  0.0388 -0.1030  0.1712
  197loPI   C4A 3146   0.227   1.277   8.597  0.1293  0.1031 -0.0160
  197loPI   C5A 3147   0.054   1.481   8.184  0.2473 -0.0452  0.3495
  197loPI   C6A 3148  -0.349   1.579   8.117 -0.0427 -0.2659 -0.1346
  197loPI   C1B 3149   0.172   0.718   9.665 -0.1181  0.2714  0.1472
  197loPI   C2B 3150   0.104   0.813   9.237 -0.4705 -0.0391 -0.0805
  197loPI   C3B 3151   0.159   0.832   8.813 -0.0165  0.0287 -0.0170
  197loPI   C4B 3152   0.109   0.823   8.366  0.2410 -0.2240 -0.0942
  198loPI    C1 3153   2.338  11.875  11.178  0.3930 -0.0599  0.0666
  198loPI    C2 3154   2.457  11.597  11.440  0.0235 -0.0251  0.2785
  198loPI    C3 3155   2.429  11.980  11.553 -0.0278  0.0082  0.1553
  198loPI   PO4 3156   2.342  11.836  10.922  0.0843 -0.1520  0.2376
  198loPI   GL1 3157   2.157  11.887  10.565  0.2163  0.0257 -0.0519
  198loPI   GL2 3158   1.784  11.752  10.516  0.0478 -0.0521 -0.1000
  198loPI   C1A 3159   2.229  11.912  10.209 -0.1532  0.1350 -0.0790
  198loPI   C2A 3160   2.323  12.012   9.806 -0.0883 -0.1230 -0.0871
  198loPI   C3A 3161   2.354  11.871   9.282  0.0505  0.1046  0.1761
  198loPI   C4A 3162   2.481  11.880   8.938 -0.0050 -0.1606  0.0160
  198loPI   C5A 3163   2.302  12.009   8.496  0.1207 -0.1958 -0.1229
  198loPI   C6A 3164   2.497  12.197   8.099 -0.0472 -0.1076 -0.1891
  198loPI   C1B 3165   1.782  11.703  10.107  0.0433 -0.2502  0.0831
  198loPI   C2B 3166   1.838  11.803   9.753 -0.0283  0.0958  0.0984
  198loPI   C3B 3167   1.906  11.744   9.245  0.0369  0.0090  0.0369
  198loPI   C4B 3168   2.064  11.694   8.910  0.0353  0.0017  0.1222
  199loPI    C1 3169   3.437  14.267  11.161 -0.0138  0.0485  0.1312
  199loPI    C2 3170   3.223  14.435  11.454 -0.1437  0.1163 -0.0014
  199loPI    C3 3171   3.577  14.267  11.536 -0.1494  0.1919  0.1825
  199loPI   PO4 3172   3.332  14.098  11.023  0.1159  0.1647 -0.2882
  199loPI   GL1 3173   3.389  14.162  10.487  0.0846 -0.2578  0.2365
  199loPI   GL2 3174   3.260  13.801  10.541 -0.0359 -0.1363  0.2400
  199loPI   C1A 3175   3.525  14.318  10.056 -0.2665  0.0509 -0.2720
  199loPI   C2A 3176   3.452  14.426   9.632 -0.0547  0.1503  0.0304
  199loPI   C3A 3177   3.696  14.464   9.249  0.3809 -0.1360 -0.2240
  199loPI   C4A 3178   3.728  14.260   8.851  0.1701  0.0566 -0.0765
  199loPI   C5A 3179   3.760  14.366   8.391 -0.0105  0.1338 -0.0996
  199loPI   C6A 3180   3.892  14.438   7.966 -0.0067 -0.0291 -0.0598
  199loPI   C1B 3181   3.326  13.827  10.090  0.1144 -0.0829  0.2392
  199loPI   C2B 3182   3.415  13.918   9.638  0.1359  0.1793 -0.2073
  199loPI   C3B 3183   3.530  13.984   9.252 -0.0019  0.3016  0.0096
  199loPI   C4B 3184   3.554  13.843   8.782  0.0603 -0.0045  0.0990
  200loPI    C1 3185  16.309  17.947  11.339  0.2333 -0.0422 -0.1288
  200loPI    C2 3186  16.378  17.557  11.282 -0.0574 -0.1137 -0.0109
  200loPI    C3 3187  16.207  17.683  11.621 -0.3767  0.0658 -0.2336
  200loPI   PO4 3188  16.564  18.083  11.166  0.2800 -0.1286  0.0043
  200loPI   GL1 3189  16.676  18.028  10.595 -0.0912 -0.2953 -0.0415
  200loPI   GL2 3190  16.974  17.916  10.383  0.1060  0.4183  0.1689
  200loPI   C1A 3191  16.689  18.189  10.143  0.1747 -0.2458  0.1445
  200loPI   C2A 3192  16.659  18.177   9.743 -0.0692  0.1572  0.0498
  200loPI   C3A 3193  16.597  18.252   9.387 -0.1759  0.0434 -0.0140
  200loPI   C4A 3194  16.598  18.314   9.021  0.1049  0.2435  0.4481
  200loPI   C5A 3195  16.575  18.249   8.531 -0.1608 -0.0025  0.0955
  200loPI   C6A 3196  16.504  18.418   8.137  0.0580  0.2886  0.1969
  200loPI   C1B 3197  16.943  17.789   9.997 -0.2956  0.0582 -0.4023
  200loPI   C2B 3198  17.006  17.818   9.620  0.1797  0.2269  0.1028
  200loPI   C3B 3199  16.974  17.982   9.268  0.3453 -0.2709  0.1630
  200loPI   C4B 3200  16.844  17.874   8.989  0.2929 -0.1569  0.0554
  201loPI    C1 3201   8.209  12.543  10.803 -0.1079 -0.0036 -0.0645
  201loPI    C2 3202   8.224  12.666  11.183 -0.0183 -0.0814 -0.0425
  201loPI    C3 3203   8.543  12.711  10.945  0.0617 -0.3864  0.0024
  201loPI   PO4 3204   8.026  12.632  10.743 -0.1455 -0.1545 -0.1637
  201loPI   GL1 3205   7.824  12.552  10.476  0.2080 -0.1835 -0.0107
  201loPI   GL2 3206   7.946  12.246  10.473 -0.0468 -0.0450 -0.2068
  201loPI   C1A 3207   7.824  12.867  10.127 -0.3449  0.1893  0.0982
  201loPI   C2A 3208   7.822  12.894   9.725  0.0864  0.1975  0.3176
  201loPI   C3A 3209   8.011  12.627   9.403  0.0775  0.1113 -0.0244
  201loPI   C4A 3210   8.276  12.539   9.111  0.1333 -0.2169  0.0544
  201loPI   C5A 3211   8.461  12.224   8.730 -0.0678  0.2602 -0.0311
  201loPI   C6A 3212   8.636  12.108   8.313 -0.1477  0.0975 -0.1891
  201loPI   C1B 3213   8.301  12.115  10.155 -0.0195 -0.1725  0.0783
  201loPI   C2B 3214   8.405  11.741   9.945 -0.1102  0.0005  0.2773
  201loPI   C3B 3215   8.543  11.497   9.615  0.0137  0.1707  0.0809
  201loPI   C4B 3216   8.534  11.501   9.187  0.2190  0.0703  0.4961
  202loPI    C1 3217   1.118  14.629  11.225 -0.0429 -0.0017 -0.0748
  202loPI    C2 3218   0.809  14.519  10.995 -0.0805  0.0232 -0.0362
  202loPI    C3 3219   0.909  14.299  11.314 -0.0164 -0.0220 -0.0873
  202loPI   PO4 3220   1.301  14.689  10.873  0.0313 -0.1478 -0.1742
  202loPI   GL1 3221   1.216  14.746  10.404  0.0245 -0.1161 -0.0849
  202loPI   GL2 3222   1.049  14.506  10.453  0.0278 -0.0133  0.1394
  202loPI   C1A 3223   1.465  14.727  10.064  0.0292 -0.2097  0.0317
  202loPI   C2A 3224   1.454  14.806   9.651 -0.1381 -0.0680  0.0135
  202loPI   C3A 3225   1.427  14.711   9.214  0.2569  0.1350  0.1840
  202loPI   C4A 3226   1.374  14.748   8.780  0.0013  0.2065 -0.0786
  202loPI   C5A 3227   1.220  14.654   8.334  0.1857 -0.0663 -0.1590
  202loPI   C6A 3228   1.170  14.255   8.189  0.0911 -0.3029 -0.1700
  202loPI   C1B 3229   0.910  14.678  10.020  0.0305  0.0938  0.1233
  202loPI   C2B 3230   0.863  14.699   9.550  0.2348 -0.0498 -0.0041
  202loPI   C3B 3231   0.982  14.578   9.090  0.2513 -0.1939  0.0720
  202loPI   C4B 3232   0.807  14.514   8.665  0.2095 -0.1687  0.1339
  203loPI    C1 3233   2.258   1.462  10.685 -0.0843  0.0629 -0.1083
  203loPI    C2 3234   1.936   1.645  10.534 -0.2279 -0.0502  0.0574
  203loPI    C3 3235   1.965   1.583  10.928 -0.0818 -0.1929  0.0255
  203loPI   PO4 3236   2.285   1.199  10.506  0.0090 -0.2742  0.0541
  203loPI   GL1 3237   2.611   1.100  10.164  0.1621 -0.0774 -0.1462
  203loPI   GL2 3238   2.464   0.856  10.168  0.1335  0.0200  0.0443
  203loPI   C1A 3239   2.576   1.378   9.824 -0.2404 -0.1165 -0.0632
  203loPI   C2A 3240   2.236   1.382   9.516  0.0198  0.0276  0.4040
  203loPI   C3A 3241   2.160   1.205   9.085 -0.0180  0.1891  0.4241
  203loPI   C4A 3242   2.037   1.154   8.649 -0.3256  0.1093 -0.4016
  203loPI   C5A 3243   1.921   0.941   8.208 -0.1589  0.0726  0.3373
  203loPI   C6A 3244   1.986   0.480   8.084 -0.1916  0.4580 -0.2019
  203loPI   C1B 3245   2.479   0.867   9.659  0.2425 -0.4161 -0.1892
  203loPI   C2B 3246   2.392   0.755   9.229  0.2094 -0.1977  0.1676
  203loPI   C3B 3247   2.232   0.702   8.844 -0.0551 -0.1936 -0.1228
  203loPI   C4B 3248   1.944   0.551   8.611 -0.0382  0.0309  0.1300
  204loPI    C1 3249   2.645  18.013  10.398 -0.2772  0.1830  0.0851
  204loPI    C2 3250   2.622  18.161  10.769 -0.1513 -0.0032  0.1683
  204loPI    C3 3251   2.952  17.970  10.650 -0.1987  0.0390 -0.0342
  204loPI   PO4 3252   2.653  18.156  10.219 -0.1607 -0.4081  0.1850
  204loPI   GL1 3253   2.799  18.075   9.787  0.0865 -0.1208 -0.1319
  204loPI   GL2 3254   3.136  18.312   9.836 -0.0786 -0.0804  0.1546
  204loPI   C1A 3255   2.787  18.176   9.346  0.3748  0.0111 -0.1946
  204loPI   C2A 3256   2.916  18.263   8.926  0.1120  0.1314 -0.3213
  204loPI   C3A 3257   3.191  18.538   8.783  0.0239 -0.1930 -0.2225
  204loPI   C4A 3258   3.450  18.737   8.556  0.0161 -0.3934 -0.0125
  204loPI   C5A 3259   3.727  18.630   8.304  0.0715  0.0944  0.0308
  204loPI   C6A 3260   4.194  18.494   8.158  0.6321 -0.0355 -0.0608
  204loPI   C1B 3261   3.200  18.402   9.368 -0.1497  0.0555  0.1237
  204loPI   C2B 3262   3.547  18.504   9.092 -0.1387  0.3190  0.0623
  204loPI   C3B 3263   3.667  18.209   8.692  0.1785 -0.0661 -0.1438
  204loPI   C4B 3264   3.574  18.158   8.274 -0.0141 -0.1538  0.0058
  205loPI    C1 3265   4.552   9.196  10.662 -0.0841  0.2009 -0.0819
  205loPI    C2 3266   4.210   9.070  10.826  0.0506 -0.0110  0.0411
  205loPI    C3 3267   4.534   9.123  11.054  0.1395  0.0504 -0.0979
  205loPI   PO4 3268   4.414   9.442  10.469 -0.3417 -0.1811 -0.1576
  205loPI   GL1 3269   4.192   9.692  10.327 -0.1425  0.2125  0.0818
  205loPI   GL2 3270   3.913   9.822  10.136  0.1090 -0.1722 -0.2090
  205loPI   C1A 3271   4.322   9.716   9.889  0.1131  0.1761 -0.1956
  205loPI   C2A 3272   4.263   9.721   9.413  0.1496  0.0223  0.1541
  205loPI   C3A 3273   4.357   9.630   8.979  0.0694  0.1124 -0.0417
  205loPI   C4A 3274   4.646   9.687   8.591 -0.1240  0.0153 -0.4171
  205loPI   C5A 3275   4.856   9.306   8.334  0.1284 -0.1407 -0.0874
  205loPI   C6A 3276   4.941   9.045   7.947 -0.3622  0.3521  0.1124
  205loPI   C1B 3277   3.751   9.691   9.778 -0.1198 -0.0503 -0.0456
  205loPI   C2B 3278   3.907   9.372   9.533 -0.1254 -0.1699  0.0665
  205loPI   C3B 3279   3.937   9.310   9.051  0.1031 -0.0094  0.2042
  205loPI   C4B 3280   3.945   9.354   8.586 -0.0196 -0.1862 -0.0564
  206loPI    C1 3281   6.104   3.582  10.732 -0.2054  0.0914 -0.0833
  206loPI    C2 3282   6.084   3.963  10.854  0.0546  0.1133 -0.1031
  206loPI    C3 3283   6.246   3.685  11.091  0.0555  0.0532 -0.1738
  206loPI   PO4 3284   6.209   3.607  10.443  0.1875 -0.1644 -0.0437
  206loPI   GL1 3285   5.964   3.767  10.016  0.0676  0.2495  0.0466
  206loPI   GL2 3286   5.712   3.932   9.989 -0.0034  0.0857  0.1835
  206loPI   C1A 3287   6.124   3.852   9.677 -0.2307  0.2689 -0.2041
  206loPI   C2A 3288   6.089   3.802   9.321  0.0283 -0.0054  0.0608
  206loPI   C3A 3289   6.007   3.706   8.839 -0.0847  0.0208 -0.0297
  206loPI   C4A 3290   5.975   3.625   8.406 -0.0114 -0.0866 -0.2761
  206loPI   C5A 3291   6.013   3.393   8.000 -0.2325 -0.0521 -0.0287
  206loPI   C6A 3292   6.394   3.191   7.770 -0.0285  0.2827 -0.1423
  206loPI   C1B 3293   5.667   3.918   9.554 -0.1137 -0.1723 -0.1757
  206loPI   C2B 3294   5.540   3.764   9.185 -0.3444  0.1406 -0.1446
  206loPI   C3B 3295   5.428   3.714   8.717 -0.0542 -0.1594 -0.0998
  206loPI   C4B 3296   5.412   3.749   8.313 -0.0664  0.0525 -0.2973
  207loPI    C1 3297  16.754   4.415  10.953 -0.1717 -0.2002  0.0816
  207loPI    C2 3298  16.415   4.453  11.163 -0.2667 -0.2086 -0.0690
  207loPI    C3 3299  16.769   4.500  11.344 -0.3543  0.1805  0.0105
  207loPI   PO4 3300  16.745   4.612  10.739 -0.0224  0.2543 -0.0666
  207loPI   GL1 3301  16.698   4.735  10.303 -0.0318  0.2809 -0.1207
  207loPI   GL2 3302  16.722   4.338  10.139 -0.0744  0.3062 -0.0521
  207loPI   C1A 3303  16.850   4.821   9.822  0.0274  0.0243 -0.3793
  207loPI   C2A 3304  17.005   4.881   9.416 -0.4189 -0.2050 -0.4416
  207loPI   C3A 3305  17.303   4.992   9.161  0.0503 -0.1201  0.0405
  207loPI   C4A 3306  17.425   4.923   8.728 -0.0049 -0.2752 -0.1320
  207loPI   C5A 3307  17.651   5.267   8.519  0.3163 -0.1758  0.0027
  207loPI   C6A 3308  17.986   5.211   8.198 -0.1341  0.1497 -0.1268
  207loPI   C1B 3309  16.679   4.373   9.672 -0.0919 -0.2728 -0.1526
  207loPI   C2B 3310  16.492   4.710   9.442 -0.0834 -0.1556 -0.1249
  207loPI   C3B 3311  16.377   4.816   9.052  0.1832 -0.1272  0.2671
  207loPI   C4B 3312  16.435   4.580   8.644 -0.2658  0.1619 -0.0411
  208loPI    C1 3313   1.581  13.806  10.925 -0.1674 -0.0048 -0.1243
  208loPI    C2 3314   1.886  13.560  11.003 -0.1085  0.1092  0.0083
  208loPI    C3 3315   1.544  13.525  11.207 -0.0397  0.2483  0.1506
  208loPI   PO4 3316   1.549  13.753  10.632  0.0971  0.0968 -0.3118
  208loPI   GL1 3317   1.699  13.775  10.258  0.1111  0.0093  0.1338
  208loPI   GL2 3318   1.822  13.460  10.388  0.3446 -0.2952  0.1402
  208loPI   C1A 3319   1.615  13.812   9.848  0.1164  0.0261  0.2939
  208loPI   C2A 3320   1.613  13.836   9.433 -0.0342  0.3808 -0.4148
  208loPI   C3A 3321   1.599  13.933   8.985 -0.0910 -0.2812 -0.1969
  208loPI   C4A 3322   1.632  13.885   8.560 -0.0985 -0.2678 -0.0138
  208loPI   C5A 3323   1.875  14.010   8.240 -0.3225 -0.0256  0.1510
  208loPI   C6A 3324   1.701  14.190   7.838 -0.2816 -0.2025  0.0090
  208loPI   C1B 3325   2.012  13.449   9.946 -0.2521 -0.0980 -0.0624
  208loPI   C2B 3326   1.998  13.470   9.492  0.0740 -0.0620 -0.1190
  208loPI   C3B 3327   1.971  13.583   9.172  0.2097  0.0425 -0.2678
  208loPI   C4B 3328   1.953  13.552   8.806 -0.1597  0.1605  0.0464
  209loPI    C1 3329   9.983   0.364  10.705 -0.1608 -0.0463 -0.0204
  209loPI    C2 3330  10.020   0.438  11.097 -0.0134  0.1457 -0.0693
  209loPI    C3 3331   9.657   0.405  10.933 -0.0760  0.1379  0.0700
  209loPI   PO4 3332  10.218   0.252  10.631 -0.0795  0.0368  0.1195
  209loPI   GL1 3333  10.560   0.343  10.305  0.0929  0.0882  0.2197
  209loPI   GL2 3334  10.767   0.601  10.309 -0.1966  0.0724  0.0812
  209loPI   C1A 3335  10.531   0.329   9.861  0.1280 -0.1732 -0.2397
  209loPI   C2A 3336  10.617   0.241   9.457  0.2952 -0.0162  0.1104
  209loPI   C3A 3337  10.647   0.185   8.979  0.2479 -0.1505  0.0570
  209loPI   C4A 3338  10.607   0.125   8.497 -0.0378  0.2460  0.0958
  209loPI   C5A 3339  10.448   0.532   8.202  0.1295 -0.1167 -0.2511
  209loPI   C6A 3340  10.754   0.903   8.093 -0.0573 -0.1692  0.2573
  209loPI   C1B 3341  10.952   0.597   9.915 -0.1593 -0.6228  0.1276
  209loPI   C2B 3342  11.002   0.536   9.493 -0.3529  0.2018 -0.1674
  209loPI   C3B 3343  11.089   0.392   9.185  0.1677  0.0930  0.0650
  209loPI   C4B 3344  11.212   0.403   8.748  0.1771 -0.0359  0.1237
  210loPI    C1 3345   9.558   9.445  11.359  0.1224  0.0670 -0.0907
  210loPI    C2 3346   9.942   9.444  11.468  0.1051 -0.1013 -0.0284
  210loPI    C3 3347   9.674   9.646  11.685  0.0779 -0.3964  0.2202
  210loPI   PO4 3348   9.516   9.505  11.158  0.1442 -0.0503  0.2949
  210loPI   GL1 3349   9.619   9.553  10.718  0.0320  0.0383  0.2401
  210loPI   GL2 3350   9.394   9.381  10.660  0.0743  0.2131  0.0801
  210loPI   C1A 3351   9.698   9.538  10.289 -0.2689 -0.2623  0.0221
  210loPI   C2A 3352   9.689   9.522   9.812 -0.2122  0.0186 -0.0406
  210loPI   C3A 3353   9.780   9.468   9.357  0.2506  0.1905 -0.1105
  210loPI   C4A 3354   9.810   9.568   8.984 -0.1496  0.0917 -0.1055
  210loPI   C5A 3355   9.624   9.580   8.619 -0.0574  0.3110 -0.1273
  210loPI   C6A 3356   9.502   9.712   8.261  0.0257 -0.0820 -0.0544
  210loPI   C1B 3357   9.214   9.295  10.296 -0.0934 -0.1135 -0.0139
  210loPI   C2B 3358   9.194   9.384   9.766 -0.0012  0.0107  0.3646
  210loPI   C3B 3359   9.207   9.383   9.372 -0.3080 -0.1406 -0.0957
  210loPI   C4B 3360   9.320   9.405   9.036  0.2049  0.0596 -0.1941
  211loPI    C1 3361   3.440  17.469  10.568 -0.0815  0.1433 -0.1058
  211loPI    C2 3362   3.216  17.623  10.862  0.0311  0.0048  0.0544
  211loPI    C3 3363   3.527  17.388  10.949  0.0757 -0.0247 -0.1763
  211loPI   PO4 3364   3.290  17.601  10.355  0.0626  0.2569 -0.1902
  211loPI   GL1 3365   3.109  17.905  10.174  0.0288  0.1245  0.1387
  211loPI   GL2 3366   2.810  17.626  10.166  0.0737  0.0813  0.2248
  211loPI   C1A 3367   3.199  17.829   9.750  0.1324  0.1061 -0.2510
  211loPI   C2A 3368   3.058  17.737   9.336  0.1561  0.0941  0.3196
  211loPI   C3A 3369   2.899  17.647   8.920  0.0420 -0.2641 -0.0593
  211loPI   C4A 3370   2.653  17.969   8.612  0.0537  0.1551 -0.0527
  211loPI   C5A 3371   2.953  18.275   8.345  0.0031 -0.0959 -0.0755
  211loPI   C6A 3372   3.123  18.689   8.175  0.0785 -0.2525 -0.0710
  211loPI   C1B 3373   2.673  17.543   9.736 -0.0639 -0.0848 -0.0836
  211loPI   C2B 3374   2.579  17.583   9.305 -0.2324  0.2576 -0.2915
  211loPI   C3B 3375   2.428  17.921   9.059 -0.0688  0.0963  0.0179
  211loPI   C4B 3376   2.071  17.895   8.813  0.1006 -0.1010  0.0439
  212loPI    C1 3377   9.740   2.350  11.014  0.1185 -0.1285  0.3687
  212loPI    C2 3378   9.596   2.708  11.119  0.3059  0.0239  0.1191
  212loPI    C3 3379   9.986   2.665  11.039  0.2359 -0.1712 -0.1317
  212loPI   PO4 3380   9.584   2.248  10.757 -0.0161  0.4436 -0.1075
  212loPI   GL1 3381   9.606   2.328  10.285 -0.1066  0.3183 -0.3057
  212loPI   GL2 3382   9.529   2.656  10.075  0.4521  0.0269 -0.1544
  212loPI   C1A 3383   9.507   2.210   9.875  0.0087  0.3067 -0.0179
  212loPI   C2A 3384   9.502   2.203   9.438 -0.0642 -0.0753 -0.0011
  212loPI   C3A 3385   9.539   2.154   8.953  0.0326  0.0794  0.0814
  212loPI   C4A 3386   9.794   2.393   8.745 -0.0129  0.0130  0.2704
  212loPI   C5A 3387   9.799   2.409   8.303  0.1656  0.0882  0.1127
  212loPI   C6A 3388   9.673   2.165   7.902 -0.1790 -0.0435  0.1323
  212loPI   C1B 3389   9.381   2.973   9.752  0.1052  0.0541 -0.0160
  212loPI   C2B 3390   9.200   2.880   9.400 -0.0781 -0.0104  0.0151
  212loPI   C3B 3391   8.966   2.869   8.975 -0.1812  0.1636 -0.1415
  212loPI   C4B 3392   8.844   2.705   8.568 -0.2846  0.2427 -0.0701
  213loPI    C1 3393  17.321   8.076  11.144 -0.0242  0.2022 -0.1169
  213loPI    C2 3394  17.660   8.172  10.955 -0.0380  0.2980 -0.0936
  213loPI    C3 3395  17.664   8.102  11.349  0.0657 -0.2983 -0.1915
  213loPI   PO4 3396  17.236   7.814  11.040 -0.1252 -0.0794 -0.0169
  213loPI   GL1 3397  17.168   7.646  10.547 -0.0355  0.0125  0.0936
  213loPI   GL2 3398  17.197   7.962  10.577  0.1402  0.1133  0.1201
  213loPI   C1A 3399  17.187   7.446  10.203  0.0567 -0.3652  0.0289
  213loPI   C2A 3400  17.197   7.491   9.808 -0.0762 -0.0878  0.2008
  213loPI   C3A 3401  17.094   7.615   9.405  0.0992  0.1001 -0.1580
  213loPI   C4A 3402  17.120   7.688   8.971 -0.1376 -0.0141  0.0913
  213loPI   C5A 3403  17.084   7.914   8.618 -0.2346 -0.3051 -0.1182
  213loPI   C6A 3404  16.688   8.076   8.509 -0.0711  0.0560 -0.2824
  213loPI   C1B 3405  17.253   7.899  10.141 -0.1529  0.1265  0.0310
  213loPI   C2B 3406  17.165   8.014   9.751 -0.2117 -0.3298 -0.1952
  213loPI   C3B 3407  16.851   8.052   9.436  0.1938  0.0318 -0.0298
  213loPI   C4B 3408  16.824   8.110   9.019  0.4010 -0.0366  0.0682
  214loPI    C1 3409  13.698   7.930  10.954  0.0196 -0.1904 -0.2381
  214loPI    C2 3410  13.850   7.734  11.267  0.0625 -0.2860 -0.3182
  214loPI    C3 3411  13.490   7.905  11.295  0.1377 -0.1494 -0.1624
  214loPI   PO4 3412  13.838   8.135  10.819 -0.1800  0.3563  0.1988
  214loPI   GL1 3413  13.930   8.196  10.356  0.4466  0.1936  0.0128
  214loPI   GL2 3414  13.777   8.497  10.304  0.3268 -0.0116  0.1086
  214loPI   C1A 3415  14.132   8.288   9.940  0.1584  0.3088 -0.0950
  214loPI   C2A 3416  14.106   8.246   9.514 -0.4177 -0.0195  0.0789
  214loPI   C3A 3417  14.077   8.256   9.073  0.2129  0.0564  0.0907
  214loPI   C4A 3418  13.947   8.262   8.693 -0.0858 -0.1779  0.1694
  214loPI   C5A 3419  13.771   8.379   8.311  0.0299  0.0908  0.0261
  214loPI   C6A 3420  13.483   8.087   8.122  0.0309  0.0675  0.1349
  214loPI   C1B 3421  13.745   8.599   9.766 -0.2541 -0.1600 -0.1431
  214loPI   C2B 3422  13.766   8.638   9.377 -0.0705 -0.1901 -0.0643
  214loPI   C3B 3423  13.665   8.727   8.901 -0.4853 -0.0555 -0.1354
  214loPI   C4B 3424  13.582   8.877   8.447 -0.0760  0.1001  0.1605
  215loPI    C1 3425   8.259  18.070  10.637  0.2372 -0.1434 -0.2288
  215loPI    C2 3426   8.469  17.942  10.952  0.0351  0.0256 -0.0222
  215loPI    C3 3427   8.199  18.234  10.997  0.1541  0.1985 -0.3940
  215loPI   PO4 3428   8.398  18.148  10.504 -0.1874  0.1813  0.1125
  215loPI   GL1 3429   8.629  17.987  10.178  0.2542 -0.0436  0.3036
  215loPI   GL2 3430   8.881  17.778  10.014 -0.1408 -0.0675 -0.0917
  215loPI   C1A 3431   8.774  18.239   9.837  0.2158 -0.0117  0.1712
  215loPI   C2A 3432   8.690  18.172   9.374 -0.0369 -0.1891 -0.2001
  215loPI   C3A 3433   8.770  18.228   8.923  0.1118 -0.0339  0.2284
  215loPI   C4A 3434   8.776  18.229   8.469 -0.0632  0.1781 -0.0282
  215loPI   C5A 3435   8.481  18.023   8.169 -0.0661  0.2402 -0.1184
  215loPI   C6A 3436   8.030  18.171   7.885 -0.0019 -0.0231 -0.0788
  215loPI   C1B 3437   8.926  17.744   9.640  0.0849  0.1148 -0.0717
  215loPI   C2B 3438   8.831  17.784   9.124  0.0571  0.2936 -0.1571
  215loPI   C3B 3439   8.834  17.668   8.696  0.2226 -0.0215 -0.2592
  215loPI   C4B 3440   8.964  17.768   8.279 -0.1286 -0.0919  0.0296
  216loPI    C1 3441  11.671  12.825  10.899 -0.0905 -0.0078 -0.0835
  216loPI    C2 3442  11.797  13.204  10.918 -0.1625  0.0183 -0.1217
  216loPI    C3 3443  11.594  13.046  11.224  0.0039 -0.0391 -0.0394
  216loPI   PO4 3444  11.816  12.799  10.552  0.1641 -0.1265 -0.0807
  216loPI   GL1 3445  11.762  12.584  10.286 -0.0244 -0.0828  0.1466
  216loPI   GL2 3446  11.398  12.634  10.240  0.1244  0.1152  0.3830
  216loPI   C1A 3447  11.946  12.265  10.031 -0.1917  0.0787  0.0059
  216loPI   C2A 3448  12.057  12.048   9.644 -0.1347  0.2242  0.0760
  216loPI   C3A 3449  12.403  12.010   9.321  0.2474 -0.0983 -0.0604
  216loPI   C4A 3450  12.352  11.936   8.869  0.0328 -0.0956 -0.0798
  216loPI   C5A 3451  12.216  12.010   8.456 -0.0023  0.1366  0.1635
  216loPI   C6A 3452  11.978  12.087   8.129  0.0353  0.0116 -0.2573
  216loPI   C1B 3453  11.454  12.779   9.773  0.1521 -0.1224 -0.0506
  216loPI   C2B 3454  11.720  13.016   9.534 -0.0273 -0.0254 -0.0021
  216loPI   C3B 3455  11.841  13.498   9.564  0.2297  0.1010 -0.0217
  216loPI   C4B 3456  11.892  13.879   9.649 -0.2675 -0.2450  0.2708
  217loPI    C1 3457  17.417  16.193  10.839  0.0729  0.0150  0.0129
  217loPI    C2 3458  17.443  16.152  11.236  0.1221  0.0659  0.0150
  217loPI    C3 3459  17.164  16.391  11.077  0.0267 -0.0452  0.0141
  217loPI   PO4 3460  17.586  16.284  10.678 -0.0396 -0.2399  0.0349
  217loPI   GL1 3461  17.872  16.208  10.517  0.0846 -0.1110  0.3971
  217loPI   GL2 3462  18.067  16.064  10.579  0.3673  0.1416  0.0950
  217loPI   C1A 3463  17.876  16.185  10.078 -0.0330 -0.1594  0.0409
  217loPI   C2A 3464  17.719  16.120   9.703 -0.2437  0.3296  0.1488
  217loPI   C3A 3465  17.706  16.094   9.313  0.3413  0.1055 -0.0422
  217loPI   C4A 3466  17.806  16.195   8.976 -0.3909 -0.0062  0.0830
  217loPI   C5A 3467  17.673  16.100   8.611  0.0121  0.3431 -0.0278
  217loPI   C6A 3468  17.651  16.238   8.242 -0.2141 -0.0674 -0.1187
  217loPI   C1B 3469  18.220  15.874  10.264  0.1765 -0.0781  0.1045
  217loPI   C2B 3470  18.165  15.797   9.823  0.1491 -0.0641  0.0481
  217loPI   C3B 3471  18.130  15.784   9.442 -0.3508  0.2419 -0.1397
  217loPI   C4B 3472  18.053  15.747   9.041 -0.0305 -0.0857  0.0580
  218loPI    C1 3473   1.513   4.300  10.974 -0.1068  0.1322 -0.0511
  218loPI    C2 3474   1.678   3.974  11.139 -0.2012  0.1639  0.1084
  218loPI    C3 3475   1.494   4.244  11.370 -0.0425  0.3782 -0.0117
  218loPI   PO4 3476   1.475   4.269  10.716  0.1846  0.1861 -0.1465
  218loPI   GL1 3477   1.185   4.041  10.354 -0.1771 -0.0370  0.3540
  218loPI   GL2 3478   1.085   4.212  10.144 -0.0297  0.0812  0.0717
  218loPI   C1A 3479   1.395   3.838  10.019 -0.3482 -0.0113 -0.1706
  218loPI   C2A 3480   1.576   3.891   9.691 -0.2883  0.2659  0.0621
  218loPI   C3A 3481   1.644   4.096   9.389 -0.2698  0.1015 -0.1954
  218loPI   C4A 3482   1.568   4.163   9.029 -0.2748  0.0468  0.2300
  218loPI   C5A 3483   1.420   4.288   8.635 -0.1716 -0.0776  0.1447
  218loPI   C6A 3484   1.512   4.242   8.137  0.1015 -0.1322  0.3949
  218loPI   C1B 3485   1.071   4.004   9.734 -0.2295 -0.0655  0.1776
  218loPI   C2B 3486   1.104   4.221   9.283  0.1104 -0.0662 -0.3086
  218loPI   C3B 3487   0.905   4.141   8.899  0.3290  0.1980  0.0817
  218loPI   C4B 3488   0.826   4.283   8.503 -0.2248  0.3034  0.1754
  219loPI    C1 3489   2.828  13.936  10.786 -0.1886  0.0241  0.2585
  219loPI    C2 3490   2.820  13.544  10.710  0.1283  0.0804 -0.0975
  219loPI    C3 3491   3.014  13.682  11.031 -0.1395 -0.0633  0.1315
  219loPI   PO4 3492   2.892  14.123  10.595 -0.1680 -0.0936 -0.0324
  219loPI   GL1 3493   2.591  14.069  10.316 -0.0254 -0.1081 -0.0716
  219loPI   GL2 3494   2.833  13.736  10.263  0.1736  0.0282  0.2558
  219loPI   C1A 3495   2.560  13.993   9.905 -0.0013  0.0703 -0.1158
  219loPI   C2A 3496   2.620  14.110   9.514  0.0887  0.1895 -0.0536
  219loPI   C3A 3497   2.660  14.155   9.037  0.0150  0.1108 -0.0750
  219loPI   C4A 3498   2.733  14.210   8.642  0.2504  0.1322 -0.0521
  219loPI   C5A 3499   2.855  14.194   8.270 -0.0917 -0.1700 -0.0904
  219loPI   C6A 3500   3.233  14.327   8.017  0.2884 -0.0214  0.0719
  219loPI   C1B 3501   2.941  13.660   9.834  0.2348 -0.1689 -0.1687
  219loPI   C2B 3502   2.992  13.758   9.470 -0.1826 -0.3944 -0.1769
  219loPI   C3B 3503   2.962  13.754   8.970 -0.0987 -0.0937 -0.1687
  219loPI   C4B 3504   3.119  13.736   8.608 -0.4208  0.0896 -0.2776
  220loPI    C1 3505  16.613  15.061  11.365  0.0061  0.1142 -0.1141
  220loPI    C2 3506  16.259  14.957  11.518  0.1076  0.0939  0.1113
  220loPI    C3 3507  16.596  14.839  11.697  0.2318 -0.0530 -0.2114
  220loPI   PO4 3508  16.634  14.959  11.081  0.3748 -0.1099 -0.1091
  220loPI   GL1 3509  16.672  14.624  10.846  0.2109  0.3108 -0.0605
  220loPI   GL2 3510  16.569  14.295  10.796  0.0118 -0.2720 -0.0923
  220loPI   C1A 3511  16.620  14.691  10.422  0.2015  0.3206  0.0001
  220loPI   C2A 3512  16.626  14.946  10.038  0.0160  0.1678  0.1352
  220loPI   C3A 3513  16.874  15.015   9.649  0.0826  0.0708 -0.0894
  220loPI   C4A 3514  16.940  15.005   9.236 -0.1326  0.0059 -0.0499
  220loPI   C5A 3515  16.901  15.106   8.793  0.0202 -0.0848  0.0903
  220loPI   C6A 3516  17.024  14.908   8.320 -0.0442 -0.0288  0.1017
  220loPI   C1B 3517  16.611  14.228  10.381 -0.1208  0.1651  0.0791
  220loPI   C2B 3518  16.670  14.030   9.993  0.2353  0.1902 -0.1175
  220loPI   C3B 3519  16.623  14.033   9.550  0.0956 -0.0695 -0.0824
  220loPI   C4B 3520  16.571  14.046   9.080 -0.2038 -0.0996 -0.2013
  221loPI    C1 3521  14.985  16.617  10.959 -0.0992 -0.1007  0.0176
  221loPI    C2 3522  15.245  16.419  11.190  0.3401  0.3507 -0.0735
  221loPI    C3 3523  14.974  16.661  11.356 -0.0817 -0.1720  0.0262
  221loPI   PO4 3524  14.947  16.414  10.807  0.0713  0.0853 -0.2826
  221loPI   GL1 3525  14.607  16.398  10.431  0.0470 -0.2066 -0.0271
  221loPI   GL2 3526  14.317  16.209  10.314 -0.0909 -0.1391  0.1215
  221loPI   C1A 3527  14.651  16.509  10.075  0.4173  0.0583  0.0970
  221loPI   C2A 3528  14.649  16.329   9.765  0.1267 -0.0006  0.0284
  221loPI   C3A 3529  14.498  16.435   9.393 -0.0679 -0.2337  0.0395
  221loPI   C4A 3530  14.465  16.649   9.020  0.2104  0.0601  0.5065
  221loPI   C5A 3531  14.741  16.991   8.773  0.1224 -0.1845 -0.1489
  221loPI   C6A 3532  14.644  17.352   8.560 -0.0647  0.0260  0.0756
  221loPI   C1B 3533  14.195  16.202   9.991 -0.6092 -0.0531 -0.1753
  221loPI   C2B 3534  14.248  16.055   9.569 -0.0351 -0.2609  0.1565
  221loPI   C3B 3535  14.483  15.903   9.140  0.0661 -0.0900 -0.0628
  221loPI   C4B 3536  14.633  15.991   8.663 -0.1164 -0.1866  0.0395
  222loPI    C1 3537   0.206  13.405  10.783 -0.1787 -0.2166 -0.0902
  222loPI    C2 3538   0.531  13.527  10.584 -0.2838  0.2027 -0.0146
  222loPI    C3 3539   0.557  13.438  10.973 -0.2174  0.0295 -0.0578
  222loPI   PO4 3540   0.050  13.444  10.602  0.1330  0.0639 -0.0415
  222loPI   GL1 3541  -0.042  13.582  10.154  0.0265  0.1778 -0.1865
  222loPI   GL2 3542   0.045  13.535   9.819 -0.1017  0.1807  0.0447
  222loPI   C1A 3543  -0.405  13.362   9.998  0.2366  0.0979  0.0499
  222loPI   C2A 3544  -0.409  13.422   9.622  0.3170  0.3627  0.1062
  222loPI   C3A 3545  -0.473  13.459   9.067  0.0514  0.2738 -0.2387
  222loPI   C4A 3546  -0.452  13.476   8.615  0.3706 -0.1448 -0.2349
  222loPI   C5A 3547  -0.723  13.686   8.260 -0.2993  0.3993  0.1459
  222loPI   C6A 3548  -0.747  13.395   7.946  0.2091 -0.4555 -0.0537
  222loPI   C1B 3549   0.024  13.481   9.315 -0.2524  0.5146  0.0938
  222loPI   C2B 3550   0.134  13.557   8.924 -0.3297  0.1832 -0.2768
  222loPI   C3B 3551   0.029  13.469   8.487  0.2264  0.0388  0.0065
  222loPI   C4B 3552  -0.313  13.441   8.173 -0.0701  0.1739  0.0922
  223loPI    C1 3553  16.802   7.953  10.952 -0.2350 -0.1445 -0.0991
  223loPI    C2 3554  16.489   7.954  11.200  0.0258  0.1330  0.2390
  223loPI    C3 3555  16.813   7.738  11.289 -0.0512 -0.1289 -0.0945
  223loPI   PO4 3556  16.756   7.971  10.743 -0.1228 -0.1722 -0.2052
  223loPI   GL1 3557  16.725   7.948  10.274  0.2181  0.0648  0.1354
  223loPI   GL2 3558  16.405   7.944  10.350 -0.0250 -0.1988  0.2246
  223loPI   C1A 3559  16.791   8.240   9.990  0.0957 -0.1402  0.0851
  223loPI   C2A 3560  16.891   8.541   9.606  0.0026 -0.0975 -0.5397
  223loPI   C3A 3561  17.014   8.628   9.270 -0.0772 -0.0094  0.0102
  223loPI   C4A 3562  16.928   8.555   8.833 -0.3021 -0.3226 -0.0462
  223loPI   C5A 3563  17.021   8.414   8.439 -0.3749 -0.1659  0.1480
  223loPI   C6A 3564  17.249   8.293   8.012  0.0522 -0.0178  0.1197
  223loPI   C1B 3565  16.335   7.846   9.911  0.0639  0.0994  0.0963
  223loPI   C2B 3566  16.296   7.942   9.538 -0.4094 -0.1309  0.1899
  223loPI   C3B 3567  16.328   8.028   9.138 -0.0201 -0.1032 -0.0279
  223loPI   C4B 3568  16.248   7.910   8.797 -0.1225 -0.0962  0.4910
  224loPI    C1 3569  14.663  13.672  11.129  0.0194  0.1023 -0.2723
  224loPI    C2 3570  14.881  13.752  11.455 -0.0653  0.0429 -0.2004
  224loPI    C3 3571  14.495  13.857  11.442 -0.1349 -0.2032 -0.1702
  224loPI   PO4 3572  14.858  13.664  10.967  0.3217 -0.1365  0.0139
  224loPI   GL1 3573  14.800  13.663  10.565 -0.1287  0.0701  0.2169
  224loPI   GL2 3574  14.896  14.039  10.630 -0.2024 -0.0364  0.1293
  224loPI   C1A 3575  14.776  13.532  10.187 -0.1761  0.1596  0.0975
  224loPI   C2A 3576  14.734  13.748   9.791  0.0045 -0.2175 -0.0725
  224loPI   C3A 3577  14.622  13.819   9.380 -0.0944  0.0191 -0.0400
  224loPI   C4A 3578  14.529  14.003   9.018 -0.0312  0.0342 -0.0260
  224loPI   C5A 3579  14.419  14.087   8.653  0.0440  0.0053 -0.3431
  224loPI   C6A 3580  14.250  14.058   8.319 -0.1916  0.0980 -0.0419
  224loPI   C1B 3581  14.919  14.022  10.173 -0.1840  0.2451  0.0452
  224loPI   C2B 3582  14.860  14.439  10.039  0.0783 -0.0557 -0.1548
  224loPI   C3B 3583  14.994  14.567   9.720  0.1095  0.0568 -0.0697
  224loPI   C4B 3584  15.250  14.389   9.356 -0.1725 -0.2751  0.0418
  225loPI    C1 3585   6.882   9.400  10.698  0.0378 -0.0678  0.1171
  225loPI    C2 3586   6.830   9.626  11.025 -0.1111 -0.0924  0.1114
  225loPI    C3 3587   6.541   9.604  10.749  0.0290 -0.0423 -0.0407
  225loPI   PO4 3588   7.202   9.500  10.669  0.1854  0.0775  0.1658
  225loPI   GL1 3589   7.289   9.405  10.298 -0.0318 -0.1694  0.1578
  225loPI   GL2 3590   7.014   9.614  10.222 -0.1922  0.0096 -0.1853
  225loPI   C1A 3591   7.435   9.446   9.924 -0.0493  0.0124  0.0415
  225loPI   C2A 3592   7.319   9.426   9.541  0.0193 -0.0321 -0.0054
  225loPI   C3A 3593   7.406   9.446   9.079 -0.0849  0.1412  0.0357
  225loPI   C4A 3594   7.617   9.480   8.662  0.2043 -0.0618 -0.1285
  225loPI   C5A 3595   7.927   9.645   8.458 -0.0512  0.0365  0.1136
  225loPI   C6A 3596   8.277   9.690   8.676 -0.3803  0.0510 -0.0283
  225loPI   C1B 3597   6.976   9.713   9.815  0.2724 -0.1631 -0.0154
  225loPI   C2B 3598   6.956   9.897   9.400  0.0650  0.1334  0.1043
  225loPI   C3B 3599   6.878  10.114   9.036 -0.0164 -0.0805  0.0329
  225loPI   C4B 3600   6.748  10.484   8.847 -0.2572 -0.0979 -0.2637
  226loPI    C1 3601  11.562  15.799  10.986 -0.1513  0.1189 -0.0412
  226loPI    C2 3602  11.195  15.747  11.135 -0.1141 -0.1944 -0.0516
  226loPI    C3 3603  11.501  15.822  11.380 -0.1342 -0.2316 -0.0150
  226loPI   PO4 3604  11.640  15.599  10.786 -0.0448 -0.0128  0.0060
  226loPI   GL1 3605  11.671  15.615  10.429 -0.1075  0.0313  0.2856
  226loPI   GL2 3606  11.343  15.725  10.305 -0.1284 -0.0926  0.1603
  226loPI   C1A 3607  11.674  15.375   9.963  0.0826 -0.2514  0.2831
  226loPI   C2A 3608  11.670  15.322   9.503  0.0873  0.3028 -0.0136
  226loPI   C3A 3609  11.817  15.381   9.040  0.0538 -0.0101 -0.3966
  226loPI   C4A 3610  12.051  15.408   8.640 -0.1304  0.1804 -0.2438
  226loPI   C5A 3611  12.187  15.827   8.534 -0.0365  0.1452  0.2056
  226loPI   C6A 3612  12.529  16.017   8.367  0.1961  0.3631  0.1318
  226loPI   C1B 3613  11.238  15.652   9.856  0.2132 -0.1458 -0.0108
  226loPI   C2B 3614  11.230  15.615   9.410 -0.0939 -0.1105 -0.1056
  226loPI   C3B 3615  11.174  15.421   9.018 -0.3196 -0.2209 -0.0530
  226loPI   C4B 3616  11.433  15.319   8.678 -0.0038 -0.1626 -0.2875
  227loPI    C1 3617  14.057  10.436  11.075  0.0328  0.2853  0.0236
  227loPI    C2 3618  13.985  10.367  11.463  0.0276 -0.0407 -0.0333
  227loPI    C3 3619  14.321  10.553  11.351  0.0948 -0.0697  0.1190
  227loPI   PO4 3620  13.894  10.262  10.976  0.3639  0.1727 -0.3602
  227loPI   GL1 3621  13.913  10.233  10.557 -0.0996 -0.1985  0.3477
  227loPI   GL2 3622  13.955  10.537  10.572 -0.5124  0.0860  0.1496
  227loPI   C1A 3623  13.674  10.058  10.209  0.0062  0.1893 -0.0749
  227loPI   C2A 3624  13.691   9.894   9.834  0.0387  0.3330  0.0705
  227loPI   C3A 3625  13.609   9.914   9.419  0.1207  0.2447 -0.2765
  227loPI   C4A 3626  13.167   9.935   9.085  0.0798  0.0491  0.0036
  227loPI   C5A 3627  13.150  10.036   8.649  0.3774  0.0051  0.0708
  227loPI   C6A 3628  13.002  10.457   8.571 -0.2069 -0.1035  0.1464
  227loPI   C1B 3629  13.980  10.671  10.166  0.2809 -0.0487  0.0257
  227loPI   C2B 3630  13.824  10.888   9.809  0.0189  0.1457  0.0068
  227loPI   C3B 3631  13.888  10.915   9.310  0.0442  0.1002 -0.2381
  227loPI   C4B 3632  13.984  11.028   8.894 -0.0503  0.0759 -0.0997
  228loPI    C1 3633  13.166   1.623  11.190  0.0555 -0.0342 -0.1723
  228loPI    C2 3634  12.938   1.428  11.454 -0.0507  0.1856 -0.0989
  228loPI    C3 3635  13.289   1.582  11.568  0.1641 -0.1978 -0.2244
  228loPI   PO4 3636  13.183   1.451  10.975  0.1691 -0.2608 -0.1380
  228loPI   GL1 3637  13.232   1.402  10.469  0.0413 -0.1605  0.0662
  228loPI   GL2 3638  13.021   1.637  10.245 -0.1408 -0.2489  0.0312
  228loPI   C1A 3639  13.627   1.407  10.238 -0.0736 -0.0931 -0.1175
  228loPI   C2A 3640  13.724   1.219   9.810  0.1239  0.0959  0.0726
  228loPI   C3A 3641  13.616   1.157   9.351  0.2222  0.1863 -0.3599
  228loPI   C4A 3642  13.502   1.060   9.067 -0.1272 -0.1585 -0.0141
  228loPI   C5A 3643  13.461   1.201   8.651 -0.1280 -0.2930 -0.0194
  228loPI   C6A 3644  13.295   1.137   8.334  0.0646  0.0225  0.0754
  228loPI   C1B 3645  13.150   1.463   9.887  0.1335 -0.1135 -0.0115
  228loPI   C2B 3646  13.169   1.422   9.451 -0.1105 -0.0789  0.0471
  228loPI   C3B 3647  13.154   1.425   9.005 -0.0871  0.1689  0.1851
  228loPI   C4B 3648  13.073   1.615   8.635  0.0706  0.1498  0.1325
  229loPI    C1 3649  16.006   5.798  10.989 -0.1687 -0.0210  0.0623
  229loPI    C2 3650  15.664   5.660  11.143 -0.1973  0.2256  0.2242
  229loPI    C3 3651  16.006   5.619  11.347 -0.0951 -0.1859 -0.0190
  229loPI   PO4 3652  15.927   5.960  10.813  0.3281 -0.0430 -0.2355
  229loPI   GL1 3653  16.165   6.014  10.436  0.3641 -0.1325  0.2359
  229loPI   GL2 3654  16.062   5.674  10.418  0.0289  0.0696 -0.3704
  229loPI   C1A 3655  16.148   5.982   9.961 -0.1618  0.1078 -0.2047
  229loPI   C2A 3656  16.195   6.051   9.484 -0.0160  0.1831 -0.0684
  229loPI   C3A 3657  16.166   6.158   9.080  0.1304  0.1883  0.1458
  229loPI   C4A 3658  16.222   6.051   8.681 -0.1699 -0.2787  0.0487
  229loPI   C5A 3659  16.641   6.006   8.501 -0.0543  0.0486 -0.2697
  229loPI   C6A 3660  16.791   5.940   8.034 -0.1219 -0.3626  0.1207
  229loPI   C1B 3661  16.085   5.463  10.015 -0.1273  0.1543  0.0635
  229loPI   C2B 3662  16.023   5.588   9.582 -0.2949  0.1308  0.0350
  229loPI   C3B 3663  16.049   5.609   9.104  0.0625  0.2418 -0.0430
  229loPI   C4B 3664  16.047   5.559   8.642  0.0702 -0.0722  0.0865
  230loPI    C1 3665   9.307   4.129  10.924  0.0470 -0.0589  0.1320
  230loPI    C2 3666   9.675   4.277  10.973 -0.0178  0.1309  0.0538
  230loPI    C3 3667   9.439   4.219  11.290  0.0525  0.0790  0.0968
  230loPI   PO4 3668   9.278   4.071  10.671  0.1540  0.1380 -0.1983
  230loPI   GL1 3669   9.396   3.744  10.192  0.0010  0.1800 -0.0130
  230loPI   GL2 3670   9.296   4.067  10.102 -0.3516  0.0267  0.2297
  230loPI   C1A 3671   9.356   3.641   9.836 -0.0693  0.0733 -0.2129
  230loPI   C2A 3672   9.337   3.363   9.456 -0.2651  0.2349 -0.1525
  230loPI   C3A 3673   9.394   3.192   9.061 -0.0395 -0.0826 -0.0919
  230loPI   C4A 3674   9.475   3.076   8.621  0.2869 -0.1069 -0.2777
  230loPI   C5A 3675   9.473   3.363   8.280 -0.0603 -0.3924 -0.0385
  230loPI   C6A 3676   9.698   3.341   7.906  0.0911  0.1896  0.0053
  230loPI   C1B 3677   9.096   4.016   9.637 -0.0305 -0.2462  0.0330
  230loPI   C2B 3678   9.050   4.118   9.193  0.1473  0.0107  0.3151
  230loPI   C3B 3679   9.017   4.140   8.702 -0.0219  0.1880  0.2373
  230loPI   C4B 3680   9.232   4.084   8.256  0.0495 -0.0304 -0.2343
  231loPI    C1 3681  17.365  17.667  10.697 -0.2283  0.1095 -0.0640
  231loPI    C2 3682  17.593  17.638  10.369  0.2614  0.0720  0.2689
  231loPI    C3 3683  17.585  17.979  10.577 -0.4687  0.2799 -0.0680
  231loPI   PO4 3684  17.192  17.525  10.637  0.0439  0.0784  0.2439
  231loPI   GL1 3685  17.231  17.436  10.159 -0.0901 -0.0109  0.0550
  231loPI   GL2 3686  17.020  17.237  10.182  0.2654  0.0644 -0.2071
  231loPI   C1A 3687  17.454  17.831   9.896 -0.4280 -0.1424 -0.1678
  231loPI   C2A 3688  17.461  17.940   9.403  0.3033  0.2392 -0.0816
  231loPI   C3A 3689  17.405  18.039   9.009  0.1621 -0.0728  0.2754
  231loPI   C4A 3690  17.486  17.830   8.571  0.2093 -0.0941  0.0468
  231loPI   C5A 3691  17.183  17.983   8.093 -0.1413 -0.0672  0.2225
  231loPI   C6A 3692  17.001  18.319   7.719 -0.0173  0.0343 -0.0327
  231loPI   C1B 3693  16.816  17.275   9.853 -0.1939  0.0935  0.1906
  231loPI   C2B 3694  16.727  17.434   9.417  0.0987 -0.3504  0.0571
  231loPI   C3B 3695  16.668  17.412   8.970  0.0943  0.3057 -0.2555
  231loPI   C4B 3696  16.587  17.435   8.428 -0.1607 -0.0937  0.1992
  232loPI    C1 3697   0.120  12.537  11.286 -0.1436  0.0029 -0.1312
  232loPI    C2 3698   0.516  12.484  11.282 -0.1706 -0.2215 -0.0125
  232loPI    C3 3699   0.352  12.743  11.538 -0.0948 -0.0631 -0.1220
  232loPI   PO4 3700   0.065  12.561  11.058 -0.0818 -0.0344  0.3289
  232loPI   GL1 3701   0.209  12.456  10.717 -0.2772  0.0813  0.3402
  232loPI   GL2 3702   0.246  12.559  10.503  0.1054 -0.1587 -0.0589
  232loPI   C1A 3703   0.088  12.201  10.256 -0.3386  0.0018  0.0584
  232loPI   C2A 3704   0.121  12.142   9.865  0.0855 -0.1858  0.0694
  232loPI   C3A 3705   0.088  12.211   9.445  0.0173 -0.0757  0.1451
  232loPI   C4A 3706   0.108  12.177   8.987 -0.2914  0.1827 -0.1618
  232loPI   C5A 3707   0.150  12.186   8.541 -0.2437 -0.3844  0.0320
  232loPI   C6A 3708   0.157  12.502   8.189 -0.1780 -0.0126 -0.0055
  232loPI   C1B 3709   0.276  12.659  10.061  0.0057  0.2761  0.3354
  232loPI   C2B 3710   0.279  12.618   9.632 -0.0275  0.2432 -0.0831
  232loPI   C3B 3711   0.270  12.630   9.151  0.0902 -0.1928  0.0581
  232loPI   C4B 3712   0.363  12.623   8.713 -0.1977 -0.0777 -0.2076
  233loPI    C1 3713  10.993  14.688  11.079 -0.2337  0.0323  0.1069
  233loPI    C2 3714  11.134  14.410  10.829 -0.2456  0.0078  0.1274
  233loPI    C3 3715  11.184  14.368  11.224  0.0960  0.2266  0.1119
  233loPI   PO4 3716  11.059  14.854  10.992 -0.1778 -0.2973 -0.0826
  233loPI   GL1 3717  11.070  14.772  10.427 -0.0614  0.0027 -0.2918
  233loPI   GL2 3718  10.777  14.746  10.268 -0.0205  0.4658 -0.1834
  233loPI   C1A 3719  11.261  14.707  10.015 -0.1142  0.2846 -0.2221
  233loPI   C2A 3720  11.295  14.544   9.618 -0.4722 -0.0198 -0.1621
  233loPI   C3A 3721  11.203  14.576   9.209 -0.0523 -0.2241 -0.0576
  233loPI   C4A 3722  11.374  14.537   8.696  0.1390 -0.0079 -0.0650
  233loPI   C5A 3723  11.825  14.438   8.411  0.1542 -0.1602  0.0875
  233loPI   C6A 3724  11.885  14.643   7.958  0.0838  0.1115 -0.0153
  233loPI   C1B 3725  10.807  14.707   9.818 -0.0422  0.2838  0.2412
  233loPI   C2B 3726  10.763  14.784   9.311  0.3205 -0.2321  0.0316
  233loPI   C3B 3727  11.003  14.898   8.896 -0.3706 -0.0362 -0.0300
  233loPI   C4B 3728  11.162  14.909   8.472  0.4603  0.0674 -0.0005
  234loPI    C1 3729   8.548  17.111  11.063  0.0143 -0.2941 -0.1377
  234loPI    C2 3730   8.368  17.465  11.112  0.3478 -0.1106 -0.2092
  234loPI    C3 3731   8.295  17.166  11.368 -0.0845 -0.0546 -0.2604
  234loPI   PO4 3732   8.764  17.168  10.855  0.2421  0.0446 -0.1544
  234loPI   GL1 3733   8.772  17.056  10.479 -0.0732  0.0928 -0.0115
  234loPI   GL2 3734   8.927  16.785  10.553  0.2238  0.0785 -0.2436
  234loPI   C1A 3735   8.657  16.983  10.051  0.3569  0.4558  0.0889
  234loPI   C2A 3736   8.527  16.942   9.613 -0.1167  0.1182 -0.1400
  234loPI   C3A 3737   8.485  16.955   9.223 -0.1631  0.0124  0.1183
  234loPI   C4A 3738   8.313  16.961   8.878 -0.2602 -0.1724 -0.0387
  234loPI   C5A 3739   8.290  16.992   8.456  0.0281 -0.0499  0.2186
  234loPI   C6A 3740   8.057  17.110   8.226  0.0649  0.0292 -0.1291
  234loPI   C1B 3741   9.061  16.718  10.053  0.0317 -0.0641 -0.1060
  234loPI   C2B 3742   9.006  16.757   9.664 -0.0840 -0.3178 -0.2671
  234loPI   C3B 3743   8.844  16.654   9.340  0.1129 -0.4571 -0.0232
  234loPI   C4B 3744   8.931  16.656   8.861 -0.0114  0.3572  0.0488
  235loPI    C1 3745   9.940   6.093  10.717  0.2129 -0.0679 -0.0823
  235loPI    C2 3746  10.166   6.289  10.983  0.1463 -0.1591  0.0426
  235loPI    C3 3747  10.170   5.889  10.973 -0.0600 -0.1635  0.0912
  235loPI   PO4 3748   9.971   6.258  10.528 -0.3466 -0.2170 -0.0380
  235loPI   GL1 3749  10.059   6.393  10.140  0.2034  0.0773  0.0220
  235loPI   GL2 3750   9.918   6.696  10.157  0.0465 -0.1676 -0.3341
  235loPI   C1A 3751  10.173   6.396   9.767 -0.3501 -0.1064  0.1716
  235loPI   C2A 3752  10.252   6.409   9.432 -0.1167 -0.1071  0.0671
  235loPI   C3A 3753  10.366   6.461   8.998  0.2586 -0.1690  0.1418
  235loPI   C4A 3754  10.238   6.488   8.561 -0.2426  0.1378  0.0472
  235loPI   C5A 3755   9.904   6.518   8.283  0.0920 -0.0298  0.1283
  235loPI   C6A 3756   9.845   6.689   7.865 -0.3362 -0.1045 -0.1579
  235loPI   C1B 3757   9.768   6.726   9.767  0.2649  0.1452  0.0073
  235loPI   C2B 3758   9.947   6.798   9.367  0.0522 -0.3475  0.2873
  235loPI   C3B 3759   9.831   6.891   8.995  0.1249  0.3625  0.0840
  235loPI   C4B 3760   9.828   7.006   8.527 -0.4240  0.2447 -0.0370
  236loPI    C1 3761  12.359   8.461  10.887  0.0439  0.0701 -0.2491
  236loPI    C2 3762  12.487   8.689  11.191 -0.1455 -0.0057 -0.1106
  236loPI    C3 3763  12.649   8.329  11.129 -0.1018  0.0128 -0.1037
  236loPI   PO4 3764  12.327   8.629  10.724 -0.0127  0.0321  0.0738
  236loPI   GL1 3765  12.286   8.627  10.362  0.3405 -0.2636 -0.0204
  236loPI   GL2 3766  12.405   8.935  10.252 -0.0116  0.0945  0.1206
  236loPI   C1A 3767  12.269   8.667   9.923 -0.2258 -0.0258  0.0170
  236loPI   C2A 3768  12.362   8.676   9.495  0.0882 -0.1282 -0.0080
  236loPI   C3A 3769  12.340   8.686   9.044  0.1009  0.3953 -0.0379
  236loPI   C4A 3770  12.256   8.753   8.536 -0.0514  0.0863  0.2240
  236loPI   C5A 3771  12.465   8.976   8.253  0.1548  0.3311 -0.1549
  236loPI   C6A 3772  12.693   9.248   7.999  0.0115 -0.0123  0.2722
  236loPI   C1B 3773  12.450   9.152   9.968  0.1308 -0.0177  0.3117
  236loPI   C2B 3774  12.461   9.129   9.624  0.5492 -0.2329  0.1096
  236loPI   C3B 3775  12.518   9.225   9.178  0.0781  0.3040  0.0731
  236loPI   C4B 3776  12.496   9.178   8.742 -0.1130  0.0953 -0.0927
  237loPI    C1 3777   0.020   5.875  10.964  0.0629 -0.0735  0.2735
  237loPI    C2 3778   0.121   5.562  10.736 -0.2673 -0.0980  0.1555
  237loPI    C3 3779   0.386   5.854  10.804 -0.1178 -0.1611 -0.1411
  237loPI   PO4 3780  -0.205   5.901  10.880 -0.0514 -0.0131  0.2737
  237loPI   GL1 3781  -0.270   6.224  10.531  0.2565 -0.0999  0.1407
  237loPI   GL2 3782  -0.406   6.436  10.369  0.0116 -0.1917  0.0067
  237loPI   C1A 3783  -0.048   6.205  10.137  0.0012  0.1300 -0.2398
  237loPI   C2A 3784   0.054   6.426   9.665  0.0884 -0.0811  0.1318
  237loPI   C3A 3785   0.032   6.539   9.235  0.1226 -0.0293  0.0315
  237loPI   C4A 3786   0.190   6.672   8.786  0.1071 -0.3497 -0.1277
  237loPI   C5A 3787   0.060   6.637   8.427  0.2697  0.0817 -0.3084
  237loPI   C6A 3788  -0.009   6.928   8.030  0.1240  0.0382 -0.0344
  237loPI   C1B 3789  -0.433   6.380   9.908  0.1671 -0.0512 -0.3902
  237loPI   C2B 3790  -0.433   6.401   9.451 -0.0605  0.1374  0.1447
  237loPI   C3B 3791  -0.514   6.377   8.996 -0.0575  0.1348  0.4282
  237loPI   C4B 3792  -0.462   6.296   8.531  0.1250 -0.2521 -0.0335
  238loPI    C1 3793  11.648   4.639  10.954 -0.1186  0.1312 -0.0783
  238loPI    C2 3794  11.431   4.389  11.179 -0.1081  0.1685 -0.0266
  238loPI    C3 3795  11.760   4.560  11.329 -0.0924  0.1816 -0.0755
  238loPI   PO4 3796  11.478   4.676  10.782 -0.0476  0.3287  0.1111
  238loPI   GL1 3797  11.218   4.937  10.549 -0.1009  0.2068  0.3015
  238loPI   GL2 3798  11.138   5.196  10.407 -0.0624 -0.0364  0.3417
  238loPI   C1A 3799  11.247   4.810   9.987 -0.0867 -0.2923  0.0412
  238loPI   C2A 3800  11.297   4.587   9.569 -0.0625  0.2414  0.0600
  238loPI   C3A 3801  11.367   4.706   9.169  0.0663 -0.1901 -0.0805
  238loPI   C4A 3802  11.609   4.630   8.776  0.1840  0.0141 -0.1604
  238loPI   C5A 3803  11.749   4.683   8.405 -0.4408  0.0895 -0.4144
  238loPI   C6A 3804  11.810   4.924   8.028  0.1949  0.4338 -0.0341
  238loPI   C1B 3805  11.239   5.316  10.023 -0.3338 -0.2067  0.1351
  238loPI   C2B 3806  11.331   5.212   9.561 -0.4397 -0.0556  0.0103
  238loPI   C3B 3807  11.418   5.278   9.186  0.0889 -0.1764 -0.3811
  238loPI   C4B 3808  11.342   5.057   8.757 -0.1049 -0.2520 -0.4061
  239loPI    C1 3809   1.679   0.717  10.790 -0.2777  0.1523 -0.0964
  239loPI    C2 3810   1.637   0.360  10.966 -0.0098  0.1229 -0.0878
  239loPI    C3 3811   1.490   0.688  11.141  0.0160  0.0577  0.0575
  239loPI   PO4 3812   1.685   0.570  10.506 -0.1042  0.3113 -0.1705
  239loPI   GL1 3813   1.537   0.541  10.132  0.2878  0.1934  0.0897
  239loPI   GL2 3814   1.478   0.798   9.973 -0.0040  0.0693  0.2943
  239loPI   C1A 3815   1.639   0.431   9.677 -0.0741 -0.1684  0.3872
  239loPI   C2A 3816   1.463   0.533   9.306  0.0643  0.0055  0.1424
  239loPI   C3A 3817   1.375   0.514   8.760 -0.0357  0.2829 -0.0574
  239loPI   C4A 3818   1.429   0.422   8.394  0.0128  0.2766  0.0328
  239loPI   C5A 3819   1.512   0.227   8.016 -0.1943  0.0863 -0.0187
  239loPI   C6A 3820   1.817   0.014   7.907 -0.0991 -0.1917 -0.0219
  239loPI   C1B 3821   1.391   0.920   9.561  0.1011 -0.1450  0.2419
  239loPI   C2B 3822   1.181   0.972   9.140 -0.0130  0.1649  0.1005
  239loPI   C3B 3823   1.022   0.917   8.760 -0.1702 -0.0393  0.2922
  239loPI   C4B 3824   0.993   0.744   8.309 -0.2037 -0.2468 -0.0655
  240loPI    C1 3825   5.863  17.125  10.417 -0.3080 -0.0171  0.1087
  240loPI    C2 3826   5.695  16.993  10.755 -0.1648  0.0341  0.2012
  240loPI    C3 3827   6.035  17.202  10.770 -0.1034 -0.0503  0.0175
  240loPI   PO4 3828   5.575  17.240  10.324 -0.5182  0.1081  0.2876
  240loPI   GL1 3829   5.474  17.368  10.008  0.2954  0.1286  0.0710
  240loPI   GL2 3830   5.142  17.483  10.045 -0.1645  0.0652  0.0952
  240loPI   C1A 3831   5.382  17.384   9.572  0.1290  0.1652 -0.1032
  240loPI   C2A 3832   5.236  17.237   9.238  0.2119  0.0783  0.0082
  240loPI   C3A 3833   5.218  17.183   8.818 -0.3195  0.0864  0.2036
  240loPI   C4A 3834   5.317  17.201   8.289  0.4255  0.1050  0.0459
  240loPI   C5A 3835   5.517  16.783   8.040 -0.2891  0.0424 -0.3898
  240loPI   C6A 3836   5.611  16.398   8.117  0.0972 -0.0869 -0.3540
  240loPI   C1B 3837   4.941  17.418   9.721  0.0634 -0.0986  0.0719
  240loPI   C2B 3838   4.783  17.453   9.351  0.2822 -0.2507 -0.1147
  240loPI   C3B 3839   4.765  17.391   8.967 -0.0202 -0.0038  0.0643
  240loPI   C4B 3840   4.824  17.361   8.569  0.1442 -0.2780  0.0919
  241loPI    C1 3841   0.883   3.138  10.623  0.0377 -0.0564 -0.1191
  241loPI    C2 3842   1.172   2.952  10.829 -0.0494 -0.0745 -0.0120
  241loPI    C3 3843   0.793   2.937  10.957 -0.1269 -0.2027 -0.2496
  241loPI   PO4 3844   0.913   3.038  10.238 -0.0593  0.0540 -0.2089
  241loPI   GL1 3845   0.789   2.796   9.893  0.1115 -0.1719  0.0703
  241loPI   GL2 3846   0.903   3.018   9.640 -0.1462 -0.0115 -0.1155
  241loPI   C1A 3847   0.549   2.670   9.500 -0.0331 -0.2010 -0.1329
  241loPI   C2A 3848   0.479   2.937   9.103  0.1627 -0.0448  0.1652
  241loPI   C3A 3849   0.365   2.921   8.667  0.2512 -0.0123  0.5279
  241loPI   C4A 3850   0.249   2.757   8.287  0.2147 -0.1499 -0.3544
  241loPI   C5A 3851   0.431   2.460   8.079 -0.0591  0.0702  0.2609
  241loPI   C6A 3852   0.681   2.113   7.821 -0.0020  0.0639 -0.2248
  241loPI   C1B 3853   0.866   3.324   9.347 -0.0218  0.2894 -0.0622
  241loPI   C2B 3854   0.448   3.453   9.281 -0.3435 -0.3079  0.1420
  241loPI   C3B 3855   0.254   3.805   9.080 -0.2377 -0.1364  0.2165
  241loPI   C4B 3856   0.432   3.926   8.681 -0.1766 -0.3180 -0.0564
  242loPI    C1 3857  12.371   3.583  11.304  0.1132 -0.0042  0.0993
  242loPI    C2 3858  12.021   3.663  11.481  0.0677 -0.1371  0.0709
  242loPI    C3 3859  12.309   3.941  11.471  0.0237 -0.0842  0.2397
  242loPI   PO4 3860  12.394   3.593  10.997 -0.2988 -0.2303  0.0750
  242loPI   GL1 3861  12.351   3.295  10.635 -0.0389 -0.0199 -0.1215
  242loPI   GL2 3862  12.087   3.236  10.535 -0.0495 -0.0714 -0.0491
  242loPI   C1A 3863  12.473   3.375  10.174  0.1778 -0.0639 -0.0523
  242loPI   C2A 3864  12.669   3.203   9.795  0.0728  0.1346  0.0202
  242loPI   C3A 3865  12.643   3.329   9.288  0.1986  0.2056 -0.0657
  242loPI   C4A 3866  12.498   3.489   8.948 -0.1192  0.0216  0.2413
  242loPI   C5A 3867  12.322   3.677   8.531  0.2297 -0.0509  0.1874
  242loPI   C6A 3868  12.284   3.681   8.115 -0.1269 -0.1424  0.2158
  242loPI   C1B 3869  11.939   3.192  10.146 -0.0544  0.0980 -0.1304
  242loPI   C2B 3870  11.801   3.205   9.759  0.2093  0.0446 -0.0242
  242loPI   C3B 3871  11.694   3.322   9.416  0.2248 -0.0749 -0.0775
  242loPI   C4B 3872  11.799   3.296   9.009 -0.2453 -0.0670 -0.0185
  243loPI    C1 3873  13.100  14.983  10.931 -0.1057  0.0485  0.1799
  243loPI    C2 3874  12.821  15.268  10.894 -0.0510  0.1210  0.3188
  243loPI    C3 3875  13.138  15.328  11.130 -0.0242 -0.0439  0.3260
  243loPI   PO4 3876  13.109  14.906  10.679  0.0073  0.1970 -0.0612
  243loPI   GL1 3877  12.880  14.755  10.356  0.0185  0.3215 -0.0231
  243loPI   GL2 3878  12.612  14.889  10.331 -0.1247 -0.1301  0.1321
  243loPI   C1A 3879  13.050  14.704   9.913 -0.1162  0.3823  0.1793
  243loPI   C2A 3880  13.203  14.859   9.610 -0.0124  0.1054  0.1166
  243loPI   C3A 3881  13.166  15.086   9.182  0.2242  0.1463 -0.0662
  243loPI   C4A 3882  13.215  15.180   8.742  0.0080  0.0817 -0.2128
  243loPI   C5A 3883  13.415  14.902   8.349 -0.2634  0.0168  0.1787
  243loPI   C6A 3884  13.433  14.551   8.080 -0.0902  0.2657  0.2139
  243loPI   C1B 3885  12.610  14.952   9.862  0.1845  0.2671  0.1221
  243loPI   C2B 3886  12.583  14.982   9.405  0.0350  0.2865  0.2217
  243loPI   C3B 3887  12.690  15.136   9.032  0.1148  0.0216 -0.1731
  243loPI   C4B 3888  12.516  15.566   8.844 -0.2687  0.0425  0.0077
  244loPI    C1 3889  17.188  14.384  11.158  0.2294  0.0734  0.0593
  244loPI    C2 3890  16.894  14.577  11.349  0.1191  0.1027 -0.1380
  244loPI    C3 3891  17.038  14.235  11.497  0.0055  0.1034 -0.0250
  244loPI   PO4 3892  17.101  14.313  10.889 -0.1498  0.2057  0.1587
  244loPI   GL1 3893  17.131  14.536  10.467  0.3541 -0.0606  0.1177
  244loPI   GL2 3894  17.405  14.687  10.511  0.0545  0.1154  0.1137
  244loPI   C1A 3895  16.886  14.517  10.061 -0.0565  0.1140 -0.0167
  244loPI   C2A 3896  16.811  14.527   9.690  0.2789 -0.2790  0.0593
  244loPI   C3A 3897  16.719  14.506   9.218 -0.1629  0.4436  0.0929
  244loPI   C4A 3898  16.711  14.621   8.796  0.2482 -0.1549  0.1337
  244loPI   C5A 3899  16.709  14.583   8.295  0.1113 -0.0255  0.0260
  244loPI   C6A 3900  16.766  14.139   8.100 -0.0129 -0.2679  0.0926
  244loPI   C1B 3901  17.625  14.431  10.110 -0.1970 -0.0372 -0.1994
  244loPI   C2B 3902  17.565  14.376   9.630 -0.0449  0.1524  0.0221
  244loPI   C3B 3903  17.562  14.324   9.227 -0.0295  0.0481 -0.0293
  244loPI   C4B 3904  17.540  14.251   8.758  0.0982 -0.1587  0.0631
  245loPI    C1 3905  16.438   9.294  10.925 -0.1279 -0.1017 -0.0596
  245loPI    C2 3906  16.285   9.556  11.185  0.0957 -0.0213 -0.0065
  245loPI    C3 3907  16.608   9.342  11.283  0.1232 -0.0617 -0.1815
  245loPI   PO4 3908  16.316   9.440  10.705 -0.0664 -0.0640 -0.1106
  245loPI   GL1 3909  16.538   9.690  10.360 -0.2577 -0.0344  0.2681
  245loPI   GL2 3910  16.841   9.780  10.228  0.3759 -0.1409  0.0520
  245loPI   C1A 3911  16.347   9.649  10.000 -0.1838  0.0425 -0.1086
  245loPI   C2A 3912  16.302   9.769   9.562 -0.3072  0.1172 -0.1489
  245loPI   C3A 3913  16.325   9.776   9.144  0.1374 -0.2788 -0.1339
  245loPI   C4A 3914  16.453   9.774   8.680 -0.1094 -0.1512 -0.0552
  245loPI   C5A 3915  16.724   9.605   8.294  0.3086  0.1006  0.1747
  245loPI   C6A 3916  16.888   9.436   7.953  0.1689  0.6576 -0.1830
  245loPI   C1B 3917  16.791   9.792   9.848 -0.0027  0.2465  0.3933
  245loPI   C2B 3918  16.681   9.459   9.634  0.0690  0.1945  0.1323
  245loPI   C3B 3919  16.770   9.476   9.123  0.2988  0.3340 -0.2664
  245loPI   C4B 3920  16.811   9.433   8.759 -0.2465  0.1661  0.1885
  246loPI    C1 3921   0.982  12.875  10.821  0.1377  0.1113 -0.1402
  246loPI    C2 3922   1.172  13.066  11.117  0.0101  0.1614 -0.0897
  246loPI    C3 3923   1.165  12.666  11.109 -0.0861  0.1596  0.0409
  246loPI   PO4 3924   0.905  13.156  10.610  0.2285 -0.0741  0.3488
  246loPI   GL1 3925   0.881  13.177  10.207 -0.0457  0.1537 -0.0286
  246loPI   GL2 3926   0.715  12.847  10.249  0.0763 -0.2593 -0.0849
  246loPI   C1A 3927   0.915  13.214   9.748  0.1391 -0.0962 -0.0777
  246loPI   C2A 3928   0.881  13.227   9.272  0.1499  0.1414 -0.3329
  246loPI   C3A 3929   1.004  13.275   8.926  0.0611  0.4982  0.0360
  246loPI   C4A 3930   1.041  13.286   8.467  0.2479 -0.0792  0.0427
  246loPI   C5A 3931   0.794  13.144   8.049 -0.1201  0.1740  0.1287
  246loPI   C6A 3932   0.421  13.037   7.780 -0.1070 -0.0047  0.2003
  246loPI   C1B 3933   0.698  12.750   9.829 -0.2914 -0.0300  0.1824
  246loPI   C2B 3934   0.694  12.776   9.361  0.3076 -0.3823 -0.1022
  246loPI   C3B 3935   0.798  12.761   9.012  0.0366  0.0219 -0.3060
  246loPI   C4B 3936   0.804  12.854   8.587  0.0608  0.1954 -0.1666
  247loPI    C1 3937   0.005   4.884  11.126  0.1145  0.0146 -0.2271
  247loPI    C2 3938   0.328   4.648  11.113  0.0163 -0.1392  0.0504
  247loPI    C3 3939   0.319   4.963  11.360 -0.1239 -0.2568  0.1982
  247loPI   PO4 3940  -0.042   5.006  10.814  0.1580  0.0784  0.0341
  247loPI   GL1 3941   0.134   5.180  10.459 -0.0514 -0.0273 -0.0430
  247loPI   GL2 3942  -0.079   5.285  10.349  0.0436  0.3093  0.1489
  247loPI   C1A 3943   0.244   5.160   9.997 -0.1106 -0.0144 -0.1015
  247loPI   C2A 3944   0.155   5.189   9.511 -0.1462 -0.1692  0.1325
  247loPI   C3A 3945   0.087   5.224   9.082 -0.1434  0.2446 -0.4779
  247loPI   C4A 3946  -0.046   5.282   8.678 -0.1775 -0.0767 -0.0639
  247loPI   C5A 3947   0.146   5.541   8.386  0.1734  0.0166 -0.0326
  247loPI   C6A 3948   0.035   5.635   7.998  0.2040 -0.3250 -0.0891
  247loPI   C1B 3949   0.058   5.616  10.055  0.2475 -0.1495  0.3070
  247loPI   C2B 3950  -0.254   5.471   9.739  0.2511 -0.0304 -0.0723
  247loPI   C3B 3951  -0.231   5.501   9.286  0.1266  0.2596  0.1067
  247loPI   C4B 3952  -0.233   5.698   8.970  0.0944  0.1063  0.2087
  248loPI    C1 3953   7.682   4.999  10.731  0.2278 -0.3340 -0.0211
  248loPI    C2 3954   7.594   5.066  11.116  0.1600 -0.2434 -0.0520
  248loPI    C3 3955   7.595   4.692  10.973 -0.1659 -0.2491 -0.0472
  248loPI   PO4 3956   7.508   5.219  10.559 -0.2197  0.1025 -0.0329
  248loPI   GL1 3957   7.462   5.382  10.101  0.0031  0.1854  0.0179
  248loPI   GL2 3958   7.496   5.667   9.945  0.2749 -0.2263 -0.1754
  248loPI   C1A 3959   7.464   5.399   9.538  0.4300  0.0619 -0.0820
  248loPI   C2A 3960   7.464   5.534   9.162  0.4258  0.2216  0.1709
  248loPI   C3A 3961   7.235   5.778   8.883  0.0548 -0.1106  0.2536
  248loPI   C4A 3962   6.879   5.886   8.815  0.1118 -0.3120  0.1416
  248loPI   C5A 3963   6.496   5.866   8.746 -0.0122 -0.0902 -0.2521
  248loPI   C6A 3964   6.054   5.898   8.586 -0.3282  0.0142  0.0338
  248loPI   C1B 3965   7.593   5.876   9.624 -0.0410 -0.3389 -0.1228
  248loPI   C2B 3966   7.675   5.975   9.188  0.3319 -0.1395 -0.5208
  248loPI   C3B 3967   7.875   5.660   8.742 -0.1433 -0.1839  0.0837
  248loPI   C4B 3968   8.184   5.466   8.449  0.4411  0.0186 -0.0722
  249loPI    C1 3969   7.154   8.842  11.134 -0.0139  0.0020  0.0036
  249loPI    C2 3970   7.321   8.996  11.463  0.1546 -0.0373 -0.0627
  249loPI    C3 3971   7.125   9.234  11.209 -0.1040 -0.0299  0.1395
  249loPI   PO4 3972   7.438   8.685  11.052 -0.1108  0.4202  0.1982
  249loPI   GL1 3973   7.734   8.783  10.766 -0.0727 -0.0668 -0.2213
  249loPI   GL2 3974   7.550   8.650  10.457  0.1721 -0.0338  0.1409
  249loPI   C1A 3975   7.997   8.681  10.376  0.0930  0.0896  0.1958
  249loPI   C2A 3976   8.026   8.612   9.903  0.1603  0.2690  0.0113
  249loPI   C3A 3977   8.055   8.710   9.441 -0.2061  0.0691  0.3448
  249loPI   C4A 3978   8.170   8.817   8.913  0.0782 -0.0281 -0.1471
  249loPI   C5A 3979   8.332   8.808   8.479  0.2160 -0.2055 -0.1785
  249loPI   C6A 3980   8.669   8.971   8.115 -0.2595 -0.0713 -0.0903
  249loPI   C1B 3981   7.480   8.604  10.039  0.1114 -0.0096  0.0925
  249loPI   C2B 3982   7.562   8.602   9.560  0.0544  0.0907  0.2410
  249loPI   C3B 3983   7.661   8.541   9.159  0.0094 -0.2419 -0.1707
  249loPI   C4B 3984   7.684   8.664   8.849 -0.2642  0.1214 -0.1400
  250loPI    C1 3985  12.489  16.400  11.050  0.0404  0.0598  0.0228
  250loPI    C2 3986  12.182  16.450  11.302 -0.0890  0.1246 -0.1457
  250loPI    C3 3987  12.550  16.567  11.408 -0.1097 -0.0108  0.0819
  250loPI   PO4 3988  12.377  16.272  10.823 -0.2213  0.2365  0.0654
  250loPI   GL1 3989  12.288  16.372  10.376  0.1107  0.0415 -0.3713
  250loPI   GL2 3990  11.956  16.385  10.382  0.4795  0.0022  0.1128
  250loPI   C1A 3991  12.204  16.213   9.987  0.1246  0.1379 -0.0202
  250loPI   C2A 3992  12.507  16.030   9.714 -0.0129  0.0273 -0.1335
  250loPI   C3A 3993  12.566  15.853   9.299 -0.0331  0.0312  0.0923
  250loPI   C4A 3994  12.755  16.028   8.980 -0.1082 -0.0682 -0.1628
  250loPI   C5A 3995  13.003  16.243   8.671 -0.2316  0.0618  0.3260
  250loPI   C6A 3996  13.307  16.039   8.355 -0.2725 -0.3870  0.1266
  250loPI   C1B 3997  11.764  16.457   9.978 -0.2008  0.0237  0.3458
  250loPI   C2B 3998  11.548  16.481   9.700  0.0224 -0.1436  0.1229
  250loPI   C3B 3999  11.590  16.357   9.265  0.2310  0.0480 -0.1300
  250loPI   C4B 4000  11.733  16.264   8.840  0.1258 -0.1692 -0.0930
  251loPI    C1 4001   6.166  16.079  10.734  0.1541  0.0319 -0.1065
  251loPI    C2 4002   6.348  15.723  10.752 -0.0647 -0.0864 -0.1949
  251loPI    C3 4003   6.025  15.795  10.978  0.1283  0.1461  0.0123
  251loPI   PO4 4004   6.128  16.128  10.509 -0.0120  0.0148 -0.0813
  251loPI   GL1 4005   6.033  16.031  10.197  0.0801  0.0072  0.2275
  251loPI   GL2 4006   6.400  15.913  10.127  0.1368  0.0960 -0.0376
  251loPI   C1A 4007   5.873  15.891   9.868  0.1845 -0.3054  0.1683
  251loPI   C2A 4008   5.735  15.713   9.521 -0.1008  0.0008  0.0350
  251loPI   C3A 4009   5.741  15.637   9.175  0.2988  0.0045 -0.0805
  251loPI   C4A 4010   5.722  15.721   8.700  0.0374  0.0993  0.0300
  251loPI   C5A 4011   5.990  15.733   8.382 -0.1518 -0.1019 -0.0814
  251loPI   C6A 4012   6.182  15.719   7.936 -0.0077  0.0140  0.3947
  251loPI   C1B 4013   6.668  15.910   9.792 -0.2523  0.1848 -0.0286
  251loPI   C2B 4014   6.684  15.907   9.346 -0.0872  0.0116  0.0664
  251loPI   C3B 4015   6.637  15.826   8.964 -0.1983 -0.0586  0.0459
  251loPI   C4B 4016   6.595  15.853   8.607 -0.0393 -0.3975 -0.0246
  252loPI    C1 4017   6.018  13.883  10.692 -0.2208 -0.0686  0.1100
  252loPI    C2 4018   6.351  13.894  10.913 -0.1009 -0.1136 -0.0666
  252loPI    C3 4019   6.011  13.758  11.072 -0.0139 -0.1538  0.0872
  252loPI   PO4 4020   6.016  14.062  10.456 -0.3153  0.0116  0.2126
  252loPI   GL1 4021   5.847  14.127  10.032 -0.0397  0.0973  0.0203
  252loPI   GL2 4022   5.699  13.799  10.087 -0.0698 -0.1021 -0.3185
  252loPI   C1A 4023   5.782  14.124   9.539 -0.2774  0.3412 -0.0120
  252loPI   C2A 4024   5.883  14.232   9.134 -0.0554 -0.1976 -0.0742
  252loPI   C3A 4025   5.962  14.238   8.706 -0.2149  0.1897 -0.3116
  252loPI   C4A 4026   5.920  14.174   8.240  0.1873  0.0230  0.0482
  252loPI   C5A 4027   5.604  14.451   8.036  0.1375 -0.0801  0.3044
  252loPI   C6A 4028   5.328  14.737   8.189 -0.1026  0.1382 -0.3375
  252loPI   C1B 4029   5.421  13.718   9.727 -0.0004  0.3045  0.1523
  252loPI   C2B 4030   5.333  13.760   9.281 -0.2747 -0.0157  0.1195
  252loPI   C3B 4031   5.482  13.975   9.011 -0.1330  0.1392  0.3706
  252loPI   C4B 4032   5.502  13.962   8.628 -0.0198  0.0018  0.0765
  253loPI    C1 4033  17.238   8.955  10.991 -0.0629  0.2953  0.2829
  253loPI    C2 4034  16.842   8.992  10.952 -0.0691 -0.0400 -0.0294
  253loPI    C3 4035  17.014   9.045  11.310 -0.3848  0.1738  0.0951
  253loPI   PO4 4036  17.306   9.086  10.741 -0.1337  0.1262 -0.0234
  253loPI   GL1 4037  17.482   9.041  10.432 -0.0571 -0.0779 -0.1014
  253loPI   GL2 4038  17.323   9.210  10.216 -0.0443  0.0752 -0.2263
  253loPI   C1A 4039  17.666   8.713  10.195  0.3460 -0.1343 -0.1086
  253loPI   C2A 4040  17.842   8.723   9.923  0.0323  0.2402  0.2427
  253loPI   C3A 4041  17.877   8.711   9.434  0.2396 -0.0005  0.0416
  253loPI   C4A 4042  17.692   8.934   9.012  0.0936  0.2589  0.2799
  253loPI   C5A 4043  17.853   8.926   8.621 -0.0493 -0.0838 -0.1904
  253loPI   C6A 4044  17.840   8.920   8.157  0.3405 -0.1777  0.0594
  253loPI   C1B 4045  17.237   9.405   9.925 -0.0593 -0.0627 -0.0432
  253loPI   C2B 4046  17.204   9.514   9.476 -0.1725  0.3671 -0.0380
  253loPI   C3B 4047  17.204   9.647   9.149 -0.1654 -0.1183  0.2491
  253loPI   C4B 4048  17.578   9.766   8.728 -0.0981  0.1530 -0.1390
  254loPI    C1 4049  14.062  17.905  11.333  0.0317  0.0295 -0.1789
  254loPI    C2 4050  14.255  18.248  11.406  0.0823  0.0394 -0.3547
  254loPI    C3 4051  13.860  18.223  11.466  0.1966 -0.1117  0.4430
  254loPI   PO4 4052  14.159  17.890  11.052 -0.0341 -0.3591 -0.1300
  254loPI   GL1 4053  14.241  18.001  10.576  0.0070 -0.0852  0.2001
  254loPI   GL2 4054  13.941  17.914  10.607  0.0863  0.3452 -0.3387
  254loPI   C1A 4055  14.229  17.595  10.352 -0.1445 -0.0924  0.0265
  254loPI   C2A 4056  13.935  17.566  10.038  0.1829  0.2104  0.1769
  254loPI   C3A 4057  13.746  17.424   9.780  0.0498 -0.0217  0.1296
  254loPI   C4A 4058  13.742  17.283   9.434 -0.3150 -0.2714  0.1208
  254loPI   C5A 4059  13.735  17.432   9.043  0.0167  0.1212 -0.0739
  254loPI   C6A 4060  13.740  17.806   8.876  0.0107 -0.0558 -0.0457
  254loPI   C1B 4061  13.628  17.741  10.355  0.1632 -0.0828 -0.2539
  254loPI   C2B 4062  13.306  17.739  10.037  0.2907  0.0857 -0.0738
  254loPI   C3B 4063  13.291  17.562   9.640 -0.0749 -0.0026  0.1658
  254loPI   C4B 4064  13.267  17.390   9.237  0.2956 -0.3272 -0.0483
  255loPI    C1 4065  15.346  12.871  11.331 -0.1126  0.2006 -0.1023
  255loPI    C2 4066  15.140  13.125  11.561  0.0510  0.2273  0.0164
  255loPI    C3 4067  15.217  12.754  11.691 -0.1268  0.1386 -0.1273
  255loPI   PO4 4068  15.318  13.022  11.141 -0.0468  0.1342  0.2340
  255loPI   GL1 4069  15.078  12.913  10.800  0.0266  0.2626 -0.2510
  255loPI   GL2 4070  15.030  12.688  10.552 -0.0253  0.0562  0.0137
  255loPI   C1A 4071  14.788  13.114  10.539  0.1206  0.1649  0.1155
  255loPI   C2A 4072  14.578  13.062  10.247  0.0180 -0.0278  0.2859
  255loPI   C3A 4073  14.496  12.935   9.848 -0.0730 -0.2471 -0.0878
  255loPI   C4A 4074  14.382  12.793   9.432  0.0550  0.2338 -0.2883
  255loPI   C5A 4075  14.443  12.450   9.018 -0.1842 -0.3001 -0.0673
  255loPI   C6A 4076  14.334  12.266   8.734 -0.1059  0.0224  0.0369
  255loPI   C1B 4077  14.941  12.757  10.113 -0.0780 -0.2399  0.0650
  255loPI   C2B 4078  14.921  12.704   9.690  0.0557 -0.0220 -0.2497
  255loPI   C3B 4079  14.830  12.653   9.283 -0.1665 -0.2152  0.0844
  255loPI   C4B 4080  14.640  12.924   8.954  0.3316 -0.0136  0.1563
  256loPI    C1 4081  13.928   6.786  11.379  0.3914 -0.3078 -0.1546
  256loPI    C2 4082  14.096   6.481  11.576  0.4114 -0.1553  0.0682
  256loPI    C3 4083  14.066   6.840  11.751  0.1333 -0.1006 -0.0857
  256loPI   PO4 4084  14.029   6.812  11.173 -0.0114  0.3563  0.2535
  256loPI   GL1 4085  14.065   7.011  10.768  0.0835 -0.1299 -0.0127
  256loPI   GL2 4086  14.256   6.821  10.616 -0.1054  0.4128  0.0239
  256loPI   C1A 4087  13.965   7.106  10.330  0.1250 -0.0007  0.3158
  256loPI   C2A 4088  13.759   7.223   9.866  0.3242 -0.2264  0.1514
  256loPI   C3A 4089  13.790   7.186   9.395 -0.1202  0.2308 -0.0687
  256loPI   C4A 4090  13.749   7.318   8.955  0.1154  0.1981 -0.0506
  256loPI   C5A 4091  13.770   7.293   8.471  0.1366 -0.1899 -0.0775
  256loPI   C6A 4092  13.724   7.541   8.134 -0.0555 -0.2977  0.1486
  256loPI   C1B 4093  14.278   6.788  10.150 -0.0193  0.3726  0.1393
  256loPI   C2B 4094  14.105   6.875   9.742  0.1685 -0.0025  0.0382
  256loPI   C3B 4095  14.268   6.891   9.424 -0.1044 -0.2381  0.2828
  256loPI   C4B 4096  14.174   7.012   8.948  0.1084 -0.0398 -0.1971
  257loPI    C1 4097   0.939   1.341  10.622  0.0075 -0.2565  0.0546
  257loPI    C2 4098   1.016   1.567  10.943 -0.0191 -0.2170  0.0330
  257loPI    C3 4099   0.657   1.584  10.767  0.0502 -0.1123 -0.1006
  257loPI   PO4 4100   1.091   1.411  10.429  0.2225 -0.2614 -0.0008
  257loPI   GL1 4101   0.897   1.404  10.062  0.0902 -0.1554 -0.0622
  257loPI   GL2 4102   0.865   1.025  10.255 -0.0031  0.1203 -0.0739
  257loPI   C1A 4103   0.752   1.393   9.673  0.3004  0.1407  0.0517
  257loPI   C2A 4104   0.817   1.363   9.169 -0.3128 -0.0983 -0.0108
  257loPI   C3A 4105   0.900   1.367   8.715 -0.0387 -0.1284  0.1211
  257loPI   C4A 4106   1.115   1.356   8.316  0.1693 -0.1372  0.0694
  257loPI   C5A 4107   1.433   1.101   8.103  0.1406  0.1475 -0.0237
  257loPI   C6A 4108   1.432   0.731   8.016  0.1147 -0.0640 -0.3391
  257loPI   C1B 4109   0.935   0.888   9.798 -0.1654 -0.0781  0.0230
  257loPI   C2B 4110   0.681   0.919   9.429 -0.1120 -0.0791  0.1242
  257loPI   C3B 4111   0.591   0.855   9.036  0.0931  0.1898 -0.0875
  257loPI   C4B 4112   0.585   0.909   8.576  0.1310  0.2260  0.0429
  258loPI    C1 4113  10.720   5.000  10.876 -0.1239 -0.3186 -0.3347
  258loPI    C2 4114  10.337   5.047  10.982 -0.0249 -0.0259 -0.0909
  258loPI    C3 4115  10.555   4.754  11.145 -0.1201 -0.1393 -0.1658
  258loPI   PO4 4116  10.736   5.193  10.689  0.2209 -0.4368 -0.0800
  258loPI   GL1 4117  10.754   5.488  10.384 -0.0549 -0.0138  0.0026
  258loPI   GL2 4118  10.434   5.527  10.258 -0.0661  0.0806 -0.1101
  258loPI   C1A 4119  10.919   5.728  10.132 -0.0194 -0.1647  0.1461
  258loPI   C2A 4120  11.025   5.665   9.706  0.0034  0.0397  0.1713
  258loPI   C3A 4121  11.048   5.697   9.232 -0.1342 -0.1132  0.1592
  258loPI   C4A 4122  11.049   5.466   8.830  0.4921 -0.0770 -0.0308
  258loPI   C5A 4123  11.108   5.317   8.409 -0.2258  0.1550  0.2544
  258loPI   C6A 4124  10.893   5.160   8.013 -0.0060  0.0442 -0.2732
  258loPI   C1B 4125  10.547   5.569   9.829  0.0859 -0.1027 -0.0679
  258loPI   C2B 4126  10.607   5.579   9.395  0.0973 -0.1635  0.1343
  258loPI   C3B 4127  10.308   5.555   9.047  0.1512 -0.2387  0.0201
  258loPI   C4B 4128  10.230   5.628   8.565 -0.1287 -0.2072 -0.0926
  259loPI    C1 4129  12.627   0.463  10.939 -0.2063 -0.3588 -0.1157
  259loPI    C2 4130  12.627   0.200  11.240  0.0483 -0.1921  0.0345
  259loPI    C3 4131  12.562   0.587  11.313 -0.0177 -0.1680 -0.1445
  259loPI   PO4 4132  12.854   0.324  10.827 -0.2505  0.1244 -0.0482
  259loPI   GL1 4133  13.106   0.306  10.468 -0.1490  0.1857 -0.1253
  259loPI   GL2 4134  12.816   0.213  10.357 -0.1928 -0.4427 -0.3262
  259loPI   C1A 4135  13.294   0.500  10.094  0.0549 -0.0070 -0.0437
  259loPI   C2A 4136  13.341   0.450   9.625  0.0471  0.1396 -0.3124
  259loPI   C3A 4137  13.686   0.611   9.269 -0.2808 -0.0533  0.0744
  259loPI   C4A 4138  13.999   0.849   9.139 -0.0021  0.2814 -0.0029
  259loPI   C5A 4139  14.330   0.854   8.820  0.2850  0.0068 -0.0267
  259loPI   C6A 4140  14.458   0.970   8.403 -0.0383 -0.3480 -0.0820
  259loPI   C1B 4141  12.856   0.178   9.841  0.1137 -0.2421 -0.0399
  259loPI   C2B 4142  12.780   0.033   9.400  0.1932 -0.1611 -0.1335
  259loPI   C3B 4143  12.875   0.079   9.030  0.2887  0.2219  0.1099
  259loPI   C4B 4144  12.733   0.101   8.655  0.0947  0.0835  0.0318
  260loPI    C1 4145  14.466  10.248  10.852  0.2748  0.0996  0.0078
  260loPI    C2 4146  14.497  10.646  10.861  0.0431  0.1162  0.1531
  260loPI    C3 4147  14.762  10.420  11.058 -0.0203  0.2103  0.3496
  260loPI   PO4 4148  14.432  10.143  10.625 -0.0277 -0.1914  0.1275
  260loPI   GL1 4149  14.578  10.224  10.257 -0.1014  0.1057  0.0131
  260loPI   GL2 4150  14.200  10.181  10.135 -0.0626  0.2206  0.1023
  260loPI   C1A 4151  14.633  10.224   9.806  0.2518  0.2623  0.3465
  260loPI   C2A 4152  14.679  10.266   9.409 -0.2365 -0.0979  0.3736
  260loPI   C3A 4153  14.618  10.394   8.983 -0.1464 -0.4266 -0.1812
  260loPI   C4A 4154  14.372  10.290   8.699 -0.2510  0.1535 -0.2397
  260loPI   C5A 4155  14.455  10.246   8.304  0.1440  0.0610 -0.0955
  260loPI   C6A 4156  14.764  10.330   7.946 -0.2044  0.0458  0.2091
  260loPI   C1B 4157  14.175  10.055   9.669  0.1327 -0.0242 -0.0271
  260loPI   C2B 4158  14.098  10.082   9.165  0.0393 -0.3305 -0.2642
  260loPI   C3B 4159  13.634  10.133   8.937 -0.0570 -0.1184  0.0075
  260loPI   C4B 4160  13.534  10.349   8.616  0.1238 -0.0287 -0.1144
  261loPI    C1 4161  14.392  14.459  10.969 -0.0584 -0.0829  0.1661
  261loPI    C2 4162  14.521  14.617  11.313  0.1714  0.0674  0.0141
  261loPI    C3 4163  14.296  14.286  11.316  0.0313  0.1620  0.3153
  261loPI   PO4 4164  14.453  14.654  10.814 -0.0243 -0.1142 -0.0139
  261loPI   GL1 4165  14.301  14.742  10.319 -0.2018  0.0035 -0.2480
  261loPI   GL2 4166  14.088  14.511  10.479  0.2277  0.0813  0.0939
  261loPI   C1A 4167  14.099  14.920   9.961 -0.2728 -0.0067  0.3392
  261loPI   C2A 4168  13.718  14.705   9.758  0.0817  0.0850  0.2579
  261loPI   C3A 4169  13.388  14.394   9.588  0.3004  0.0334  0.1404
  261loPI   C4A 4170  13.121  14.149   9.376  0.1025 -0.2858  0.0219
  261loPI   C5A 4171  13.205  13.949   9.044  0.0392  0.1921 -0.0193
  261loPI   C6A 4172  13.164  14.004   8.663 -0.1473  0.0576 -0.1275
  261loPI   C1B 4173  14.006  14.241  10.219 -0.0387  0.4189 -0.3033
  261loPI   C2B 4174  13.839  13.813  10.019 -0.1460 -0.1639  0.2407
  261loPI   C3B 4175  13.886  13.507   9.651 -0.0009 -0.2147  0.0573
  261loPI   C4B 4176  13.619  13.362   9.290 -0.0374  0.0743 -0.0803
  262loPI    C1 4177  12.643  10.098  11.064  0.0553  0.2974  0.0308
  262loPI    C2 4178  12.269   9.983  11.147  0.0756  0.1327 -0.1016
  262loPI    C3 4179  12.482  10.183  11.420 -0.0829  0.1626  0.0014
  262loPI   PO4 4180  12.598  10.167  10.734  0.1962  0.1055  0.2274
  262loPI   GL1 4181  12.471  10.368  10.316  0.1781 -0.0061 -0.1973
  262loPI   GL2 4182  12.234  10.037  10.352 -0.0867 -0.3249  0.0864
  262loPI   C1A 4183  12.410  10.670   9.928  0.0184  0.2274 -0.2239
  262loPI   C2A 4184  12.304  10.648   9.444  0.0508  0.0677 -0.2818
  262loPI   C3A 4185  12.404  10.632   9.152  0.1417 -0.1450  0.0377
  262loPI   C4A 4186  12.443  10.563   8.739  0.1099 -0.1734  0.1268
  262loPI   C5A 4187  12.477  10.592   8.340  0.0744  0.2954  0.0035
  262loPI   C6A 4188  12.670  10.938   8.020  0.0493  0.0316  0.0102
  262loPI   C1B 4189  12.266  10.175   9.908 -0.1925 -0.1202  0.1054
  262loPI   C2B 4190  12.218  10.065   9.455 -0.0617 -0.2002 -0.0868
  262loPI   C3B 4191  12.253  10.116   9.050  0.0132  0.0456 -0.0212
  262loPI   C4B 4192  12.220  10.066   8.702 -0.2304 -0.2079  0.3731
  263loPI    C1 4193  16.164  10.465  10.968  0.2026  0.0183  0.2379
  263loPI    C2 4194  16.452  10.541  11.235  0.3117  0.0850  0.1026
  263loPI    C3 4195  16.129  10.775  11.219  0.1730 -0.0832  0.3605
  263loPI   PO4 4196  16.223  10.411  10.727  0.0717 -0.0521 -0.0288
  263loPI   GL1 4197  16.066  10.490  10.393 -0.2221  0.3112  0.1818
  263loPI   GL2 4198  15.781  10.412  10.518 -0.0927 -0.0333 -0.1792
  263loPI   C1A 4199  16.154  10.602   9.945  0.0249 -0.1209  0.5091
  263loPI   C2A 4200  16.121  10.702   9.536  0.1375  0.2596  0.1078
  263loPI   C3A 4201  16.080  10.671   9.077 -0.1662 -0.1411 -0.0028
  263loPI   C4A 4202  16.049  10.730   8.596  0.1918 -0.2546  0.0214
  263loPI   C5A 4203  15.893  10.765   8.198  0.1465 -0.0400 -0.3089
  263loPI   C6A 4204  15.718  10.563   7.807  0.1381 -0.1253 -0.1913
  263loPI   C1B 4205  15.586  10.460  10.125 -0.1682  0.1292  0.3284
  263loPI   C2B 4206  15.673  10.587   9.788  0.0432 -0.0563 -0.2148
  263loPI   C3B 4207  15.615  10.567   9.304  0.2452 -0.1509 -0.1025
  263loPI   C4B 4208  15.595  10.497   8.931  0.2567 -0.2091 -0.0067
  264loPI    C1 4209   1.479   6.557  10.804  0.3204  0.1543 -0.0672
  264loPI    C2 4210   1.649   6.234  10.640 -0.0171 -0.0351 -0.0545
  264loPI    C3 4211   1.657   6.285  11.037 -0.0286 -0.0672 -0.0501
  264loPI   PO4 4212   1.233   6.515  10.511  0.1204  0.1058  0.2116
  264loPI   GL1 4213   1.149   6.279  10.236 -0.0705  0.0640  0.0531
  264loPI   GL2 4214   0.747   6.406  10.233 -0.1008  0.4817 -0.3167
  264loPI   C1A 4215   1.143   6.338   9.818  0.0594  0.0177  0.0708
  264loPI   C2A 4216   1.182   6.327   9.445  0.0356 -0.2698 -0.0971
  264loPI   C3A 4217   1.183   6.398   9.032  0.3645 -0.1707  0.2230
  264loPI   C4A 4218   1.132   6.509   8.643  0.4380  0.1558 -0.3661
  264loPI   C5A 4219   0.867   6.788   8.314 -0.2164  0.2748  0.0082
  264loPI   C6A 4220   0.437   6.601   8.119  0.2192 -0.3766 -0.3042
  264loPI   C1B 4221   0.647   6.399   9.808  0.1044  0.0343  0.0026
  264loPI   C2B 4222   0.717   6.433   9.445  0.1005  0.0882 -0.2018
  264loPI   C3B 4223   0.566   6.617   9.108  0.0821 -0.3384  0.0699
  264loPI   C4B 4224   0.658   6.531   8.723 -0.0288  0.0530  0.0350
  265loPI    C1 4225  13.196   7.172  11.106 -0.0063  0.0615 -0.0574
  265loPI    C2 4226  13.572   7.297  11.156  0.0218 -0.0355 -0.0231
  265loPI    C3 4227  13.279   7.450  11.380  0.1054 -0.2677  0.2509
  265loPI   PO4 4228  13.178   7.178  10.864  0.0315 -0.2964  0.2059
  265loPI   GL1 4229  12.994   7.234  10.399  0.0125 -0.5402 -0.1160
  265loPI   GL2 4230  13.055   7.536  10.512  0.1063  0.1410  0.4119
  265loPI   C1A 4231  12.816   7.433  10.109  0.0275  0.3321  0.2569
  265loPI   C2A 4232  12.953   7.466   9.640  0.5473  0.0308  0.1195
  265loPI   C3A 4233  12.965   7.541   9.221 -0.1452 -0.1192  0.0082
  265loPI   C4A 4234  12.894   7.579   8.783  0.1888  0.0601  0.4890
  265loPI   C5A 4235  12.928   7.314   8.463  0.3275  0.1397  0.1689
  265loPI   C6A 4236  13.268   7.153   8.145 -0.0861  0.0629 -0.1995
  265loPI   C1B 4237  13.311   7.573  10.122 -0.1614 -0.1914 -0.0303
  265loPI   C2B 4238  13.444   7.566   9.727  0.2351  0.1485  0.2272
  265loPI   C3B 4239  13.491   7.678   9.257 -0.1430  0.1217 -0.1446
  265loPI   C4B 4240  13.333   7.715   8.927 -0.3044 -0.0004 -0.1152
  266loPI    C1 4241  18.069  10.270  11.129  0.0166  0.0054 -0.0388
  266loPI    C2 4242  18.020   9.873  11.128 -0.0212  0.0099  0.0284
  266loPI    C3 4243  18.250  10.045  11.407  0.0296  0.0312 -0.0265
  266loPI   PO4 4244  18.110  10.306  10.888  0.1803 -0.1871  0.2582
  266loPI   GL1 4245  17.939  10.370  10.466  0.2357  0.1209  0.0404
  266loPI   GL2 4246  18.010  10.638  10.535 -0.0969  0.2352  0.2517
  266loPI   C1A 4247  17.747  10.223  10.034 -0.0304 -0.2973 -0.0930
  266loPI   C2A 4248  17.672  10.178   9.575 -0.0112  0.0591 -0.1569
  266loPI   C3A 4249  17.280  10.198   9.274 -0.0921 -0.2902  0.2651
  266loPI   C4A 4250  17.281  10.093   8.918  0.0773  0.0983  0.1424
  266loPI   C5A 4251  17.292  10.140   8.452  0.0673 -0.0348 -0.0364
  266loPI   C6A 4252  17.394  10.125   8.009  0.1547  0.1309  0.1153
  266loPI   C1B 4253  17.930  10.659  10.033  0.2777 -0.0570 -0.0225
  266loPI   C2B 4254  17.884  10.684   9.631  0.3779  0.1422 -0.0792
  266loPI   C3B 4255  17.959  10.742   9.174 -0.2035  0.4112 -0.2169
  266loPI   C4B 4256  17.953  10.675   8.818 -0.2216 -0.1383 -0.0264
  267loPI    C1 4257  17.533   6.316  10.843 -0.1278 -0.1480  0.0586
  267loPI    C2 4258  17.350   6.412  11.186 -0.0236 -0.1376  0.1115
  267loPI    C3 4259  17.620   6.116  11.178  0.2041  0.0673  0.1048
  267loPI   PO4 4260  17.400   6.292  10.685  0.2005 -0.2370 -0.1335
  267loPI   GL1 4261  17.328   6.249  10.356  0.1666  0.0911  0.2895
  267loPI   GL2 4262  17.492   5.980  10.281 -0.2543 -0.0619  0.0471
  267loPI   C1A 4263  17.173   6.265   9.959  0.1246 -0.1024  0.0739
  267loPI   C2A 4264  17.278   6.254   9.466  0.2438  0.0348  0.0363
  267loPI   C3A 4265  17.178   6.366   9.017 -0.1259  0.0791 -0.1925
  267loPI   C4A 4266  17.044   6.302   8.702  0.0257  0.1315 -0.0144
  267loPI   C5A 4267  16.788   6.464   8.288 -0.1652  0.2341 -0.1333
  267loPI   C6A 4268  16.784   6.389   7.814 -0.3546 -0.0938 -0.3128
  267loPI   C1B 4269  17.748   5.869   9.970  0.2857 -0.1041  0.0765
  267loPI   C2B 4270  18.054   5.977   9.691  0.1084  0.0427  0.1068
  267loPI   C3B 4271  18.049   6.084   9.266 -0.0749  0.2940  0.0203
  267loPI   C4B 4272  18.111   6.162   8.815  0.0241 -0.4976 -0.1178
  268loPI    C1 4273   1.966  16.056  11.194  0.2314  0.0681  0.0839
  268loPI    C2 4274   2.202  15.734  11.221  0.0552 -0.0595  0.1190
  268loPI    C3 4275   1.910  15.791  11.488  0.0526  0.1032  0.0823
  268loPI   PO4 4276   1.813  16.023  10.964  0.0863 -0.2133  0.2249
  268loPI   GL1 4277   1.714  16.056  10.530  0.0174  0.0801 -0.3304
  268loPI   GL2 4278   1.905  15.870  10.251 -0.1386 -0.0382  0.2804
  268loPI   C1A 4279   1.542  16.167  10.085  0.0805  0.2151  0.1875
  268loPI   C2A 4280   1.465  16.039   9.576 -0.2402  0.0891  0.1102
  268loPI   C3A 4281   1.395  16.072   9.088  0.0844  0.1741 -0.2001
  268loPI   C4A 4282   1.327  16.030   8.625 -0.2131  0.3958  0.0328
  268loPI   C5A 4283   1.288  16.092   8.232  0.1342 -0.0457  0.0637
  268loPI   C6A 4284   1.193  16.380   7.934  0.0250 -0.0209  0.1691
  268loPI   C1B 4285   1.964  15.753   9.837  0.2518 -0.0498 -0.1454
  268loPI   C2B 4286   1.814  15.682   9.420  0.2119 -0.0320 -0.0170
  268loPI   C3B 4287   1.690  15.598   8.919 -0.0193 -0.3081 -0.1048
  268loPI   C4B 4288   1.819  15.752   8.540  0.3293 -0.2535  0.3585
  269loPI    C1 4289   6.078   1.872  10.583  0.0503 -0.1614 -0.2096
  269loPI    C2 4290   5.897   1.694  10.893 -0.1077 -0.0726 -0.2500
  269loPI    C3 4291   6.276   1.815  10.926 -0.2229  0.2304  0.0218
  269loPI   PO4 4292   5.908   1.786  10.390  0.0721  0.3884  0.2142
  269loPI   GL1 4293   6.053   1.553  10.085 -0.4690 -0.1195 -0.0745
  269loPI   GL2 4294   6.194   1.268  10.067 -0.0153  0.2898  0.1792
  269loPI   C1A 4295   5.838   1.457   9.653 -0.1756  0.2130 -0.2427
  269loPI   C2A 4296   5.737   1.424   9.190  0.2491 -0.1152 -0.0065
  269loPI   C3A 4297   5.806   1.305   8.750  0.0113  0.1037 -0.0652
  269loPI   C4A 4298   5.769   1.343   8.335 -0.2856 -0.0314  0.2464
  269loPI   C5A 4299   6.159   1.379   7.992 -0.3586 -0.1404  0.1525
  269loPI   C6A 4300   6.481   1.173   7.887 -0.1898 -0.2641  0.0788
  269loPI   C1B 4301   6.383   1.393   9.687  0.0010 -0.0468 -0.3459
  269loPI   C2B 4302   6.463   1.445   9.250 -0.0442  0.2684  0.3200
  269loPI   C3B 4303   6.529   1.374   8.795  0.0760  0.0364  0.0543
  269loPI   C4B 4304   6.607   1.266   8.365 -0.0443 -0.1426 -0.0961
  270loPI    C1 4305   7.961  17.806  11.028  0.2607  0.1753 -0.1337
  270loPI    C2 4306   7.718  18.124  11.039  0.0277 -0.0049  0.0557
  270loPI    C3 4307   7.691  17.842  11.321  0.1704 -0.2390 -0.1598
  270loPI   PO4 4308   7.957  17.655  10.804 -0.0869  0.2035 -0.0148
  270loPI   GL1 4309   7.978  17.446  10.405 -0.1830 -0.0224  0.2055
  270loPI   GL2 4310   8.129  17.852  10.238  0.1212  0.1654 -0.0001
  270loPI   C1A 4311   7.841  17.419   9.954 -0.0453  0.0923  0.1294
  270loPI   C2A 4312   7.852  17.242   9.512 -0.1952  0.0351 -0.0465
  270loPI   C3A 4313   7.876  17.140   9.072 -0.0721  0.1361  0.0614
  270loPI   C4A 4314   7.875  17.244   8.639 -0.0243 -0.0782  0.0846
  270loPI   C5A 4315   7.790  17.628   8.374 -0.1520  0.0135  0.0156
  270loPI   C6A 4316   8.044  17.752   8.147  0.1040  0.0096  0.0699
  270loPI   C1B 4317   8.202  18.081   9.864 -0.1027  0.0507 -0.0236
  270loPI   C2B 4318   8.142  18.097   9.392  0.0500  0.1494  0.2968
  270loPI   C3B 4319   8.295  18.042   9.012 -0.2286 -0.0183 -0.0951
  270loPI   C4B 4320   8.404  17.994   8.627  0.0993  0.2025 -0.2141
  271loPI    C1 4321   1.505  11.150  11.080 -0.1633 -0.1670 -0.1179
  271loPI    C2 4322   1.789  11.079  11.353 -0.2046  0.1482  0.0101
  271loPI    C3 4323   1.413  11.153  11.469 -0.2673  0.0746 -0.1430
  271loPI   PO4 4324   1.633  11.348  10.804  0.2690  0.0441 -0.0114
  271loPI   GL1 4325   1.467  11.413  10.424 -0.2676  0.3696 -0.5532
  271loPI   GL2 4326   1.648  11.255  10.272 -0.0483 -0.2572  0.3329
  271loPI   C1A 4327   1.202  11.567  10.133  0.0293 -0.2348 -0.4897
  271loPI   C2A 4328   1.332  11.638   9.718  0.2007 -0.0448 -0.3034
  271loPI   C3A 4329   1.410  11.623   9.361 -0.0176  0.1766  0.3022
  271loPI   C4A 4330   1.498  11.575   8.936 -0.2273 -0.3153  0.2079
  271loPI   C5A 4331   1.335  11.507   8.580 -0.0560  0.0009  0.1939
  271loPI   C6A 4332   1.353  11.516   8.100 -0.0941  0.1593 -0.1769
  271loPI   C1B 4333   1.641  11.276   9.814 -0.2698  0.0501 -0.4266
  271loPI   C2B 4334   1.742  11.187   9.360  0.0773  0.2638  0.1387
  271loPI   C3B 4335   1.871  11.157   8.961  0.4027  0.2771 -0.0175
  271loPI   C4B 4336   1.900  11.132   8.505  0.4460 -0.0078  0.3903
  272loPI    C1 4337   4.503   5.038  10.998  0.1221  0.1675  0.1745
  272loPI    C2 4338   4.344   5.136  11.352  0.1154  0.2524  0.1484
  272loPI    C3 4339   4.330   4.757  11.224  0.2259  0.1980  0.2937
  272loPI   PO4 4340   4.739   5.153  10.963  0.0819  0.0071  0.0354
  272loPI   GL1 4341   4.995   5.071  10.626  0.2170 -0.0871  0.1614
  272loPI   GL2 4342   5.136   5.233  10.332 -0.2504  0.0574  0.1741
  272loPI   C1A 4343   4.781   4.948  10.215 -0.1476 -0.0504  0.2346
  272loPI   C2A 4344   4.732   4.875   9.818 -0.0212 -0.1567  0.1539
  272loPI   C3A 4345   4.694   4.932   9.392 -0.1452 -0.4281 -0.4355
  272loPI   C4A 4346   4.656   4.821   9.001  0.2303  0.1155  0.1057
  272loPI   C5A 4347   4.701   4.863   8.595  0.0647  0.1614  0.2210
  272loPI   C6A 4348   4.793   4.954   8.169 -0.0912 -0.0862 -0.0231
  272loPI   C1B 4349   5.143   5.236   9.834  0.0484  0.2320  0.1025
  272loPI   C2B 4350   5.044   5.301   9.376  0.3459 -0.3804  0.1246
  272loPI   C3B 4351   4.998   5.288   8.901  0.1079  0.1776 -0.0462
  272loPI   C4B 4352   5.101   5.346   8.551 -0.2162 -0.0861  0.1217
  273loPI    C1 4353  13.314   0.553  11.191 -0.0642 -0.0620 -0.0076
  273loPI    C2 4354  13.048   0.461  11.475 -0.0894  0.3507  0.1088
  273loPI    C3 4355  13.420   0.316  11.495 -0.2325 -0.0330  0.0750
  273loPI   PO4 4356  13.316   0.497  10.972 -0.2718 -0.0517 -0.3477
  273loPI   GL1 4357  13.036   0.793  10.703 -0.1671 -0.1786  0.2313
  273loPI   GL2 4358  13.373   0.760  10.512  0.0128  0.3885  0.1459
  273loPI   C1A 4359  12.840   0.852  10.350 -0.0235  0.2465 -0.0132
  273loPI   C2A 4360  12.824   0.755   9.944 -0.0370 -0.0846  0.0419
  273loPI   C3A 4361  12.801   0.593   9.538 -0.0133  0.0386  0.0545
  273loPI   C4A 4362  12.794   0.549   9.107  0.0185  0.2038 -0.1176
  273loPI   C5A 4363  12.932   0.538   8.605  0.1390 -0.2263  0.3692
  273loPI   C6A 4364  13.227   0.595   8.299  0.3529 -0.1677 -0.1400
  273loPI   C1B 4365  13.272   1.053  10.106 -0.1761  0.0888 -0.1677
  273loPI   C2B 4366  13.278   0.977   9.689  0.3549 -0.1482  0.0141
  273loPI   C3B 4367  13.178   0.814   9.330  0.0320  0.1067  0.1175
  273loPI   C4B 4368  13.267   0.342   9.149 -0.1256  0.0138  0.1463
  274loPI    C1 4369   6.599  17.704  10.518  0.4150 -0.1188  0.0826
  274loPI    C2 4370   6.509  17.784  10.900 -0.1859  0.0130 -0.0766
  274loPI    C3 4371   6.488  17.408  10.763 -0.1837 -0.0033 -0.0332
  274loPI   PO4 4372   6.630  18.001  10.430  0.0207 -0.1348 -0.0644
  274loPI   GL1 4373   6.342  18.108  10.117  0.1130 -0.2520  0.0195
  274loPI   GL2 4374   6.425  17.787  10.036 -0.3265  0.3012 -0.1588
  274loPI   C1A 4375   6.475  18.229   9.681 -0.1989  0.0462  0.1280
  274loPI   C2A 4376   6.484  18.062   9.336 -0.0155 -0.0210 -0.0451
  274loPI   C3A 4377   6.502  17.952   8.954  0.3725 -0.1704 -0.1341
  274loPI   C4A 4378   6.633  17.809   8.573  0.2961  0.2017 -0.0953
  274loPI   C5A 4379   6.892  17.651   8.235  0.1096  0.0246 -0.0124
  274loPI   C6A 4380   6.848  17.472   7.787 -0.2193  0.0351  0.0182
  274loPI   C1B 4381   6.228  17.701   9.624 -0.1757  0.1793 -0.3015
  274loPI   C2B 4382   6.190  17.668   9.265 -0.2116  0.0208  0.0626
  274loPI   C3B 4383   6.128  17.635   8.827  0.0637  0.1936  0.1811
  274loPI   C4B 4384   6.188  17.692   8.384  0.1806 -0.2952  0.4326
  275loPI    C1 4385   1.182  14.164  10.935 -0.0221 -0.3061 -0.3719
  275loPI    C2 4386   1.220  13.949  11.270 -0.0568 -0.0454 -0.1968
  275loPI    C3 4387   1.498  14.219  11.174 -0.2547  0.1744 -0.1607
  275loPI   PO4 4388   1.149  13.997  10.759 -0.0219 -0.2239 -0.2546
  275loPI   GL1 4389   0.945  13.748  10.456  0.0184 -0.3018 -0.0404
  275loPI   GL2 4390   1.237  13.525  10.343  0.0783  0.0067 -0.3809
  275loPI   C1A 4391   0.569  13.715  10.151 -0.2229 -0.0996  0.2330
  275loPI   C2A 4392   0.558  13.657   9.682 -0.1197  0.2003 -0.0819
  275loPI   C3A 4393   0.543  13.647   9.295 -0.2136 -0.0815  0.1305
  275loPI   C4A 4394   0.634  13.601   8.793 -0.1036  0.0285  0.0844
  275loPI   C5A 4395   0.514  13.483   8.383  0.0624  0.2978 -0.2601
  275loPI   C6A 4396   0.284  13.429   8.018 -0.0205  0.3732 -0.1208
  275loPI   C1B 4397   1.103  13.630  10.011  0.0997  0.0163  0.0332
  275loPI   C2B 4398   1.050  13.694   9.561 -0.0601 -0.1295 -0.3038
  275loPI   C3B 4399   1.019  13.787   9.163 -0.1571  0.0531  0.0205
  275loPI   C4B 4400   1.141  13.842   8.647 -0.0043 -0.0395 -0.0259
  276loPI    C1 4401   7.995   3.382  10.363  0.2973  0.0551  0.0449
  276loPI    C2 4402   7.920   3.604  10.688 -0.1486 -0.2007  0.1255
  276loPI    C3 4403   8.208   3.326  10.697  0.1850  0.1374  0.1311
  276loPI   PO4 4404   8.055   3.601  10.148 -0.0621  0.2336 -0.2212
  276loPI   GL1 4405   8.433   3.747   9.896  0.0497 -0.0944  0.0500
  276loPI   GL2 4406   8.207   3.933   9.776  0.0143  0.2783 -0.0851
  276loPI   C1A 4407   8.463   3.336   9.740  0.1895 -0.1888 -0.0988
  276loPI   C2A 4408   8.477   3.200   9.371 -0.2485 -0.3665  0.1743
  276loPI   C3A 4409   8.324   2.973   9.016 -0.2117 -0.0865 -0.3392
  276loPI   C4A 4410   8.402   2.892   8.625  0.4150 -0.0912 -0.1370
  276loPI   C5A 4411   8.454   3.119   8.185  0.0715  0.1352 -0.0027
  276loPI   C6A 4412   8.565   3.436   7.982  0.2032 -0.3276 -0.1988
  276loPI   C1B 4413   8.420   3.686   9.367 -0.2259 -0.1617 -0.0781
  276loPI   C2B 4414   8.312   3.531   8.951 -0.1136  0.1973  0.0728
  276loPI   C3B 4415   8.541   3.378   8.556 -0.0049  0.2642 -0.0902
  276loPI   C4B 4416   9.050   3.300   8.651  0.0121 -0.0221  0.0304
  277loPI    C1 4417  15.875   8.194  10.840  0.1959  0.1718 -0.2975
  277loPI    C2 4418  16.258   8.083  10.813  0.1904  0.0459  0.0741
  277loPI    C3 4419  16.150   8.366  11.074  0.0078 -0.0289  0.0806
  277loPI   PO4 4420  15.843   8.193  10.575  0.3332 -0.0924  0.1438
  277loPI   GL1 4421  15.980   8.307  10.202 -0.0216  0.2194 -0.1151
  277loPI   GL2 4422  16.302   8.371  10.075 -0.0597  0.0590 -0.2461
  277loPI   C1A 4423  15.936   8.291   9.737  0.1847  0.0910 -0.0391
  277loPI   C2A 4424  15.942   8.268   9.332 -0.0838 -0.1453 -0.3163
  277loPI   C3A 4425  15.918   8.379   8.902  0.0829  0.3207  0.0877
  277loPI   C4A 4426  15.991   8.173   8.494 -0.0993 -0.2490  0.2198
  277loPI   C5A 4427  16.295   8.072   8.098 -0.3330  0.3274  0.1365
  277loPI   C6A 4428  16.136   7.879   7.677  0.1039  0.0010 -0.3047
  277loPI   C1B 4429  16.427   8.379   9.660  0.0335 -0.0161 -0.1308
  277loPI   C2B 4430  16.418   8.511   9.205  0.1085 -0.0976  0.2056
  277loPI   C3B 4431  16.401   8.422   8.757 -0.1779 -0.1300  0.0216
  277loPI   C4B 4432  16.383   8.531   8.324  0.2612 -0.1509 -0.0682
  278loPI    C1 4433   9.058   2.247  10.696 -0.0037 -0.0232  0.1493
  278loPI    C2 4434   8.865   1.937  10.532 -0.0346  0.0079  0.1270
  278loPI    C3 4435   8.783   2.049  10.907 -0.1123  0.0664  0.0929
  278loPI   PO4 4436   9.079   2.468  10.474  0.0768  0.2313  0.1779
  278loPI   GL1 4437   8.886   2.696  10.172 -0.1848  0.0196 -0.2264
  278loPI   GL2 4438   8.593   2.780  10.069 -0.4304 -0.1644 -0.2808
  278loPI   C1A 4439   9.117   2.514   9.758  0.3132 -0.0290 -0.1184
  278loPI   C2A 4440   9.041   2.415   9.292 -0.0978  0.3784  0.1059
  278loPI   C3A 4441   8.995   2.360   8.906 -0.0941 -0.0320 -0.0124
  278loPI   C4A 4442   8.955   2.176   8.485  0.2958  0.0549  0.3393
  278loPI   C5A 4443   8.793   2.197   8.069 -0.0960  0.0605 -0.1757
  278loPI   C6A 4444   8.736   1.931   7.793 -0.0925  0.0244  0.2144
  278loPI   C1B 4445   8.369   2.826   9.752  0.4550 -0.1998 -0.1757
  278loPI   C2B 4446   8.077   2.553   9.569  0.2216 -0.2747  0.1712
  278loPI   C3B 4447   8.128   2.338   9.141  0.0862  0.3545  0.1044
  278loPI   C4B 4448   8.020   2.386   8.739 -0.0035 -0.2763 -0.0695
  279loPI    C1 4449   7.850   7.136  11.128  0.1856  0.1774  0.0146
  279loPI    C2 4450   7.470   7.016  11.163  0.2861 -0.0682  0.2990
  279loPI    C3 4451   7.623   7.273  11.428  0.2350  0.2654  0.0120
  279loPI   PO4 4452   7.913   7.322  10.809  0.1633  0.0331 -0.0763
  279loPI   GL1 4453   7.804   7.190  10.294 -0.1889  0.1134 -0.2488
  279loPI   GL2 4454   7.517   7.161  10.126  0.0724  0.1251  0.2345
  279loPI   C1A 4455   7.941   7.349   9.880 -0.3014 -0.0368 -0.0285
  279loPI   C2A 4456   8.110   7.389   9.470 -0.1900  0.0856 -0.1382
  279loPI   C3A 4457   8.167   7.428   9.041  0.1712 -0.3546 -0.0621
  279loPI   C4A 4458   8.221   7.397   8.658  0.0598  0.1287 -0.2201
  279loPI   C5A 4459   8.184   7.198   8.229  0.3778  0.1761  0.1113
  279loPI   C6A 4460   8.273   7.420   7.897 -0.2300 -0.0922  0.0656
  279loPI   C1B 4461   7.410   7.277   9.755 -0.3043  0.1822  0.0090
  279loPI   C2B 4462   7.550   7.304   9.320  0.0738 -0.4121  0.2101
  279loPI   C3B 4463   7.690   7.261   8.939  0.2998  0.3184 -0.0571
  279loPI   C4B 4464   7.786   7.266   8.557 -0.2776  0.0141 -0.3512
  280loPI    C1 4465  15.354   1.834  10.979  0.0750  0.2929  0.1163
  280loPI    C2 4466  15.678   1.741  11.195  0.0224  0.0217  0.0812
  280loPI    C3 4467  15.344   1.863  11.378  0.0766  0.0959  0.1313
  280loPI   PO4 4468  15.395   1.713  10.765  0.1583  0.0092 -0.0352
  280loPI   GL1 4469  15.416   1.852  10.361 -0.4020  0.1106 -0.4101
  280loPI   GL2 4470  15.661   1.601  10.288  0.0800  0.4133  0.1025
  280loPI   C1A 4471  15.333   2.040  10.005 -0.2340  0.0761  0.0326
  280loPI   C2A 4472  15.054   2.223   9.841 -0.2105  0.0333 -0.1183
  280loPI   C3A 4473  14.983   2.568   9.523 -0.1012 -0.1892 -0.4927
  280loPI   C4A 4474  15.085   2.650   9.110  0.0342  0.2801  0.0707
  280loPI   C5A 4475  15.127   2.785   8.706  0.1813  0.0190  0.0539
  280loPI   C6A 4476  15.062   2.926   8.356  0.1235  0.0188 -0.1129
  280loPI   C1B 4477  15.767   1.606   9.846  0.1732 -0.3790  0.0228
  280loPI   C2B 4478  15.732   1.710   9.451 -0.0006  0.0735 -0.2830
  280loPI   C3B 4479  15.534   1.769   9.063 -0.1815  0.2001 -0.4964
  280loPI   C4B 4480  15.319   1.868   8.667 -0.1869 -0.0981  0.0756
  281loPI    C1 4481   7.378  12.511  10.873 -0.0052  0.1941 -0.0127
  281loPI    C2 4482   7.703  12.305  10.982  0.0038  0.0170 -0.3604
  281loPI    C3 4483   7.340  12.140  11.017 -0.0437  0.1768 -0.0672
  281loPI   PO4 4484   7.340  12.579  10.633 -0.1823 -0.0914  0.1385
  281loPI   GL1 4485   7.449  12.475  10.154 -0.0102  0.7265 -0.0842
  281loPI   GL2 4486   7.352  12.665   9.924  0.0445  0.0505  0.1153
  281loPI   C1A 4487   7.817  12.361   9.928  0.1931 -0.1715 -0.0239
  281loPI   C2A 4488   8.080  12.229   9.692 -0.3252  0.2452  0.0338
  281loPI   C3A 4489   8.196  11.977   9.228  0.0929  0.0239 -0.3311
  281loPI   C4A 4490   8.068  11.896   8.754 -0.1387  0.1163  0.1259
  281loPI   C5A 4491   8.110  11.995   8.412  0.1844 -0.3646 -0.2430
  281loPI   C6A 4492   7.957  12.211   8.156 -0.3743 -0.1064  0.2806
  281loPI   C1B 4493   7.484  12.484   9.503  0.1438 -0.1283 -0.2141
  281loPI   C2B 4494   7.344  12.344   9.168  0.1470  0.0503 -0.4366
  281loPI   C3B 4495   7.438  12.030   8.847 -0.1619  0.0365 -0.5875
  281loPI   C4B 4496   7.500  11.972   8.518  0.0794  0.2319 -0.1841
  282loPI    C1 4497  12.128  18.098  11.176  0.1267 -0.0539 -0.1362
  282loPI    C2 4498  12.155  17.726  11.319 -0.1596  0.1102  0.3723
  282loPI    C3 4499  12.339  18.026  11.508 -0.2087  0.2773  0.1584
  282loPI   PO4 4500  12.010  18.006  10.921  0.1665  0.2963 -0.3208
  282loPI   GL1 4501  12.060  18.074  10.443  0.1458 -0.1257 -0.2140
  282loPI   GL2 4502  11.963  17.802  10.416  0.1362  0.1147  0.1344
  282loPI   C1A 4503  12.338  18.125  10.218  0.2907 -0.0872 -0.3637
  282loPI   C2A 4504  12.358  18.112   9.680  0.0269  0.0216  0.2183
  282loPI   C3A 4505  12.383  17.957   9.277 -0.0157 -0.0363  0.0339
  282loPI   C4A 4506  12.470  17.935   8.801  0.4426  0.0307 -0.6005
  282loPI   C5A 4507  12.949  17.843   8.749  0.0548  0.0687 -0.1592
  282loPI   C6A 4508  13.315  17.519   8.768  0.1926 -0.1166 -0.0727
  282loPI   C1B 4509  11.949  17.867  10.015 -0.0783  0.1425 -0.0401
  282loPI   C2B 4510  12.000  17.753   9.600 -0.1068  0.0001 -0.0590
  282loPI   C3B 4511  11.945  17.653   9.165  0.1666  0.1247 -0.1551
  282loPI   C4B 4512  11.999  17.614   8.800  0.2689  0.4250  0.3173
  283loPI    C1 4513  10.654  17.064  10.767 -0.0628 -0.4275 -0.0119
  283loPI    C2 4514  10.609  16.958  11.150 -0.0945  0.0860  0.1337
  283loPI    C3 4515  10.975  16.982  10.990 -0.0601  0.1764  0.2246
  283loPI   PO4 4516  10.488  17.220  10.668 -0.2027 -0.2439 -0.0878
  283loPI   GL1 4517  10.480  17.511  10.368  0.0215 -0.3765  0.3918
  283loPI   GL2 4518  10.648  17.349  10.111  0.1300  0.2477  0.0465
  283loPI   C1A 4519  10.309  17.625   9.905  0.1245  0.0189  0.2818
  283loPI   C2A 4520  10.137  17.610   9.436 -0.0450 -0.2972  0.0910
  283loPI   C3A 4521  10.187  17.572   9.029 -0.0981 -0.0500  0.4248
  283loPI   C4A 4522  10.263  17.554   8.620  0.1641  0.1529  0.0776
  283loPI   C5A 4523  10.508  17.773   8.357  0.0542  0.1661 -0.1377
  283loPI   C6A 4524  10.667  17.887   7.945  0.2540  0.0663 -0.1959
  283loPI   C1B 4525  10.652  17.372   9.657 -0.1078  0.1079  0.0382
  283loPI   C2B 4526  10.648  17.360   9.206  0.2270 -0.3463  0.1877
  283loPI   C3B 4527  10.742  17.301   8.796 -0.0101  0.0564  0.2561
  283loPI   C4B 4528  10.819  17.132   8.437  0.2163 -0.1219 -0.0514
  284loPI    C1 4529  14.541  15.939  10.986 -0.1235  0.0420 -0.0346
  284loPI    C2 4530  14.781  16.177  11.201  0.0001  0.1606 -0.2989
  284loPI    C3 4531  14.588  15.875  11.378  0.0390  0.3025 -0.0084
  284loPI   PO4 4532  14.665  15.952  10.773  0.0192  0.1697  0.2052
  284loPI   GL1 4533  14.927  15.717  10.523  0.0127  0.1842 -0.3448
  284loPI   GL2 4534  14.794  15.475  10.548  0.1685  0.0335  0.2783
  284loPI   C1A 4535  14.722  15.914  10.123 -0.0583  0.2438  0.1686
  284loPI   C2A 4536  14.690  15.846   9.790  0.0597  0.1308  0.3260
  284loPI   C3A 4537  14.815  15.926   9.465  0.0489 -0.0333 -0.1117
  284loPI   C4A 4538  14.910  16.186   9.107 -0.2841 -0.1255 -0.1919
  284loPI   C5A 4539  14.819  16.440   8.719 -0.2717 -0.1991 -0.1942
  284loPI   C6A 4540  14.974  16.331   8.414  0.3175  0.1447 -0.4556
  284loPI   C1B 4541  14.836  15.419  10.145 -0.4181 -0.3146  0.0641
  284loPI   C2B 4542  14.806  15.345   9.710  0.2415  0.0044 -0.0016
  284loPI   C3B 4543  14.639  15.482   9.316 -0.0143  0.0300 -0.1443
  284loPI   C4B 4544  14.192  15.441   9.090  0.1990  0.3479 -0.0491
  285loPI    C1 4545   5.945   8.245  10.696  0.0555  0.0490  0.1028
  285loPI    C2 4546   6.083   8.077  11.032 -0.1188  0.1033  0.2029
  285loPI    C3 4547   5.703   8.018  10.920 -0.0414  0.0248 -0.0251
  285loPI   PO4 4548   6.195   8.206  10.479  0.0199 -0.0674  0.0528
  285loPI   GL1 4549   6.500   8.294  10.160 -0.0328 -0.1664  0.1996
  285loPI   GL2 4550   6.704   7.960  10.166  0.0375  0.1448 -0.3230
  285loPI   C1A 4551   6.434   8.441   9.710 -0.0148  0.0357  0.1258
  285loPI   C2A 4552   6.675   8.509   9.315 -0.0041 -0.2248  0.1536
  285loPI   C3A 4553   6.725   8.435   8.921 -0.0151  0.1425 -0.0726
  285loPI   C4A 4554   6.636   8.428   8.517 -0.1186  0.0297 -0.0856
  285loPI   C5A 4555   6.524   8.208   8.121  0.0178  0.1795 -0.1567
  285loPI   C6A 4556   6.184   7.944   8.090 -0.4371  0.1888  0.0237
  285loPI   C1B 4557   6.776   8.039   9.694 -0.0497  0.1874  0.0325
  285loPI   C2B 4558   6.885   8.000   9.216  0.0086 -0.2455 -0.3675
  285loPI   C3B 4559   7.000   8.035   8.726 -0.3340 -0.2630 -0.0692
  285loPI   C4B 4560   7.184   8.065   8.331 -0.2178 -0.3992  0.2375
  286loPI    C1 4561  17.677  13.998  11.387  0.2725  0.0993 -0.0142
  286loPI    C2 4562  17.483  14.299  11.564  0.0574  0.0735 -0.2022
  286loPI    C3 4563  17.803  14.137  11.740 -0.0382  0.1744  0.0697
  286loPI   PO4 4564  17.684  14.112  11.075  0.1357  0.2038  0.1682
  286loPI   GL1 4565  17.558  13.763  10.837  0.0715 -0.2986  0.2339
  286loPI   GL2 4566  17.919  13.874  10.641  0.0117  0.0760 -0.0178
  286loPI   C1A 4567  17.526  13.720  10.359 -0.1481  0.0238  0.4293
  286loPI   C2A 4568  17.473  13.718   9.924 -0.2393 -0.0823 -0.1500
  286loPI   C3A 4569  17.435  13.733   9.532  0.1316 -0.2904 -0.1704
  286loPI   C4A 4570  17.376  13.809   9.155 -0.1301  0.2825  0.1356
  286loPI   C5A 4571  17.343  13.785   8.766 -0.0100 -0.2977  0.0389
  286loPI   C6A 4572  17.106  13.937   8.430  0.2125 -0.4245  0.1021
  286loPI   C1B 4573  17.980  14.130  10.223 -0.1069  0.1531 -0.0328
  286loPI   C2B 4574  17.889  13.947   9.787  0.0664 -0.1788 -0.2213
  286loPI   C3B 4575  17.857  13.932   9.338  0.1190  0.0986  0.1957
  286loPI   C4B 4576  17.924  13.918   8.916 -0.1036 -0.1172  0.0677
  287loPI    C1 4577   2.701   5.582  10.814 -0.0694 -0.0854  0.0278
  287loPI    C2 4578   2.310   5.511  10.771 -0.0756 -0.0004 -0.0615
  287loPI    C3 4579   2.523   5.304  11.039 -0.1194 -0.2600 -0.2236
  287loPI   PO4 4580   2.854   5.487  10.549  0.0498 -0.2258 -0.1343
  287loPI   GL1 4581   2.788   5.769  10.205 -0.0119  0.0487 -0.0896
  287loPI   GL2 4582   3.099   5.777  10.206  0.3189 -0.1637 -0.2640
  287loPI   C1A 4583   2.726   5.864   9.790  0.2045 -0.1917  0.1433
  287loPI   C2A 4584   2.752   6.038   9.452  0.3465  0.1813  0.1203
  287loPI   C3A 4585   2.708   6.116   9.128  0.0859  0.1492 -0.0203
  287loPI   C4A 4586   2.814   6.073   8.751 -0.0832 -0.0249  0.1492
  287loPI   C5A 4587   2.762   5.980   8.301  0.1664 -0.1429 -0.0451
  287loPI   C6A 4588   2.385   5.871   8.178 -0.2485  0.1407  0.1397
  287loPI   C1B 4589   3.241   5.855   9.777 -0.1689  0.1724 -0.0009
  287loPI   C2B 4590   3.240   6.010   9.286 -0.3447 -0.2856  0.7279
  287loPI   C3B 4591   3.365   5.928   8.843  0.1901  0.1453  0.1069
  287loPI   C4B 4592   3.261   5.962   8.420  0.1854 -0.0593  0.2757
  288loPI    C1 4593  13.776   1.870  10.952  0.2822  0.0929  0.0626
  288loPI    C2 4594  13.789   1.930  11.347 -0.0109 -0.2654  0.1319
  288loPI    C3 4595  14.113   1.796  11.154  0.1937  0.0986  0.2132
  288loPI   PO4 4596  13.683   2.131  10.844  0.1032 -0.1250 -0.2799
  288loPI   GL1 4597  13.489   2.275  10.430  0.0701 -0.0793 -0.0039
  288loPI   GL2 4598  13.366   2.002  10.241  0.2553 -0.1998 -0.2917
  288loPI   C1A 4599  13.697   2.319  10.035 -0.2673  0.1505 -0.1872
  288loPI   C2A 4600  13.690   2.182   9.579 -0.0622  0.0707 -0.0748
  288loPI   C3A 4601  13.685   2.259   9.180 -0.0549 -0.0456 -0.1509
  288loPI   C4A 4602  13.612   2.390   8.758 -0.2022 -0.1804 -0.0854
  288loPI   C5A 4603  13.703   2.311   8.305 -0.1335  0.1198  0.0533
  288loPI   C6A 4604  13.668   2.577   7.943  0.0647 -0.1665  0.0761
  288loPI   C1B 4605  13.312   2.004   9.818  0.1276  0.0047  0.2608
  288loPI   C2B 4606  13.314   1.961   9.393 -0.1692  0.2718 -0.2119
  288loPI   C3B 4607  13.338   2.005   8.946  0.0660 -0.2420 -0.0093
  288loPI   C4B 4608  13.272   2.023   8.411  0.3639 -0.0866  0.2073
  289loPI    C1 4609   1.122   9.035  11.049  0.1496  0.1370 -0.0595
  289loPI    C2 4610   0.790   8.918  11.238  0.3184 -0.2753 -0.0079
  289loPI    C3 4611   1.091   9.080  11.446  0.2118 -0.0417 -0.0332
  289loPI   PO4 4612   1.114   8.829  10.844 -0.1584  0.1217 -0.3049
  289loPI   GL1 4613   1.218   8.799  10.436  0.0814 -0.1507 -0.2703
  289loPI   GL2 4614   1.421   8.733  10.212 -0.2946  0.1076 -0.1072
  289loPI   C1A 4615   0.963   8.891  10.072 -0.3524 -0.1442  0.1334
  289loPI   C2A 4616   0.999   8.986   9.639  0.0584  0.0570 -0.0011
  289loPI   C3A 4617   1.006   8.808   9.259  0.2684  0.2488 -0.1087
  289loPI   C4A 4618   1.102   8.755   8.827  0.2226  0.0092  0.1001
  289loPI   C5A 4619   1.031   8.809   8.401  0.1645  0.0087 -0.0513
  289loPI   C6A 4620   1.056   9.044   7.975 -0.1221 -0.0578  0.2764
  289loPI   C1B 4621   1.387   8.744   9.711 -0.0450  0.0680  0.0539
  289loPI   C2B 4622   1.417   8.530   9.316  0.0043 -0.0027 -0.3169
  289loPI   C3B 4623   1.424   8.436   8.825  0.2137 -0.3211 -0.1124
  289loPI   C4B 4624   1.213   8.314   8.435  0.2544  0.2456  0.1877
  290loPI    C1 4625  14.066  16.127  10.830 -0.1161 -0.0043 -0.0517
  290loPI    C2 4626  14.056  15.791  11.048 -0.0550 -0.1978 -0.3412
  290loPI    C3 4627  14.121  16.144  11.226 -0.1094 -0.3391 -0.0354
  290loPI   PO4 4628  13.908  16.127  10.657  0.1288  0.2062  0.1232
  290loPI   GL1 4629  13.798  16.295  10.274 -0.1508 -0.0503 -0.0852
  290loPI   GL2 4630  13.772  15.998  10.156 -0.0285 -0.3650  0.0973
  290loPI   C1A 4631  13.780  16.313   9.796 -0.2976  0.1353  0.1066
  290loPI   C2A 4632  13.482  16.097   9.403  0.1083  0.0180  0.1691
  290loPI   C3A 4633  13.233  15.973   9.048 -0.5689  0.1908 -0.0841
  290loPI   C4A 4634  13.462  15.694   8.773 -0.0869  0.0382 -0.2012
  290loPI   C5A 4635  13.515  15.512   8.423  0.2696  0.0119 -0.0476
  290loPI   C6A 4636  13.291  15.330   8.088 -0.1186 -0.0885 -0.3711
  290loPI   C1B 4637  13.858  15.771   9.879 -0.0558 -0.1110  0.0295
  290loPI   C2B 4638  13.917  15.733   9.458 -0.1632  0.1752  0.2083
  290loPI   C3B 4639  13.795  15.869   9.062 -0.3316 -0.0328  0.0516
  290loPI   C4B 4640  13.732  16.071   8.613 -0.4938 -0.2983 -0.0510
  291loPI    C1 4641   3.113   5.028  10.765 -0.3337 -0.1336  0.0704
  291loPI    C2 4642   3.287   5.384  10.819 -0.1646 -0.1670 -0.2324
  291loPI    C3 4643   3.014   5.253  11.081 -0.0933  0.1021 -0.0187
  291loPI   PO4 4644   3.133   5.036  10.496 -0.2137 -0.0159  0.4096
  291loPI   GL1 4645   2.910   5.271  10.102 -0.0431 -0.1406 -0.1291
  291loPI   GL2 4646   3.025   5.427   9.821 -0.1114 -0.0025 -0.0241
  291loPI   C1A 4647   2.749   5.160   9.588  0.0186 -0.0152 -0.1752
  291loPI   C2A 4648   2.682   5.233   9.182  0.2134 -0.1004 -0.3354
  291loPI   C3A 4649   2.530   5.208   8.840  0.0206  0.1010 -0.2373
  291loPI   C4A 4650   2.529   5.241   8.427  0.1917 -0.1134 -0.2306
  291loPI   C5A 4651   2.744   4.996   8.062 -0.1781  0.2181  0.0515
  291loPI   C6A 4652   2.773   4.810   7.634  0.1447  0.0923 -0.0457
  291loPI   C1B 4653   2.982   5.541   9.448 -0.1371 -0.2148 -0.0846
  291loPI   C2B 4654   2.988   5.638   8.984 -0.0919  0.0383 -0.1725
  291loPI   C3B 4655   2.942   5.600   8.568  0.1977  0.1362 -0.2182
  291loPI   C4B 4656   2.784   5.542   8.185 -0.2901 -0.1123  0.1772
  292loPI    C1 4657  10.611  15.959  10.999 -0.0729 -0.1334 -0.0586
  292loPI    C2 4658  10.854  16.122  11.271 -0.0347 -0.0617 -0.1355
  292loPI    C3 4659  10.720  15.749  11.321 -0.2377  0.0417  0.1143
  292loPI   PO4 4660  10.686  16.027  10.801 -0.1928 -0.1516 -0.2841
  292loPI   GL1 4661  10.803  16.253  10.389  0.0172 -0.0686 -0.1979
  292loPI   GL2 4662  10.967  16.382  10.375 -0.2140 -0.1088  0.1186
  292loPI   C1A 4663  10.822  15.848  10.146  0.0086  0.0604 -0.1806
  292loPI   C2A 4664  10.755  15.704   9.742 -0.0247 -0.0715 -0.0563
  292loPI   C3A 4665  10.738  15.796   9.266 -0.0331 -0.1122  0.1770
  292loPI   C4A 4666  10.778  15.789   8.803 -0.0395 -0.2345  0.3187
  292loPI   C5A 4667  10.467  15.745   8.461  0.0383 -0.2247 -0.0568
  292loPI   C6A 4668  10.214  15.404   8.391 -0.0524  0.0890  0.1057
  292loPI   C1B 4669  10.732  16.356   9.865 -0.1834 -0.0202  0.1035
  292loPI   C2B 4670  10.694  16.350   9.418  0.4747 -0.0880  0.1250
  292loPI   C3B 4671  10.778  16.310   8.970 -0.2125  0.3140 -0.0233
  292loPI   C4B 4672  10.769  16.297   8.522 -0.1852 -0.3452  0.0406
  293loPI    C1 4673  12.393   4.383  11.151 -0.0681 -0.1319  0.0041
  293loPI    C2 4674  12.769   4.492  11.070 -0.1038  0.1119  0.1583
  293loPI    C3 4675  12.671   4.367  11.437 -0.1834  0.0951  0.1315
  293loPI   PO4 4676  12.286   4.627  11.046 -0.0366 -0.0452 -0.0046
  293loPI   GL1 4677  12.221   4.895  10.652 -0.0282 -0.2375 -0.0105
  293loPI   GL2 4678  11.861   4.933  10.566  0.0095 -0.0241 -0.3092
  293loPI   C1A 4679  12.195   4.733  10.290 -0.0009 -0.0546 -0.0453
  293loPI   C2A 4680  12.194   4.601   9.775  0.2691  0.0241 -0.0179
  293loPI   C3A 4681  12.137   4.598   9.335 -0.1850  0.1313  0.0117
  293loPI   C4A 4682  12.160   4.705   8.866  0.0521  0.1995  0.2256
  293loPI   C5A 4683  12.267   4.609   8.388 -0.2072 -0.1208 -0.0356
  293loPI   C6A 4684  12.350   4.771   7.955 -0.1236 -0.0399 -0.2026
  293loPI   C1B 4685  11.697   4.970  10.192 -0.3302  0.0729 -0.1918
  293loPI   C2B 4686  11.722   4.866   9.636 -0.0178  0.2796  0.0142
  293loPI   C3B 4687  11.773   4.960   9.259 -0.0977 -0.4598 -0.0861
  293loPI   C4B 4688  11.817   5.062   8.831  0.2289  0.0987 -0.0151
  294loPI    C1 4689   2.497   8.814  10.445 -0.1300 -0.0478 -0.0457
  294loPI    C2 4690   2.295   8.740  10.782 -0.1543 -0.0225 -0.0547
  294loPI    C3 4691   2.693   8.781  10.792 -0.1526 -0.0448 -0.0326
  294loPI   PO4 4692   2.399   8.988  10.215  0.1173  0.1572  0.1637
  294loPI   GL1 4693   2.252   8.891   9.819 -0.0219 -0.2461  0.1911
  294loPI   GL2 4694   1.836   8.932   9.765 -0.3142  0.0204  0.0643
  294loPI   C1A 4695   2.250   8.799   9.424 -0.2979  0.1185 -0.1012
  294loPI   C2A 4696   2.233   8.775   8.995  0.2059 -0.2967 -0.1212
  294loPI   C3A 4697   2.538   8.884   8.659  0.1893 -0.1011 -0.0036
  294loPI   C4A 4698   2.850   8.763   8.374  0.0165 -0.0879  0.2512
  294loPI   C5A 4699   3.068   8.547   8.036  0.1265 -0.2206  0.0059
  294loPI   C6A 4700   3.389   8.521   7.776  0.0165 -0.0527 -0.0956
  294loPI   C1B 4701   1.829   8.990   9.353 -0.2149 -0.1555  0.0391
  294loPI   C2B 4702   1.772   8.907   8.985  0.0042 -0.0757 -0.0245
  294loPI   C3B 4703   1.521   8.930   8.623  0.0114  0.1075  0.0272
  294loPI   C4B 4704   1.388   9.238   8.338 -0.2187  0.2187 -0.1118
  295loPI    C1 4705  12.188  14.038  10.502  0.1334  0.2535 -0.1697
  295loPI    C2 4706  11.952  14.157  10.202  0.1030  0.0051 -0.2470
  295loPI    C3 4707  11.871  14.270  10.577 -0.0561  0.0375 -0.2906
  295loPI   PO4 4708  12.307  13.753  10.396 -0.0124  0.0553 -0.0285
  295loPI   GL1 4709  12.509  13.482  10.104  0.0018  0.4133 -0.1502
  295loPI   GL2 4710  12.308  13.673   9.926 -0.3034 -0.0285  0.1456
  295loPI   C1A 4711  12.854  13.390   9.782 -0.1122 -0.3437 -0.2721
  295loPI   C2A 4712  12.948  13.604   9.408 -0.2413  0.2292 -0.1328
  295loPI   C3A 4713  12.831  13.674   8.922  0.2163  0.3405 -0.1694
  295loPI   C4A 4714  12.754  13.702   8.515  0.0726  0.1184 -0.2018
  295loPI   C5A 4715  13.028  13.756   8.222 -0.0706  0.0600  0.1299
  295loPI   C6A 4716  13.424  13.996   8.251 -0.0741  0.1915 -0.0276
  295loPI   C1B 4717  12.325  13.225   9.715 -0.0100  0.0960  0.1593
  295loPI   C2B 4718  12.183  12.986   9.363  0.1678  0.1751  0.0974
  295loPI   C3B 4719  12.003  12.729   9.193 -0.1136  0.1791 -0.1331
  295loPI   C4B 4720  11.581  12.661   9.224  0.1609  0.1817 -0.1647
  296loPI    C1 4721  16.220  16.494  10.822  0.5632  0.1704  0.0796
  296loPI    C2 4722  16.095  16.184  11.042 -0.3187  0.2655 -0.2472
  296loPI    C3 4723  16.274  16.495  11.219 -0.1074 -0.0904  0.1851
  296loPI   PO4 4724  16.066  16.664  10.750  0.1025 -0.2201 -0.0820
  296loPI   GL1 4725  15.666  16.988  10.453 -0.0369 -0.1204  0.1671
  296loPI   GL2 4726  15.981  17.039  10.434 -0.0294 -0.0361 -0.0078
  296loPI   C1A 4727  15.569  17.109  10.094  0.0800  0.2396  0.0169
  296loPI   C2A 4728  15.816  17.103   9.712 -0.2742 -0.0295 -0.0465
  296loPI   C3A 4729  15.733  17.090   9.383  0.1789 -0.1517  0.0569
  296loPI   C4A 4730  15.763  17.222   8.896 -0.3626  0.1248 -0.1246
  296loPI   C5A 4731  15.758  17.057   8.519  0.0389  0.0607 -0.0582
  296loPI   C6A 4732  15.610  16.921   8.157  0.0496  0.0772  0.0388
  296loPI   C1B 4733  15.992  16.762   9.979  0.1915  0.2766  0.0876
  296loPI   C2B 4734  16.060  16.675   9.526 -0.3680 -0.2734 -0.1919
  296loPI   C3B 4735  16.077  16.774   9.224  0.0835 -0.4558  0.0475
  296loPI   C4B 4736  16.108  16.790   8.837 -0.1419 -0.3956  0.2352
  297loPI    C1 4737   6.169  10.041  10.640  0.1182 -0.3986  0.0055
  297loPI    C2 4738   6.295   9.944  11.007  0.2665  0.0734  0.0856
  297loPI    C3 4739   6.040  10.249  10.956  0.0255 -0.1668 -0.1813
  297loPI   PO4 4740   6.405  10.075  10.478  0.2053 -0.0531 -0.1464
  297loPI   GL1 4741   6.442  10.115  10.016 -0.1807 -0.2624  0.2079
  297loPI   GL2 4742   6.771  10.169  10.037 -0.0517  0.2820  0.2328
  297loPI   C1A 4743   6.314  10.428   9.697 -0.2468 -0.1640  0.2324
  297loPI   C2A 4744   6.406  10.455   9.173 -0.2744  0.1279  0.0425
  297loPI   C3A 4745   6.237  10.585   8.892 -0.0582 -0.0068  0.0742
  297loPI   C4A 4746   5.946  10.365   8.676 -0.1700  0.2695  0.1186
  297loPI   C5A 4747   5.858  10.090   8.304 -0.0901  0.1213  0.1027
  297loPI   C6A 4748   6.054   9.729   8.107  0.0962  0.3310 -0.1927
  297loPI   C1B 4749   6.744  10.326   9.612 -0.0577 -0.0100  0.1568
  297loPI   C2B 4750   6.828  10.689   9.386  0.1270 -0.2804 -0.0175
  297loPI   C3B 4751   6.794  10.948   9.079 -0.0106  0.0001  0.0948
  297loPI   C4B 4752   6.776  10.995   8.648 -0.1015 -0.0631 -0.0312
  298loPI    C1 4753   3.528  12.185  10.747 -0.1376  0.1131  0.0273
  298loPI    C2 4754   3.609  11.810  10.862 -0.0836  0.1171  0.0027
  298loPI    C3 4755   3.319  12.017  11.043 -0.0487  0.0972  0.0814
  298loPI   PO4 4756   3.508  12.157  10.497 -0.1312 -0.0902 -0.2448
  298loPI   GL1 4757   3.305  12.361  10.197  0.3647 -0.3863  0.1110
  298loPI   GL2 4758   3.026  12.520  10.278 -0.2532  0.0471 -0.2480
  298loPI   C1A 4759   3.437  12.301   9.799 -0.1805  0.1976 -0.0269
  298loPI   C2A 4760   3.316  12.458   9.404  0.4772  0.0164 -0.0091
  298loPI   C3A 4761   3.208  12.407   9.007  0.1271 -0.2017 -0.4165
  298loPI   C4A 4762   3.388  12.374   8.650 -0.0495  0.2621 -0.1000
  298loPI   C5A 4763   3.358  12.656   8.216 -0.0842 -0.0644  0.0587
  298loPI   C6A 4764   3.235  13.060   8.154 -0.1574 -0.0460  0.0510
  298loPI   C1B 4765   3.005  12.671   9.787 -0.0208  0.1037 -0.1165
  298loPI   C2B 4766   2.904  12.765   9.425 -0.0639 -0.0764  0.2730
  298loPI   C3B 4767   2.745  12.751   9.037 -0.0393  0.0276  0.1184
  298loPI   C4B 4768   3.057  12.784   8.632  0.0520  0.0036 -0.2156
  299loPI    C1 4769   9.672  16.238  10.784  0.2543  0.1365  0.0951
  299loPI    C2 4770   9.741  16.368  11.156  0.0407  0.1655  0.1257
  299loPI    C3 4771   9.677  15.979  11.088 -0.0128  0.1730  0.1333
  299loPI   PO4 4772   9.833  16.401  10.609  0.2906 -0.5451 -0.0732
  299loPI   GL1 4773   9.705  16.795  10.456 -0.0951  0.1088 -0.2315
  299loPI   GL2 4774   9.492  16.978  10.332  0.2845  0.1594 -0.0249
  299loPI   C1A 4775   9.904  16.794  10.043  0.2239  0.1818  0.0408
  299loPI   C2A 4776   9.859  16.858   9.615 -0.0596  0.0126 -0.0211
  299loPI   C3A 4777   9.737  16.845   9.190  0.1458 -0.0490  0.0536
  299loPI   C4A 4778   9.797  16.722   8.637 -0.2014 -0.2827 -0.2730
  299loPI   C5A 4779   9.875  16.974   8.339 -0.2395 -0.1696 -0.0284
  299loPI   C6A 4780   9.984  17.137   7.960 -0.2307 -0.0701 -0.0443
  299loPI   C1B 4781   9.418  17.060   9.925 -0.0320  0.0984 -0.0951
  299loPI   C2B 4782   9.374  17.058   9.539 -0.0182 -0.0441  0.0354
  299loPI   C3B 4783   9.324  17.086   9.030 -0.1864 -0.0581 -0.0575
  299loPI   C4B 4784   9.293  17.021   8.569  0.3009 -0.1734 -0.1057
  300loPI    C1 4785  12.563  17.856  11.060  0.1118  0.0548 -0.0813
  300loPI    C2 4786  12.336  17.601  10.852  0.2446 -0.0451 -0.1055
  300loPI    C3 4787  12.566  17.466  11.150  0.0418  0.0993  0.1203
  300loPI   PO4 4788  12.683  17.985  10.901  0.2040 -0.1364  0.0323
  300loPI   GL1 4789  12.672  17.940  10.494 -0.1210  0.0222  0.5099
  300loPI   GL2 4790  12.450  17.659  10.387  0.0375  0.1492  0.2995
  300loPI   C1A 4791  12.938  17.966  10.169 -0.2579 -0.1347  0.0348
  300loPI   C2A 4792  12.829  17.880   9.748 -0.0653  0.1337 -0.0232
  300loPI   C3A 4793  12.912  17.682   9.274  0.1821 -0.2643 -0.1279
  300loPI   C4A 4794  12.869  17.375   8.902  0.0997 -0.3430 -0.0097
  300loPI   C5A 4795  12.835  17.362   8.486 -0.0601  0.0262 -0.4424
  300loPI   C6A 4796  12.672  17.432   8.040 -0.3269 -0.2045 -0.1141
  300loPI   C1B 4797  12.414  17.599   9.912 -0.0079 -0.1327  0.1064
  300loPI   C2B 4798  12.417  17.505   9.476  0.0951  0.2234  0.0727
  300loPI   C3B 4799  12.446  17.496   9.077 -0.1979  0.0149 -0.1705
  300loPI   C4B 4800  12.388  17.495   8.548 -0.3361  0.3186 -0.3676
  301loPI    C1 4801  10.203  14.087  11.110  0.1643 -0.1151 -0.1481
  301loPI    C2 4802  10.142  14.329  10.797 -0.0379  0.1208  0.0689
  301loPI    C3 4803   9.958  14.402  11.144 -0.0134 -0.2837  0.1713
  301loPI   PO4 4804  10.233  13.861  10.941 -0.2002 -0.1053 -0.0664
  301loPI   GL1 4805  10.184  13.909  10.533  0.0356  0.2050 -0.2187
  301loPI   GL2 4806  10.033  14.102  10.353 -0.1022  0.2702  0.1088
  301loPI   C1A 4807  10.501  13.916  10.181 -0.0427  0.0658 -0.3050
  301loPI   C2A 4808  10.415  13.919   9.768 -0.1492 -0.2165  0.0141
  301loPI   C3A 4809  10.477  13.960   9.310 -0.2415  0.4132 -0.1572
  301loPI   C4A 4810  10.402  13.953   8.891 -0.1585 -0.3402  0.1726
  301loPI   C5A 4811  10.342  13.918   8.522  0.1289  0.2007  0.1617
  301loPI   C6A 4812  10.094  13.621   8.335  0.1313  0.0746  0.3180
  301loPI   C1B 4813   9.943  14.093   9.943  0.1482 -0.0126  0.0416
  301loPI   C2B 4814   9.899  14.206   9.551 -0.0337  0.0742  0.0341
  301loPI   C3B 4815   9.969  14.239   9.149  0.3707  0.0037 -0.2545
  301loPI   C4B 4816   9.893  14.102   8.811  0.1441  0.2613  0.0934
  302loPI    C1 4817  15.178  15.431  10.856  0.0321  0.3496 -0.0700
  302loPI    C2 4818  15.169  15.476  11.253 -0.0781 -0.1999 -0.0010
  302loPI    C3 4819  14.832  15.511  11.040 -0.0761 -0.2154 -0.0069
  302loPI   PO4 4820  15.366  15.554  10.742 -0.4016  0.2801 -0.0229
  302loPI   GL1 4821  15.425  15.605  10.268 -0.1096  0.2723 -0.1921
  302loPI   GL2 4822  15.681  15.920  10.344 -0.1835 -0.1906  0.2902
  302loPI   C1A 4823  15.151  15.640   9.866  0.1609  0.0696 -0.1328
  302loPI   C2A 4824  15.153  15.553   9.419 -0.1063 -0.1203 -0.1418
  302loPI   C3A 4825  15.218  15.657   9.015  0.0724  0.2305  0.0284
  302loPI   C4A 4826  15.157  15.927   8.706  0.2433  0.2631  0.1242
  302loPI   C5A 4827  15.454  16.264   8.569 -0.4588 -0.0405  0.2306
  302loPI   C6A 4828  15.665  16.410   8.354  0.1307  0.0245  0.1158
  302loPI   C1B 4829  15.725  15.794   9.904 -0.0862 -0.0452 -0.1083
  302loPI   C2B 4830  15.680  15.746   9.475  0.0762 -0.0885  0.1673
  302loPI   C3B 4831  15.769  15.834   9.011  0.2819  0.1490 -0.0731
  302loPI   C4B 4832  15.666  15.792   8.609 -0.1492  0.1489  0.1164
  303loPI    C1 4833  16.836   5.945  11.169 -0.2516  0.1034 -0.1528
  303loPI    C2 4834  17.225   5.861  11.212 -0.3028 -0.0798 -0.0341
  303loPI    C3 4835  16.960   5.725  11.479 -0.4195  0.2616  0.0283
  303loPI   PO4 4836  16.874   6.174  11.003 -0.3612  0.0273  0.1582
  303loPI   GL1 4837  16.799   6.289  10.583 -0.0631 -0.0821 -0.2972
  303loPI   GL2 4838  16.984   5.979  10.537  0.0776  0.0102  0.4729
  303loPI   C1A 4839  16.876   6.549  10.209  0.2202 -0.0470 -0.1540
  303loPI   C2A 4840  16.887   6.606   9.733  0.1749  0.3927 -0.0733
  303loPI   C3A 4841  16.847   6.691   9.244 -0.0902 -0.1240 -0.2082
  303loPI   C4A 4842  16.826   6.800   8.714  0.1166 -0.1265  0.0545
  303loPI   C5A 4843  16.624   7.062   8.399  0.1156  0.0101 -0.1316
  303loPI   C6A 4844  16.486   7.367   8.416 -0.0003  0.1736 -0.1168
  303loPI   C1B 4845  16.718   6.055  10.196 -0.2338 -0.2684  0.1735
  303loPI   C2B 4846  16.684   6.131   9.800 -0.0872 -0.2687 -0.1333
  303loPI   C3B 4847  16.781   6.228   9.382 -0.0865  0.2366  0.0090
  303loPI   C4B 4848  16.679   6.279   8.992  0.2381  0.1120  0.2064
  304loPI    C1 4849  15.741   2.087  10.628  0.1851 -0.1974  0.1634
  304loPI    C2 4850  15.767   2.242  10.996  0.0694  0.3537 -0.0507
  304loPI    C3 4851  15.428   2.280  10.786  0.0895 -0.0723 -0.1697
  304loPI   PO4 4852  15.923   1.868  10.628  0.1092 -0.1227  0.0299
  304loPI   GL1 4853  16.218   1.776  10.229 -0.1078 -0.0593  0.0650
  304loPI   GL2 4854  16.093   1.460  10.335 -0.0497  0.3308 -0.0140
  304loPI   C1A 4855  16.306   1.816   9.820  0.1429  0.3028  0.2702
  304loPI   C2A 4856  16.280   1.821   9.350 -0.1595 -0.0192  0.0234
  304loPI   C3A 4857  16.000   1.783   9.034 -0.1088  0.3469  0.2085
  304loPI   C4A 4858  15.910   1.771   8.595 -0.1728  0.0241 -0.0609
  304loPI   C5A 4859  15.706   1.745   8.234 -0.1621 -0.0235 -0.0020
  304loPI   C6A 4860  15.954   1.722   7.944  0.0896 -0.0057  0.0996
  304loPI   C1B 4861  16.180   1.308   9.942  0.0992  0.1749 -0.2243
  304loPI   C2B 4862  16.118   1.388   9.537 -0.0339  0.0345 -0.1627
  304loPI   C3B 4863  16.006   1.341   9.178  0.0935  0.1645  0.0096
  304loPI   C4B 4864  15.782   1.337   8.799 -0.1624 -0.0943  0.0988
  305loPI    C1 4865   5.749  14.213  10.939  0.0621 -0.1729  0.0519
  305loPI    C2 4866   6.114  14.376  10.944 -0.0932  0.1868 -0.0124
  305loPI    C3 4867   5.970  14.197  11.272  0.2261 -0.1630 -0.0551
  305loPI   PO4 4868   5.594  14.370  10.683 -0.0376 -0.1667  0.1587
  305loPI   GL1 4869   5.540  14.401  10.258  0.1389  0.2186 -0.0817
  305loPI   GL2 4870   5.528  14.733  10.294 -0.0944  0.1084 -0.1816
  305loPI   C1A 4871   5.630  14.570   9.841 -0.1650  0.4429  0.0845
  305loPI   C2A 4872   5.851  14.714   9.499  0.0108  0.2358  0.0023
  305loPI   C3A 4873   5.837  14.759   9.085  0.0521  0.0534  0.0909
  305loPI   C4A 4874   5.931  14.766   8.667 -0.0063  0.0574  0.0948
  305loPI   C5A 4875   5.933  14.747   8.251 -0.1326  0.1575  0.2824
  305loPI   C6A 4876   6.072  15.159   8.088 -0.0546  0.2057  0.1595
  305loPI   C1B 4877   5.386  14.945   9.881 -0.2001 -0.0376 -0.3084
  305loPI   C2B 4878   5.333  14.914   9.482  0.0726  0.2352 -0.2114
  305loPI   C3B 4879   5.356  14.937   9.045  0.1361  0.2566 -0.2366
  305loPI   C4B 4880   5.392  15.013   8.622 -0.1392  0.2280 -0.1297
  306loPI    C1 4881   3.663   2.634  10.765  0.0807  0.1467 -0.1033
  306loPI    C2 4882   3.687   2.900  11.064 -0.1515  0.0262  0.0260
  306loPI    C3 4883   3.834   2.530  11.112  0.0219  0.0779 -0.0946
  306loPI   PO4 4884   3.760   2.776  10.563 -0.0184  0.2222  0.1559
  306loPI   GL1 4885   3.672   2.749  10.144 -0.0434 -0.0748  0.0409
  306loPI   GL2 4886   3.764   2.416  10.160  0.1332  0.1299  0.0254
  306loPI   C1A 4887   3.494   2.766   9.662  0.2253  0.1798 -0.2936
  306loPI   C2A 4888   3.508   2.708   9.194  0.1089 -0.0875  0.1840
  306loPI   C3A 4889   3.450   2.742   8.774  0.0808  0.0032  0.0545
  306loPI   C4A 4890   3.600   2.825   8.399  0.2525 -0.0929  0.0376
  306loPI   C5A 4891   3.645   2.544   8.020 -0.1043  0.0445  0.3644
  306loPI   C6A 4892   3.806   2.446   7.692  0.0124  0.3660  0.1103
  306loPI   C1B 4893   3.746   2.309   9.811  0.1165  0.1117 -0.1402
  306loPI   C2B 4894   3.743   2.251   9.340 -0.1898  0.1307 -0.1185
  306loPI   C3B 4895   3.657   2.218   8.898  0.1375  0.0993 -0.0544
  306loPI   C4B 4896   3.566   2.362   8.475  0.4595  0.0120  0.5107
  307loPI    C1 4897   5.491   4.079  10.876 -0.1735  0.2161 -0.0795
  307loPI    C2 4898   5.426   4.341  11.171  0.1665  0.0985  0.1060
  307loPI    C3 4899   5.714   4.066  11.208 -0.0852 -0.2071 -0.1492
  307loPI   PO4 4900   5.441   4.273  10.656  0.0275 -0.1163 -0.2093
  307loPI   GL1 4901   5.463   4.305  10.205 -0.2606  0.0640  0.0319
  307loPI   GL2 4902   5.307   3.993  10.229 -0.0527  0.2140  0.0695
  307loPI   C1A 4903   5.434   4.293   9.756  0.0874  0.0503 -0.0436
  307loPI   C2A 4904   5.415   4.321   9.340 -0.2210  0.2207 -0.3400
  307loPI   C3A 4905   5.371   4.199   8.831 -0.0125  0.2250  0.2360
  307loPI   C4A 4906   5.373   4.282   8.337  0.0712 -0.0426  0.1904
  307loPI   C5A 4907   5.337   4.516   8.054  0.2147  0.0144 -0.2603
  307loPI   C6A 4908   5.340   4.815   7.897 -0.2155  0.0517  0.0930
  307loPI   C1B 4909   5.210   3.851   9.866  0.1942  0.1274  0.0303
  307loPI   C2B 4910   5.122   3.936   9.492 -0.1898 -0.0380  0.3188
  307loPI   C3B 4911   5.027   3.817   9.069 -0.0032  0.3377  0.0709
  307loPI   C4B 4912   4.966   3.842   8.537  0.0237 -0.1877  0.0819
  308loPI    C1 4913   2.665  12.669  10.965 -0.1758  0.0855 -0.1431
  308loPI    C2 4914   2.492  12.333  10.833 -0.1155  0.0238 -0.0659
  308loPI    C3 4915   2.524  12.400  11.226  0.0869  0.0078 -0.0786
  308loPI   PO4 4916   2.820  12.663  10.699  0.1925  0.2053 -0.0513
  308loPI   GL1 4917   2.869  12.993  10.417  0.0253  0.0084  0.1488
  308loPI   GL2 4918   2.649  12.864  10.242  0.0243  0.2272  0.2203
  308loPI   C1A 4919   2.944  13.241  10.122  0.0697  0.1026  0.0490
  308loPI   C2A 4920   2.992  13.179   9.691  0.0221  0.1108  0.1179
  308loPI   C3A 4921   2.933  13.237   9.331 -0.0890  0.1682  0.0230
  308loPI   C4A 4922   2.883  13.264   8.840  0.0701  0.0242 -0.0825
  308loPI   C5A 4923   2.826  13.300   8.393 -0.0864  0.2649  0.0137
  308loPI   C6A 4924   2.950  13.475   8.003 -0.2065  0.2003  0.1438
  308loPI   C1B 4925   2.538  12.942   9.814  0.0001 -0.1056 -0.0443
  308loPI   C2B 4926   2.465  13.068   9.332  0.4461  0.2372  0.0260
  308loPI   C3B 4927   2.348  13.188   8.976  0.0854  0.1734  0.1145
  308loPI   C4B 4928   2.282  13.368   8.527 -0.2732  0.0735  0.1996
  309loPI    C1 4929   8.393   1.416  10.684  0.0165  0.1118  0.1086
  309loPI    C2 4930   8.546   1.400  11.054  0.0760  0.1672  0.0865
  309loPI    C3 4931   8.349   1.727  10.933 -0.1981  0.0352  0.1684
  309loPI   PO4 4932   8.620   1.442  10.437 -0.2449 -0.2221  0.1558
  309loPI   GL1 4933   8.837   1.551  10.080 -0.2472 -0.0582  0.1802
  309loPI   GL2 4934   8.595   1.761   9.965 -0.2524 -0.1378  0.0373
  309loPI   C1A 4935   9.100   1.506   9.871 -0.0158 -0.1132  0.0100
  309loPI   C2A 4936   9.153   1.444   9.410 -0.2218 -0.2210 -0.2379
  309loPI   C3A 4937   9.242   1.393   9.004  0.0996  0.0304 -0.2731
  309loPI   C4A 4938   9.335   1.340   8.607  0.0298  0.0789  0.0928
  309loPI   C5A 4939   9.256   1.305   8.053 -0.5693  0.1271 -0.2602
  309loPI   C6A 4940   9.079   1.453   7.597 -0.1095  0.0616  0.0638
  309loPI   C1B 4941   8.738   1.656   9.531  0.0986  0.1681 -0.1201
  309loPI   C2B 4942   8.675   1.633   9.026 -0.0655  0.0388 -0.1775
  309loPI   C3B 4943   8.680   1.771   8.630  0.3082  0.0587 -0.1605
  309loPI   C4B 4944   8.554   1.800   8.254 -0.4565  0.1634  0.0624
  310loPI    C1 4945  16.057   1.062  11.036  0.0272  0.2006  0.1194
  310loPI    C2 4946  15.747   1.172  11.264 -0.0226  0.0209  0.1402
  310loPI    C3 4947  16.046   1.429  11.194 -0.1373  0.1679  0.1859
  310loPI   PO4 4948  15.994   0.951  10.809 -0.0670  0.1308 -0.0209
  310loPI   GL1 4949  16.165   0.658  10.529  0.0726 -0.1217  0.1053
  310loPI   GL2 4950  16.466   0.537  10.419  0.1794 -0.0166  0.0867
  310loPI   C1A 4951  16.080   0.876  10.112 -0.0710 -0.0459 -0.0724
  310loPI   C2A 4952  15.953   0.794   9.704 -0.0566 -0.1706 -0.0021
  310loPI   C3A 4953  15.951   0.864   9.277  0.2090  0.0677 -0.0270
  310loPI   C4A 4954  16.078   0.879   8.852 -0.1289 -0.0814 -0.3736
  310loPI   C5A 4955  16.194   0.932   8.380 -0.0881 -0.0383  0.1134
  310loPI   C6A 4956  16.087   1.272   8.178 -0.0388  0.1090  0.1470
  310loPI   C1B 4957  16.350   0.453  10.023  0.1963 -0.0591 -0.0141
  310loPI   C2B 4958  16.248   0.414   9.555 -0.1261  0.2752 -0.2639
  310loPI   C3B 4959  16.281   0.467   9.175 -0.2912  0.1210 -0.0520
  310loPI   C4B 4960  16.312   0.455   8.731 -0.2544 -0.0192  0.1789
  311loPI    C1 4961   2.880  11.838  11.224 -0.1888 -0.1325  0.1202
  311loPI    C2 4962   2.915  12.122  11.504 -0.3052  0.0018  0.0007
  311loPI    C3 4963   3.196  11.839  11.470 -0.2176  0.0681  0.1586
  311loPI   PO4 4964   2.814  11.966  11.048  0.0191  0.1183  0.1354
  311loPI   GL1 4965   2.683  11.918  10.593  0.1355  0.1038 -0.3674
  311loPI   GL2 4966   2.594  11.582  10.501 -0.2110 -0.0851 -0.1620
  311loPI   C1A 4967   2.611  12.229  10.211  0.1908  0.0255  0.0751
  311loPI   C2A 4968   2.370  12.465   9.900  0.0575  0.1996 -0.1474
  311loPI   C3A 4969   2.269  12.628   9.461 -0.0237  0.0335 -0.3979
  311loPI   C4A 4970   2.214  12.696   9.023 -0.0125  0.1644  0.4426
  311loPI   C5A 4971   2.079  12.618   8.606 -0.0918 -0.2237  0.0668
  311loPI   C6A 4972   2.057  12.369   8.291 -0.2826  0.0334 -0.0285
  311loPI   C1B 4973   2.610  11.682  10.022 -0.1392  0.1240  0.0688
  311loPI   C2B 4974   2.659  11.712   9.616 -0.3072  0.2221 -0.1038
  311loPI   C3B 4975   2.801  11.624   9.220 -0.0568 -0.0666 -0.1470
  311loPI   C4B 4976   2.836  11.578   8.762  0.1830 -0.1484 -0.0044
  312loPI    C1 4977   1.439  10.160  10.599  0.0323  0.0378  0.0770
  312loPI    C2 4978   1.119  10.385  10.517  0.0547  0.1073  0.1773
  312loPI    C3 4979   1.376  10.499  10.802  0.2657  0.1443 -0.0246
  312loPI   PO4 4980   1.436  10.072  10.314 -0.2470 -0.0561  0.2171
  312loPI   GL1 4981   1.678  10.218   9.979 -0.3722  0.1266  0.0190
  312loPI   GL2 4982   1.459  10.281   9.710 -0.1312 -0.0832 -0.1789
  312loPI   C1A 4983   1.838   9.965   9.662 -0.1280  0.1891 -0.1347
  312loPI   C2A 4984   2.030   9.883   9.284 -0.1751  0.0486 -0.0495
  312loPI   C3A 4985   2.116   9.779   8.813  0.0317  0.0630 -0.2257
  312loPI   C4A 4986   2.264   9.745   8.426 -0.3015 -0.0709 -0.0863
  312loPI   C5A 4987   2.309   9.509   8.083 -0.0382  0.2913 -0.1174
  312loPI   C6A 4988   1.959   9.542   7.762 -0.3923 -0.0200 -0.1470
  312loPI   C1B 4989   1.473  10.216   9.220 -0.0589  0.0703  0.1131
  312loPI   C2B 4990   1.486  10.168   8.842 -0.1804 -0.2348  0.1295
  312loPI   C3B 4991   1.579  10.262   8.422  0.1792 -0.1418  0.1772
  312loPI   C4B 4992   1.341  10.165   8.069 -0.2551  0.3265 -0.0751
  313loPI    C1 4993  12.006   6.979  11.297  0.1800 -0.0985  0.0234
  313loPI    C2 4994  12.010   7.343  11.464  0.2857  0.0014 -0.1928
  313loPI    C3 4995  11.662   7.164  11.381  0.2286 -0.1183  0.2759
  313loPI   PO4 4996  12.147   6.977  11.078  0.2371 -0.0408 -0.1453
  313loPI   GL1 4997  12.119   7.088  10.659  0.0054 -0.1666 -0.2738
  313loPI   GL2 4998  12.417   7.145  10.691 -0.0460 -0.0409 -0.0909
  313loPI   C1A 4999  11.863   6.821  10.333 -0.1375  0.0949  0.0753
  313loPI   C2A 5000  11.877   6.670   9.860 -0.1122  0.0920  0.3238
  313loPI   C3A 5001  11.785   6.702   9.485  0.0780  0.1518 -0.2572
  313loPI   C4A 5002  11.753   6.771   9.052 -0.2067  0.0740 -0.0361
  313loPI   C5A 5003  11.717   6.810   8.617  0.0643 -0.0313  0.2709
  313loPI   C6A 5004  11.727   6.727   8.146  0.0500 -0.0990  0.3722
  313loPI   C1B 5005  12.391   7.244  10.271  0.1319  0.0437 -0.0243
  313loPI   C2B 5006  12.390   7.378   9.801 -0.0135  0.0121  0.0118
  313loPI   C3B 5007  12.442   7.376   9.455 -0.4348 -0.3454 -0.0499
  313loPI   C4B 5008  12.349   7.446   9.056 -0.0206  0.2116  0.1345
  314loPI    C1 5009   8.441  13.864  10.852 -0.0236 -0.2568 -0.0120
  314loPI    C2 5010   8.389  14.036  11.209 -0.1870 -0.1280 -0.0962
  314loPI    C3 5011   8.073  13.958  10.977 -0.0968 -0.3665 -0.1421
  314loPI   PO4 5012   8.653  14.092  10.653  0.1228  0.1808  0.2857
  314loPI   GL1 5013   8.867  14.300  10.311 -0.0192  0.0702  0.3173
  314loPI   GL2 5014   9.120  14.500  10.216  0.0133  0.0204  0.0914
  314loPI   C1A 5015   9.096  13.993  10.163 -0.2887 -0.0503 -0.0606
  314loPI   C2A 5016   9.135  14.116   9.770 -0.0426 -0.1947  0.1107
  314loPI   C3A 5017   9.081  14.154   9.309 -0.0083 -0.0019  0.0589
  314loPI   C4A 5018   9.078  14.054   8.896  0.2223  0.1585  0.1047
  314loPI   C5A 5019   8.959  14.099   8.581  0.0399  0.0475 -0.0174
  314loPI   C6A 5020   8.859  13.820   8.244  0.2617  0.3079 -0.1725
  314loPI   C1B 5021   8.960  14.593   9.749  0.1355 -0.0301  0.2022
  314loPI   C2B 5022   9.004  14.671   9.328 -0.2341 -0.2367 -0.3198
  314loPI   C3B 5023   8.994  14.606   8.928 -0.2646  0.1136 -0.3063
  314loPI   C4B 5024   8.990  14.582   8.457  0.2418 -0.0224 -0.2612
  315loPI    C1 5025  18.049   3.779  10.864 -0.0175  0.0070  0.0861
  315loPI    C2 5026  18.374   3.767  11.097 -0.0891  0.1837  0.1975
  315loPI    C3 5027  18.202   3.427  10.975  0.2369  0.0864 -0.0053
  315loPI   PO4 5028  18.038   4.024  10.708 -0.1162 -0.1902  0.3362
  315loPI   GL1 5029  17.867   4.123  10.297 -0.0660  0.2590  0.0656
  315loPI   GL2 5030  17.694   4.421  10.531  0.1903  0.1805 -0.1673
  315loPI   C1A 5031  18.089   4.382   9.966  0.1420 -0.1198 -0.2095
  315loPI   C2A 5032  18.260   4.278   9.614  0.2372  0.0409  0.0220
  315loPI   C3A 5033  18.111   4.052   9.333  0.2660  0.0246  0.1850
  315loPI   C4A 5034  18.053   4.031   8.853 -0.1741  0.2041 -0.2698
  315loPI   C5A 5035  17.758   3.818   8.509 -0.1893 -0.0774 -0.0657
  315loPI   C6A 5036  17.747   4.122   8.098  0.0031  0.0050 -0.0678
  315loPI   C1B 5037  17.615   4.589  10.212  0.1528  0.2189 -0.1770
  315loPI   C2B 5038  17.551   4.728   9.734 -0.0512  0.1952  0.0366
  315loPI   C3B 5039  17.663   5.115   9.485  0.2366 -0.1545  0.0557
  315loPI   C4B 5040  17.782   5.145   8.979 -0.1754 -0.1323  0.1238
  316loPI    C1 5041   4.459   6.738  10.870 -0.2305 -0.0133  0.0943
  316loPI    C2 5042   4.649   6.427  11.035 -0.0795 -0.0159 -0.0811
  316loPI    C3 5043   4.581   6.757  11.251 -0.2632 -0.1778  0.1139
  316loPI   PO4 5044   4.291   6.631  10.690 -0.0487 -0.1636 -0.1105
  316loPI   GL1 5045   4.325   6.702  10.207 -0.1300  0.2593 -0.1144
  316loPI   GL2 5046   4.324   6.344  10.168 -0.0834 -0.0773 -0.0076
  316loPI   C1A 5047   4.200   6.988   9.867  0.1487  0.1346  0.0579
  316loPI   C2A 5048   4.272   7.135   9.424  0.1087 -0.1902 -0.0007
  316loPI   C3A 5049   4.277   7.041   8.929 -0.1005  0.2368 -0.0427
  316loPI   C4A 5050   4.052   7.290   8.563  0.1129 -0.0385 -0.2684
  316loPI   C5A 5051   4.095   7.060   8.113 -0.0371 -0.0544  0.0607
  316loPI   C6A 5052   4.301   6.600   8.120  0.3080 -0.1498 -0.1636
  316loPI   C1B 5053   4.139   6.236   9.793 -0.0390 -0.0628  0.1760
  316loPI   C2B 5054   4.117   6.249   9.347  0.1654 -0.0796 -0.0751
  316loPI   C3B 5055   4.139   6.416   8.834  0.0166  0.1497 -0.4075
  316loPI   C4B 5056   4.013   6.280   8.435 -0.4980  0.0232  0.0512
  317loPI    C1 5057  15.680  11.529  11.152  0.0956 -0.1009  0.0564
  317loPI    C2 5058  15.343  11.353  11.273 -0.0855  0.0186 -0.2609
  317loPI    C3 5059  15.675  11.136  11.222 -0.0511 -0.0644  0.2589
  317loPI   PO4 5060  15.627  11.625  10.913  0.1281 -0.2286 -0.1084
  317loPI   GL1 5061  15.480  11.669  10.521  0.0749 -0.0693  0.1476
  317loPI   GL2 5062  15.653  11.915  10.437  0.6040 -0.0830  0.1235
  317loPI   C1A 5063  15.442  11.428  10.191 -0.1505 -0.1287  0.0414
  317loPI   C2A 5064  15.372  11.472   9.788 -0.2279  0.0996 -0.0089
  317loPI   C3A 5065  15.417  11.343   9.335  0.0202  0.1919  0.0853
  317loPI   C4A 5066  15.338  11.321   8.858  0.0012  0.2071  0.0682
  317loPI   C5A 5067  15.441  11.220   8.464 -0.3878  0.1860 -0.0386
  317loPI   C6A 5068  15.465  11.011   8.070 -0.0639  0.1050  0.1048
  317loPI   C1B 5069  15.992  11.942  10.213  0.1228 -0.1714 -0.1654
  317loPI   C2B 5070  16.060  12.037   9.840  0.0919 -0.0064  0.1450
  317loPI   C3B 5071  16.022  12.071   9.434  0.1162  0.0007  0.0445
  317loPI   C4B 5072  15.977  12.087   9.024 -0.0094 -0.1533 -0.1456
  318loPI    C1 5073  10.239  14.967  10.951 -0.0186  0.3342 -0.1662
  318loPI    C2 5074   9.961  14.878  11.224  0.2489 -0.0698 -0.0175
  318loPI    C3 5075  10.183  15.208  11.265 -0.0833  0.1621 -0.0447
  318loPI   PO4 5076  10.108  14.833  10.759 -0.0879 -0.1516 -0.1182
  318loPI   GL1 5077  10.276  14.861  10.324  0.0598  0.0515  0.3979
  318loPI   GL2 5078  10.315  15.165  10.495  0.2511  0.0924 -0.1324
  318loPI   C1A 5079  10.351  14.965   9.893  0.2951  0.0902  0.0930
  318loPI   C2A 5080  10.328  14.984   9.533  0.1661 -0.3256  0.3107
  318loPI   C3A 5081  10.295  14.973   9.130 -0.2391  0.0743  0.0201
  318loPI   C4A 5082  10.350  14.932   8.670  0.1279  0.1101 -0.1856
  318loPI   C5A 5083  10.599  15.026   8.269  0.1202 -0.2111  0.1494
  318loPI   C6A 5084  10.912  15.081   7.963 -0.0926 -0.1681 -0.0206
  318loPI   C1B 5085  10.235  15.462  10.140  0.0650 -0.2118 -0.2021
  318loPI   C2B 5086  10.337  15.487   9.803  0.0378  0.0805  0.1567
  318loPI   C3B 5087  10.262  15.450   9.338  0.0796 -0.0142 -0.3776
  318loPI   C4B 5088  10.355  15.504   8.929 -0.0984  0.3348 -0.0482
  319loPI    C1 5089  14.554   1.602  10.965  0.0617  0.2552 -0.0042
  319loPI    C2 5090  14.884   1.601  10.737  0.0365  0.0711 -0.0411
  319loPI    C3 5091  14.908   1.703  11.123  0.0857  0.3486 -0.1153
  319loPI   PO4 5092  14.392   1.551  10.785  0.0674 -0.0125 -0.0436
  319loPI   GL1 5093  14.051   1.715  10.516  0.0691  0.1455 -0.1463
  319loPI   GL2 5094  13.835   1.862  10.412  0.0550 -0.1870 -0.0029
  319loPI   C1A 5095  14.130   1.573  10.132  0.1023  0.0274  0.0118
  319loPI   C2A 5096  14.159   1.556   9.766  0.0389  0.2750  0.0811
  319loPI   C3A 5097  14.062   1.345   9.458 -0.0250 -0.1086  0.0174
  319loPI   C4A 5098  14.046   1.313   8.999 -0.1141  0.0160 -0.0657
  319loPI   C5A 5099  14.320   1.410   8.584 -0.0083  0.0716  0.2847
  319loPI   C6A 5100  14.300   1.535   8.220  0.2621 -0.3737 -0.0267
  319loPI   C1B 5101  13.733   1.815   9.989 -0.0829 -0.0566 -0.1044
  319loPI   C2B 5102  13.678   1.613   9.566  0.1509 -0.1118  0.1052
  319loPI   C3B 5103  13.609   1.640   9.152  0.2331  0.1354  0.2432
  319loPI   C4B 5104  13.590   1.696   8.704 -0.1123  0.2655  0.0099
  320loPI    C1 5105   7.556   2.052  10.649 -0.1225 -0.0928 -0.1810
  320loPI    C2 5106   7.178   2.104  10.770  0.0727 -0.0064  0.4255
  320loPI    C3 5107   7.413   1.838  10.955  0.3064 -0.0762  0.0397
  320loPI   PO4 5108   7.555   1.974  10.451  0.3733 -0.1017  0.0684
  320loPI   GL1 5109   7.842   1.814  10.052 -0.1464 -0.2586 -0.1064
  320loPI   GL2 5110   8.074   1.951   9.952  0.2430 -0.0709  0.0981
  320loPI   C1A 5111   7.695   1.730   9.604 -0.1339  0.2445  0.2952
  320loPI   C2A 5112   7.433   1.630   9.319 -0.0481  0.3821 -0.2069
  320loPI   C3A 5113   7.256   1.633   8.925 -0.0682  0.2846 -0.1509
  320loPI   C4A 5114   7.155   1.569   8.372 -0.0964 -0.3208 -0.0605
  320loPI   C5A 5115   7.375   1.228   8.047 -0.0467 -0.2771  0.2338
  320loPI   C6A 5116   7.275   1.166   7.642 -0.0749  0.1836  0.1373
  320loPI   C1B 5117   8.157   2.051   9.524 -0.2012  0.3432 -0.3770
  320loPI   C2B 5118   8.077   1.772   9.269 -0.0716  0.1380  0.2367
  320loPI   C3B 5119   7.689   1.532   8.912 -0.0415  0.1591 -0.0060
  320loPI   C4B 5120   7.465   1.212   8.646  0.0108 -0.2158  0.3254
  321loPI    C1 5121   4.432  16.532  10.632  0.1815  0.2756 -0.0432
  321loPI    C2 5122   4.407  16.915  10.747  0.3058  0.1685  0.3575
  321loPI    C3 5123   4.422  16.624  11.022 -0.0910 -0.1485  0.0561
  321loPI   PO4 5124   4.368  16.564  10.364 -0.1435  0.0140 -0.0540
  321loPI   GL1 5125   4.258  16.392   9.885 -0.2461  0.1250 -0.0277
  321loPI   GL2 5126   4.147  16.739   9.914  0.0738 -0.0141  0.0601
  321loPI   C1A 5127   4.585  16.573   9.580  0.0832  0.1126  0.0306
  321loPI   C2A 5128   4.528  16.464   9.159 -0.2041 -0.2054  0.0101
  321loPI   C3A 5129   4.367  16.212   8.791  0.2534  0.3658 -0.2640
  321loPI   C4A 5130   4.240  16.023   8.331  0.1223 -0.0246  0.0874
  321loPI   C5A 5131   3.848  15.900   8.314  0.0107 -0.0555  0.1337
  321loPI   C6A 5132   3.575  15.746   8.591 -0.2065  0.0542  0.1744
  321loPI   C1B 5133   4.049  16.889   9.452  0.4362  0.0297  0.0253
  321loPI   C2B 5134   3.947  17.276   9.258  0.1638 -0.0702 -0.0391
  321loPI   C3B 5135   4.032  17.444   8.883 -0.0905 -0.1504  0.0065
  321loPI   C4B 5136   4.364  17.511   8.700 -0.0037 -0.0220  0.0539
  322loPI    C1 5137   6.024  11.724  10.987  0.2135  0.2322  0.0995
  322loPI    C2 5138   6.270  11.424  11.084  0.1048  0.1261  0.0495
  322loPI    C3 5139   6.191  11.712  11.350  0.2702  0.1526  0.0712
  322loPI   PO4 5140   5.891  11.511  10.768  0.0015 -0.1255 -0.0994
  322loPI   GL1 5141   5.817  11.362  10.347  0.0099 -0.4558 -0.1727
  322loPI   GL2 5142   6.104  11.359  10.252 -0.0408  0.1251 -0.1178
  322loPI   C1A 5143   5.778  11.640   9.991 -0.0917  0.0759 -0.1335
  322loPI   C2A 5144   5.725  11.696   9.552  0.0126 -0.0171 -0.1289
  322loPI   C3A 5145   5.726  11.797   8.993 -0.2149  0.2231  0.0548
  322loPI   C4A 5146   5.780  11.671   8.540  0.2785  0.0111 -0.0699
  322loPI   C5A 5147   5.759  11.378   8.235 -0.1945 -0.1902  0.4164
  322loPI   C6A 5148   6.016  11.115   8.135  0.0884  0.2500  0.3304
  322loPI   C1B 5149   6.160  11.375   9.753 -0.2471  0.0844  0.2563
  322loPI   C2B 5150   6.212  11.499   9.273  0.1500 -0.0327  0.0181
  322loPI   C3B 5151   6.218  11.623   8.819 -0.0582 -0.2279  0.0908
  322loPI   C4B 5152   6.213  11.602   8.348  0.0129 -0.0144 -0.1246
  323loPI    C1 5153   5.726   3.462  10.388  0.1849  0.0570 -0.0387
  323loPI    C2 5154   5.765   3.849  10.484  0.4087  0.0375 -0.0458
  323loPI    C3 5155   5.580   3.598  10.735  0.3295  0.1341 -0.0069
  323loPI   PO4 5156   5.572   3.480  10.195  0.0120  0.3099  0.2598
  323loPI   GL1 5157   5.554   3.502   9.862 -0.0146 -0.2017  0.0695
  323loPI   GL2 5158   5.786   3.407   9.733 -0.0087  0.0768  0.1715
  323loPI   C1A 5159   5.313   3.375   9.598 -0.1181 -0.0208  0.3052
  323loPI   C2A 5160   5.194   3.319   9.157 -0.0675  0.2057 -0.1729
  323loPI   C3A 5161   5.139   3.314   8.697 -0.0060  0.0324 -0.2322
  323loPI   C4A 5162   5.058   3.405   8.174  0.3977  0.0449 -0.0157
  323loPI   C5A 5163   5.301   3.484   7.863  0.3458  0.3561 -0.0306
  323loPI   C6A 5164   5.367   3.624   7.604 -0.1148  0.0968 -0.0606
  323loPI   C1B 5165   5.699   3.250   9.323  0.0967 -0.2604  0.1918
  323loPI   C2B 5166   5.676   3.259   8.871 -0.2783  0.1467  0.0600
  323loPI   C3B 5167   5.712   3.168   8.434 -0.2567  0.0232  0.1169
  323loPI   C4B 5168   5.586   3.099   8.028 -0.4062  0.1032  0.0359
  324loPI    C1 5169   0.708  18.166  11.078 -0.1846 -0.0268  0.1569
  324loPI    C2 5170   0.519  18.096  11.423  0.0408  0.0168  0.2908
  324loPI    C3 5171   0.899  17.979  11.375  0.0125  0.0156  0.0588
  324loPI   PO4 5172   0.557  18.077  10.877 -0.0846 -0.1664  0.2183
  324loPI   GL1 5173   0.402  18.056  10.440  0.0998  0.1769  0.0069
  324loPI   GL2 5174   0.461  18.289  10.230  0.1338  0.2043  0.4374
  324loPI   C1A 5175   0.242  17.787  10.149 -0.0767 -0.2854  0.0118
  324loPI   C2A 5176   0.127  17.585   9.754  0.1216 -0.0665  0.0083
  324loPI   C3A 5177   0.010  17.593   9.376 -0.2987  0.0316  0.3239
  324loPI   C4A 5178  -0.092  17.300   9.070 -0.0596 -0.0818  0.0309
  324loPI   C5A 5179  -0.262  16.779   9.105  0.0340 -0.1498 -0.2029
  324loPI   C6A 5180  -0.371  16.543   9.397 -0.4038  0.0256 -0.2022
  324loPI   C1B 5181   0.385  18.207   9.761  0.1024  0.0641  0.1755
  324loPI   C2B 5182   0.181  18.057   9.480 -0.0857  0.1356  0.1043
  324loPI   C3B 5183   0.179  18.118   9.086  0.0034  0.1361  0.0203
  324loPI   C4B 5184   0.012  17.773   8.843 -0.0790 -0.0049 -0.1410
  325loPI    C1 5185  10.946   2.790  10.825  0.0754 -0.1887  0.2271
  325loPI    C2 5186  11.039   3.030  11.131 -0.0329 -0.0224  0.1315
  325loPI    C3 5187  11.325   2.818  10.949  0.0830  0.1237  0.1417
  325loPI   PO4 5188  10.785   2.918  10.696  0.1625  0.2039 -0.0343
  325loPI   GL1 5189  10.866   3.062  10.317  0.0183 -0.0693 -0.1217
  325loPI   GL2 5190  11.109   3.396  10.230 -0.1043 -0.0974  0.0844
  325loPI   C1A 5191  10.907   2.908   9.949 -0.3445  0.0122  0.0604
  325loPI   C2A 5192  10.998   2.686   9.561  0.2068  0.1001 -0.1460
  325loPI   C3A 5193  10.999   2.685   9.127 -0.0241 -0.0291  0.1077
  325loPI   C4A 5194  10.999   2.730   8.719  0.2202  0.0609  0.2280
  325loPI   C5A 5195  11.230   2.454   8.340 -0.1539  0.5110  0.1315
  325loPI   C6A 5196  11.322   2.371   7.953 -0.0344 -0.0214  0.0403
  325loPI   C1B 5197  11.272   3.309   9.812 -0.0047  0.0515  0.3149
  325loPI   C2B 5198  11.249   3.599   9.378  0.2344 -0.1319 -0.1662
  325loPI   C3B 5199  11.083   3.568   8.970 -0.3169  0.0178  0.0532
  325loPI   C4B 5200  11.015   3.809   8.665  0.1250 -0.0472 -0.0213
  326loPI    C1 5201   4.155   1.803  10.695  0.3389  0.1425 -0.0278
  326loPI    C2 5202   4.219   1.447  10.866  0.0752  0.1436  0.0787
  326loPI    C3 5203   4.164   1.772  11.093 -0.1880  0.1611 -0.0066
  326loPI   PO4 5204   3.919   1.741  10.596  0.0127 -0.0709 -0.1938
  326loPI   GL1 5205   3.888   1.848  10.232 -0.2272 -0.0627  0.0843
  326loPI   GL2 5206   3.571   1.947  10.152  0.1139 -0.0871 -0.0686
  326loPI   C1A 5207   3.901   1.749   9.754  0.0018 -0.2140  0.3357
  326loPI   C2A 5208   3.888   1.821   9.227  0.1312  0.0480 -0.2420
  326loPI   C3A 5209   3.720   1.636   8.884 -0.0367  0.2126 -0.3384
  326loPI   C4A 5210   3.754   1.765   8.530 -0.0639 -0.0645  0.1512
  326loPI   C5A 5211   3.960   1.631   8.166 -0.0585 -0.0513 -0.0838
  326loPI   C6A 5212   3.843   1.413   7.759 -0.1133  0.0766  0.3449
  326loPI   C1B 5213   3.406   1.909   9.789  0.0828  0.2663 -0.2666
  326loPI   C2B 5214   3.394   1.872   9.218  0.3219 -0.0803 -0.0721
  326loPI   C3B 5215   3.241   1.788   8.816 -0.2779  0.0061 -0.0343
  326loPI   C4B 5216   3.287   1.568   8.392 -0.2550  0.0262 -0.0890
  327loPI    C1 5217   9.843   7.904  10.958 -0.0435 -0.0825  0.0140
  327loPI    C2 5218   9.726   7.701  10.634 -0.1608  0.0190 -0.0079
  327loPI    C3 5219   9.667   7.547  10.999 -0.1079 -0.0559 -0.0308
  327loPI   PO4 5220   9.842   8.112  10.906  0.1273  0.1531 -0.2636
  327loPI   GL1 5221   9.911   8.233  10.487 -0.0499  0.0643  0.2158
  327loPI   GL2 5222  10.160   8.400  10.549 -0.0059 -0.1782  0.1313
  327loPI   C1A 5223   9.732   8.010  10.056 -0.2377 -0.1032 -0.1777
  327loPI   C2A 5224   9.765   8.231   9.526 -0.0050 -0.1842  0.0430
  327loPI   C3A 5225   9.865   8.217   9.097 -0.0715  0.0249 -0.0562
  327loPI   C4A 5226   9.914   8.319   8.677  0.1836 -0.2097 -0.1460
  327loPI   C5A 5227  10.006   8.302   8.354  0.1269 -0.1864 -0.1738
  327loPI   C6A 5228   9.899   8.053   8.062  0.0528 -0.1066  0.1295
  327loPI   C1B 5229   9.892   8.623  10.253  0.0016  0.1629  0.0011
  327loPI   C2B 5230   9.884   8.733   9.747  0.2218 -0.0681  0.2311
  327loPI   C3B 5231   9.992   8.650   9.328  0.1562 -0.0130 -0.2561
  327loPI   C4B 5232   9.965   8.761   8.884  0.2957 -0.0428 -0.2041
  328loPI    C1 5233   9.286   0.670  10.678 -0.0522  0.0427 -0.0569
  328loPI    C2 5234   9.113   0.336  10.813 -0.2112  0.1451 -0.0048
  328loPI    C3 5235   9.221   0.624  11.069  0.1180  0.0460 -0.0272
  328loPI   PO4 5236   9.224   0.624  10.451  0.2737 -0.2333 -0.2094
  328loPI   GL1 5237   9.280   0.984  10.182 -0.0224  0.1195  0.1152
  328loPI   GL2 5238   9.030   1.065  10.056 -0.2256  0.0607 -0.0542
  328loPI   C1A 5239   9.476   1.218   9.812  0.2274  0.2369  0.3196
  328loPI   C2A 5240   9.640   1.149   9.390 -0.1100  0.0815  0.0070
  328loPI   C3A 5241   9.689   1.167   8.924  0.0859 -0.0182 -0.1395
  328loPI   C4A 5242   9.810   1.050   8.502 -0.0783 -0.3386 -0.2453
  328loPI   C5A 5243   9.651   0.923   8.130  0.4646 -0.1268  0.1398
  328loPI   C6A 5244   9.303   0.867   7.882  0.1508 -0.0549  0.3909
  328loPI   C1B 5245   9.115   0.908   9.644  0.1016 -0.2507 -0.2217
  328loPI   C2B 5246   9.263   0.913   9.149 -0.1240  0.0341 -0.0586
  328loPI   C3B 5247   9.199   0.883   8.767  0.0122 -0.1210 -0.2015
  328loPI   C4B 5248   9.174   0.830   8.326  0.0954 -0.2974  0.1137
  329loPI    C1 5249  11.061  16.479  11.011  0.0132 -0.0753  0.0004
  329loPI    C2 5250  11.340  16.252  11.187 -0.0276 -0.0929  0.0427
  329loPI    C3 5251  11.163  16.547  11.392  0.1061  0.0505 -0.0461
  329loPI   PO4 5252  11.170  16.591  10.788  0.4876  0.2197  0.0637
  329loPI   GL1 5253  11.140  16.801  10.554  0.0511  0.1172 -0.1017
  329loPI   GL2 5254  11.024  17.140  10.380 -0.0643 -0.1169 -0.1582
  329loPI   C1A 5255  11.173  16.739  10.069  0.1152  0.2987 -0.4230
  329loPI   C2A 5256  11.110  16.643   9.650  0.1401 -0.2320 -0.4107
  329loPI   C3A 5257  11.114  16.559   9.268  0.0769 -0.3397  0.1119
  329loPI   C4A 5258  11.230  16.414   8.806 -0.0763  0.3454  0.0698
  329loPI   C5A 5259  11.551  16.437   8.410 -0.3287 -0.2184  0.0406
  329loPI   C6A 5260  11.665  16.612   8.113  0.0016  0.0342 -0.1030
  329loPI   C1B 5261  11.185  17.228  10.017  0.0756  0.0982  0.0093
  329loPI   C2B 5262  11.146  17.146   9.657  0.1709  0.1249 -0.2105
  329loPI   C3B 5263  11.111  17.058   9.203  0.0567 -0.0474 -0.1282
  329loPI   C4B 5264  11.185  17.082   8.764 -0.0260  0.2870 -0.2656
  330loPI    C1 5265  15.626   7.303  10.934 -0.0996  0.0683  0.0346
  330loPI    C2 5266  15.651   7.275  11.332 -0.0524  0.1356  0.0366
  330loPI    C3 5267  15.405   7.543  11.165 -0.1273  0.0572  0.0199
  330loPI   PO4 5268  15.599   7.093  10.840 -0.1640 -0.2651  0.1223
  330loPI   GL1 5269  15.344   6.986  10.458 -0.0540  0.0058 -0.3889
  330loPI   GL2 5270  15.174   7.104  10.218 -0.1064  0.1423  0.2313
  330loPI   C1A 5271  15.484   6.717  10.148 -0.2139  0.0521  0.0468
  330loPI   C2A 5272  15.510   6.685   9.735  0.0963 -0.0636  0.0527
  330loPI   C3A 5273  15.502   6.832   9.245 -0.0383 -0.2911  0.0554
  330loPI   C4A 5274  15.518   6.907   8.790  0.0155 -0.0615  0.3399
  330loPI   C5A 5275  15.565   7.043   8.452 -0.0868 -0.1325 -0.1412
  330loPI   C6A 5276  15.498   7.525   8.303  0.0793 -0.0326 -0.2714
  330loPI   C1B 5277  15.180   7.105   9.837  0.2669  0.0649 -0.3439
  330loPI   C2B 5278  15.192   7.143   9.342 -0.2349 -0.1669 -0.0531
  330loPI   C3B 5279  15.206   7.208   8.945  0.0635  0.0343  0.0554
  330loPI   C4B 5280  15.122   7.260   8.608 -0.1950  0.1702 -0.0192
  331loPI    C1 5281  17.525  12.492  11.012  0.0284  0.1478  0.0835
  331loPI    C2 5282  17.800  12.480  11.302 -0.0526  0.0272  0.1560
  331loPI    C3 5283  17.411  12.473  11.395 -0.0791 -0.2830  0.0358
  331loPI   PO4 5284  17.673  12.717  10.842  0.2395 -0.0586  0.0115
  331loPI   GL1 5285  17.889  12.596  10.515 -0.1145  0.1173  0.0961
  331loPI   GL2 5286  17.672  12.434  10.437 -0.0459  0.1228  0.0163
  331loPI   C1A 5287  17.943  12.517  10.066 -0.0510  0.2236  0.2655
  331loPI   C2A 5288  17.957  12.613   9.629  0.1022  0.0399 -0.2621
  331loPI   C3A 5289  17.974  12.500   9.212  0.1873  0.1221 -0.0376
  331loPI   C4A 5290  18.025  12.532   8.835 -0.0971 -0.0812 -0.0481
  331loPI   C5A 5291  17.862  12.548   8.435 -0.1088 -0.0055  0.3271
  331loPI   C6A 5292  17.411  12.518   8.254  0.1354 -0.0922 -0.1349
  331loPI   C1B 5293  17.433  12.325  10.092 -0.0745 -0.1437  0.3133
  331loPI   C2B 5294  17.463  12.486   9.702  0.1458  0.0112  0.1030
  331loPI   C3B 5295  17.509  12.466   9.252  0.1013 -0.0914  0.1357
  331loPI   C4B 5296  17.493  12.351   8.809  0.0775  0.2321  0.0436
  332loPI    C1 5297  10.761  15.146  10.741 -0.1145  0.1442  0.0309
  332loPI    C2 5298  10.526  15.441  10.874  0.0427  0.2444  0.0894
  332loPI    C3 5299  10.885  15.381  11.040  0.1676  0.2581 -0.1713
  332loPI   PO4 5300  10.781  15.177  10.509  0.2007 -0.3699 -0.1993
  332loPI   GL1 5301  11.094  15.278  10.142  0.0123 -0.1587  0.3576
  332loPI   GL2 5302  10.783  15.283  10.034 -0.1698  0.0693  0.0210
  332loPI   C1A 5303  11.221  15.135   9.746  0.0739 -0.0005  0.0729
  332loPI   C2A 5304  11.228  15.064   9.343 -0.2834  0.0959  0.4347
  332loPI   C3A 5305  11.492  14.914   9.023 -0.3131  0.1026  0.2971
  332loPI   C4A 5306  11.730  14.866   8.582 -0.1718 -0.1067 -0.1251
  332loPI   C5A 5307  12.038  15.012   8.287  0.1285 -0.1473 -0.2262
  332loPI   C6A 5308  12.024  15.240   7.900  0.0662  0.1360 -0.1552
  332loPI   C1B 5309  10.764  15.179   9.654  0.4003 -0.0566 -0.2363
  332loPI   C2B 5310  10.697  15.284   9.174 -0.1314  0.0756 -0.0210
  332loPI   C3B 5311  10.769  15.326   8.665  0.1229  0.2235  0.1052
  332loPI   C4B 5312  11.143  15.376   8.256  0.0624 -0.3299  0.2822
  333loPI    C1 5313  18.053  11.606  11.005  0.1326 -0.0772  0.0211
  333loPI    C2 5314  18.396  11.401  11.011  0.0896 -0.1480  0.0687
  333loPI    C3 5315  18.089  11.284  11.239  0.0164 -0.1155 -0.0128
  333loPI   PO4 5316  18.113  11.765  10.890 -0.3657  0.2687 -0.1583
  333loPI   GL1 5317  18.432  11.848  10.584  0.0019  0.0365  0.0042
  333loPI   GL2 5318  18.647  12.007  10.574 -0.0577  0.0481 -0.2895
  333loPI   C1A 5319  18.172  11.640  10.302 -0.1743  0.0515  0.1611
  333loPI   C2A 5320  18.146  11.627   9.815 -0.0869  0.1715 -0.0506
  333loPI   C3A 5321  18.113  11.732   9.382 -0.1022  0.3920 -0.1571
  333loPI   C4A 5322  18.168  11.664   8.902 -0.0276  0.2299  0.3793
  333loPI   C5A 5323  18.243  11.659   8.458 -0.0031  0.4499 -0.0440
  333loPI   C6A 5324  18.628  11.447   8.291 -0.0564  0.2702 -0.2850
  333loPI   C1B 5325  18.612  11.829  10.109 -0.2318 -0.2036  0.1391
  333loPI   C2B 5326  18.668  11.796   9.527  0.0087 -0.0639 -0.2741
  333loPI   C3B 5327  18.651  11.804   9.118  0.0373 -0.0402  0.0999
  333loPI   C4B 5328  18.660  11.784   8.689 -0.0539  0.0334  0.2045
  334loPI    C1 5329   6.193   5.225  10.098  0.0139 -0.0012 -0.0377
  334loPI    C2 5330   6.574   5.209  10.219 -0.0202 -0.2033  0.0482
  334loPI    C3 5331   6.286   5.306  10.479 -0.0058  0.1703 -0.0686
  334loPI   PO4 5332   6.151   4.985   9.988 -0.2301 -0.0722 -0.2875
  334loPI   GL1 5333   5.916   4.945   9.687  0.0811 -0.1610  0.0502
  334loPI   GL2 5334   5.999   5.221   9.469 -0.2857 -0.1410  0.0904
  334loPI   C1A 5335   5.681   4.818   9.344 -0.1441  0.0801  0.0198
  334loPI   C2A 5336   5.661   4.697   9.047 -0.1600 -0.2345  0.1630
  334loPI   C3A 5337   5.657   4.599   8.578  0.2854  0.1216  0.0522
  334loPI   C4A 5338   5.804   4.782   8.250  0.0821 -0.1531 -0.1842
  334loPI   C5A 5339   5.898   4.719   7.808  0.0568  0.0222  0.0615
  334loPI   C6A 5340   6.049   4.611   7.425  0.0287 -0.2376 -0.2781
  334loPI   C1B 5341   5.978   5.126   9.129 -0.1152 -0.2947 -0.0395
  334loPI   C2B 5342   6.125   5.089   8.817 -0.2230 -0.4153 -0.1887
  334loPI   C3B 5343   6.017   5.364   8.451  0.0074 -0.0434  0.1733
  334loPI   C4B 5344   5.996   5.709   8.137  0.1264 -0.0742 -0.2091
  335loPI    C1 5345   9.769   3.272  11.044 -0.2494 -0.3567  0.0309
  335loPI    C2 5346  10.059   3.132  11.280  0.0057 -0.2003 -0.1835
  335loPI    C3 5347   9.709   3.243  11.438  0.1025 -0.2799  0.0936
  335loPI   PO4 5348   9.922   3.099  10.797 -0.2472  0.2298  0.0714
  335loPI   GL1 5349  10.158   3.128  10.387  0.5163  0.0831 -0.1985
  335loPI   GL2 5350   9.839   3.063  10.254  0.2189  0.0477 -0.2248
  335loPI   C1A 5351  10.280   3.201   9.999  0.3002  0.1090  0.0897
  335loPI   C2A 5352  10.245   3.282   9.584 -0.0633 -0.1591 -0.0465
  335loPI   C3A 5353  10.327   3.236   9.150  0.2569 -0.0801 -0.1281
  335loPI   C4A 5354  10.436   3.143   8.684 -0.0665 -0.1944 -0.0446
  335loPI   C5A 5355  10.333   2.969   8.258 -0.1967 -0.0276  0.3869
  335loPI   C6A 5356   9.835   2.939   8.182 -0.0481  0.0823  0.0790
  335loPI   C1B 5357   9.884   2.951   9.734  0.1843 -0.0515  0.1039
  335loPI   C2B 5358  10.105   2.821   9.399 -0.1380 -0.2268 -0.0197
  335loPI   C3B 5359  10.073   2.541   9.123 -0.1581 -0.0871  0.0348
  335loPI   C4B 5360  10.319   2.280   9.253  0.3873  0.0936  0.1790
  336loPI    C1 5361   4.370   0.626  10.872 -0.0556 -0.1868  0.0108
  336loPI    C2 5362   4.110   0.928  10.904  0.0303 -0.0865 -0.2205
  336loPI    C3 5363   4.444   0.927  11.125 -0.0334 -0.0789 -0.1236
  336loPI   PO4 5364   4.405   0.622  10.600  0.4637  0.1898  0.3289
  336loPI   GL1 5365   4.474   0.406  10.223 -0.0163 -0.1208 -0.0394
  336loPI   GL2 5366   4.208   0.469  10.095 -0.1693  0.0534  0.4314
  336loPI   C1A 5367   4.417   0.259   9.725  0.0764  0.2101 -0.0961
  336loPI   C2A 5368   4.444   0.088   9.354 -0.0648 -0.0831  0.0661
  336loPI   C3A 5369   4.633   0.190   8.986 -0.0712  0.2917  0.0403
  336loPI   C4A 5370   4.952   0.401   8.683 -0.2607  0.1558  0.1620
  336loPI   C5A 5371   4.872   0.632   8.245  0.0430  0.3235 -0.1328
  336loPI   C6A 5372   4.637   0.859   8.018 -0.4657  0.1873 -0.1927
  336loPI   C1B 5373   4.119   0.648   9.701  0.0306  0.2078 -0.0962
  336loPI   C2B 5374   4.232   0.794   9.337  0.0851 -0.0186 -0.0916
  336loPI   C3B 5375   4.039   0.680   8.905 -0.3011  0.1551 -0.1639
  336loPI   C4B 5376   4.001   0.783   8.501 -0.3958 -0.1852  0.0763
  337loPI    C1 5377   1.230  15.620  10.913 -0.0939 -0.0060 -0.0591
  337loPI    C2 5378   1.268  16.012  10.844 -0.0903  0.0429  0.2103
  337loPI    C3 5379   1.341  15.865  11.209 -0.0929 -0.2093  0.1111
  337loPI   PO4 5380   1.213  15.546  10.641 -0.1529 -0.0972 -0.1118
  337loPI   GL1 5381   1.425  15.749  10.360  0.0108  0.0963  0.1240
  337loPI   GL2 5382   1.176  15.961  10.353 -0.1385 -0.1323  0.0588
  337loPI   C1A 5383   1.446  15.590   9.970 -0.2467  0.2457  0.1924
  337loPI   C2A 5384   1.266  15.542   9.649 -0.1322 -0.0762  0.0819
  337loPI   C3A 5385   1.258  15.555   9.213  0.0810 -0.0099  0.0743
  337loPI   C4A 5386   1.209  15.562   8.792  0.1848 -0.1349 -0.1260
  337loPI   C5A 5387   1.087  15.551   8.321  0.0410 -0.1466 -0.0844
  337loPI   C6A 5388   0.827  15.650   8.047  0.1802  0.2433 -0.2850
  337loPI   C1B 5389   1.060  15.976   9.886 -0.1771 -0.0223 -0.0338
  337loPI   C2B 5390   0.967  15.903   9.449 -0.3509  0.0234 -0.0474
  337loPI   C3B 5391   0.881  15.879   9.043 -0.0178  0.1462 -0.0922
  337loPI   C4B 5392   0.770  15.919   8.584 -0.2772 -0.3249  0.0001
  338loPI    C1 5393   0.637  15.477  11.132 -0.0552  0.0348  0.1522
  338loPI    C2 5394   0.809  15.156  11.296 -0.0257  0.0018  0.0571
  338loPI    C3 5395   0.985  15.513  11.325  0.0263 -0.0204  0.0167
  338loPI   PO4 5396   0.638  15.395  10.800 -0.0813 -0.3812  0.0341
  338loPI   GL1 5397   0.634  15.599  10.396  0.2539  0.1300  0.1584
  338loPI   GL2 5398   0.974  15.574  10.189 -0.1067  0.3633 -0.1704
  338loPI   C1A 5399   0.329  15.485   9.975 -0.3462  0.3225  0.0916
  338loPI   C2A 5400   0.190  15.352   9.588 -0.1054 -0.4402 -0.2646
  338loPI   C3A 5401   0.185  15.365   9.096  0.2061  0.0816  0.1811
  338loPI   C4A 5402   0.154  15.307   8.620  0.0548  0.1593 -0.2638
  338loPI   C5A 5403   0.152  15.496   8.250  0.0186 -0.1986 -0.1465
  338loPI   C6A 5404   0.379  15.891   8.267 -0.0549  0.1721 -0.2495
  338loPI   C1B 5405   0.807  15.484   9.806  0.0229 -0.2115 -0.1337
  338loPI   C2B 5406   0.772  15.478   9.322 -0.1121 -0.1923 -0.1735
  338loPI   C3B 5407   0.640  15.454   8.908  0.0633 -0.0010 -0.1109
  338loPI   C4B 5408   0.616  15.453   8.508  0.1993  0.4866  0.0415
  339loPI    C1 5409  16.865  13.361  10.712 -0.0255 -0.0385 -0.0192
  339loPI    C2 5410  17.087  13.418  11.039  0.1400 -0.2253 -0.0972
  339loPI    C3 5411  17.264  13.363  10.685 -0.0363 -0.1308 -0.2010
  339loPI   PO4 5412  16.728  13.196  10.767 -0.3405 -0.0515 -0.0428
  339loPI   GL1 5413  16.438  13.123  10.475 -0.0431 -0.0062 -0.2790
  339loPI   GL2 5414  16.094  13.195  10.335  0.0227  0.1611  0.0499
  339loPI   C1A 5415  16.377  12.989  10.004 -0.1987  0.1114  0.1296
  339loPI   C2A 5416  16.322  12.977   9.574 -0.0482 -0.0972  0.2811
  339loPI   C3A 5417  16.255  13.090   9.171 -0.3099  0.0321 -0.0372
  339loPI   C4A 5418  16.147  13.181   8.769 -0.1627 -0.1380  0.0643
  339loPI   C5A 5419  16.145  13.387   8.412  0.1728 -0.0352  0.0724
  339loPI   C6A 5420  16.089  13.521   7.946  0.0718  0.0935 -0.1609
  339loPI   C1B 5421  15.902  12.848   9.941  0.1099 -0.0400 -0.1781
  339loPI   C2B 5422  15.869  12.900   9.472  0.0714  0.0483 -0.0952
  339loPI   C3B 5423  15.714  13.018   9.117  0.0974 -0.0301 -0.4084
  339loPI   C4B 5424  15.680  12.978   8.696  0.2553 -0.2713 -0.2677
  340loPI    C1 5425   2.744   4.848  11.018 -0.2412  0.0822 -0.2105
  340loPI    C2 5426   2.403   4.826  11.227 -0.1070  0.1250  0.0161
  340loPI    C3 5427   2.729   4.988  11.393  0.0327  0.0575 -0.1889
  340loPI   PO4 5428   2.736   4.654  10.840  0.1626 -0.1928 -0.4125
  340loPI   GL1 5429   2.670   4.564  10.437  0.0092 -0.2111 -0.1009
  340loPI   GL2 5430   2.774   4.778  10.188 -0.3013 -0.1407 -0.0407
  340loPI   C1A 5431   2.442   4.380  10.027  0.3034 -0.1340  0.0400
  340loPI   C2A 5432   2.448   4.303   9.555  0.0170  0.0015 -0.1624
  340loPI   C3A 5433   2.483   4.385   9.151 -0.2722  0.1457  0.1710
  340loPI   C4A 5434   2.474   4.417   8.694 -0.1794 -0.0824  0.2316
  340loPI   C5A 5435   2.312   4.480   8.317  0.0252  0.1806 -0.3146
  340loPI   C6A 5436   1.972   4.533   8.063  0.0705  0.1125  0.1941
  340loPI   C1B 5437   2.851   4.632   9.766  0.2854  0.1264  0.0593
  340loPI   C2B 5438   2.780   4.729   9.340  0.0388 -0.0016 -0.3046
  340loPI   C3B 5439   2.826   4.717   8.946  0.1157  0.1699 -0.0091
  340loPI   C4B 5440   2.784   4.835   8.553  0.2158 -0.0621 -0.0066
  341loPI    C1 5441  10.126   6.785  10.707 -0.0486  0.0350 -0.3610
  341loPI    C2 5442   9.745   6.758  10.588 -0.1693  0.3014 -0.0493
  341loPI    C3 5443   9.839   6.976  10.910  0.1970 -0.0854  0.1142
  341loPI   PO4 5444  10.245   6.908  10.487 -0.0958 -0.1362  0.1784
  341loPI   GL1 5445  10.379   6.892  10.135  0.1041  0.0716  0.0441
  341loPI   GL2 5446  10.522   6.579  10.075  0.0913 -0.0436  0.2396
  341loPI   C1A 5447  10.392   6.858   9.645  0.0783  0.1847 -0.0344
  341loPI   C2A 5448  10.458   6.915   9.203  0.1418  0.0358 -0.2915
  341loPI   C3A 5449  10.456   6.957   8.828 -0.0631  0.1021 -0.1940
  341loPI   C4A 5450  10.444   6.929   8.401  0.3107  0.1765 -0.0193
  341loPI   C5A 5451  10.190   6.976   8.106  0.0016  0.4447  0.1170
  341loPI   C6A 5452   9.668   7.182   8.029 -0.0635 -0.0963 -0.0230
  341loPI   C1B 5453  10.732   6.497   9.698  0.1015 -0.0298  0.1956
  341loPI   C2B 5454  10.814   6.556   9.308  0.2642  0.1464  0.1169
  341loPI   C3B 5455  10.807   6.550   8.776  0.1229  0.1951  0.3051
  341loPI   C4B 5456  10.797   6.600   8.200 -0.1275 -0.0610  0.0477
  342loPI    C1 5457   9.514  10.990  11.284 -0.0497 -0.0987 -0.0733
  342loPI    C2 5458   9.906  11.063  11.257 -0.0030 -0.3640 -0.1373
  342loPI    C3 5459   9.749  10.940  11.603 -0.0987  0.1212 -0.0006
  342loPI   PO4 5460   9.467  11.274  11.191 -0.1100 -0.0287 -0.2560
  342loPI   GL1 5461   9.626  11.552  10.812  0.1335  0.2664 -0.3559
  342loPI   GL2 5462   9.397  11.695  10.578 -0.2399 -0.0675 -0.2118
  342loPI   C1A 5463   9.883  11.411  10.437 -0.1622 -0.1987 -0.1410
  342loPI   C2A 5464   9.824  11.379  10.013 -0.0231 -0.0186 -0.1448
  342loPI   C3A 5465   9.928  11.471   9.485  0.3479 -0.1301 -0.1203
  342loPI   C4A 5466   9.880  11.360   9.049  0.1723 -0.1629 -0.0488
  342loPI   C5A 5467   9.934  11.504   8.633  0.2425  0.1998 -0.2118
  342loPI   C6A 5468  10.023  11.482   8.112 -0.5389 -0.0364 -0.1478
  342loPI   C1B 5469   9.479  11.714  10.137 -0.0559 -0.0139 -0.0184
  342loPI   C2B 5470   9.491  11.689   9.720 -0.0411  0.3874 -0.1794
  342loPI   C3B 5471   9.518  11.684   9.289 -0.0134 -0.0370  0.1420
  342loPI   C4B 5472   9.524  11.691   8.855 -0.0437  0.2252 -0.0416
  343loPI    C1 5473   4.210   8.318  10.742 -0.3103 -0.0586 -0.0266
  343loPI    C2 5474   3.870   8.488  10.617 -0.2285  0.0644 -0.0828
  343loPI    C3 5475   4.052   8.623  10.947 -0.3630 -0.1605  0.0866
  343loPI   PO4 5476   4.324   8.251  10.518  0.0427  0.0134 -0.2118
  343loPI   GL1 5477   4.482   8.114  10.155  0.0105 -0.1377 -0.1556
  343loPI   GL2 5478   4.528   7.924   9.907 -0.1611 -0.0482  0.2204
  343loPI   C1A 5479   4.419   8.395   9.775 -0.0915  0.0589 -0.3606
  343loPI   C2A 5480   4.472   8.455   9.446  0.0118 -0.1891  0.0414
  343loPI   C3A 5481   4.550   8.466   8.993 -0.0385  0.0763  0.0847
  343loPI   C4A 5482   4.361   8.689   8.709  0.0349  0.2743  0.1209
  343loPI   C5A 5483   3.967   8.569   8.388 -0.1314  0.1354 -0.0883
  343loPI   C6A 5484   3.652   8.581   8.160 -0.1217 -0.1228  0.1734
  343loPI   C1B 5485   4.475   7.903   9.538  0.3290  0.0570  0.0773
  343loPI   C2B 5486   4.334   8.044   9.123  0.2168 -0.0791 -0.1196
  343loPI   C3B 5487   4.065   8.296   8.845 -0.0121  0.2957  0.3912
  343loPI   C4B 5488   3.732   8.179   8.572 -0.0759  0.1431 -0.2453
  344loPI    C1 5489   1.965  17.599  11.012  0.1679 -0.0137 -0.1363
  344loPI    C2 5490   1.935  17.278  11.249 -0.0231  0.1658  0.0858
  344loPI    C3 5491   1.786  17.630  11.367  0.0695  0.3081 -0.2114
  344loPI   PO4 5492   2.048  17.508  10.762 -0.1850 -0.2393  0.1838
  344loPI   GL1 5493   1.867  17.470  10.355  0.4714  0.0504  0.2112
  344loPI   GL2 5494   1.568  17.363  10.337 -0.0686 -0.3486 -0.0706
  344loPI   C1A 5495   1.922  17.248   9.932  0.2274 -0.0272 -0.1380
  344loPI   C2A 5496   1.861  17.036   9.599 -0.0610  0.0680 -0.2081
  344loPI   C3A 5497   1.850  17.103   9.166 -0.1458  0.0166  0.2331
  344loPI   C4A 5498   1.621  17.089   8.788 -0.0112 -0.0655  0.1416
  344loPI   C5A 5499   1.769  17.003   8.375  0.2285  0.4715  0.0468
  344loPI   C6A 5500   2.188  17.012   8.150 -0.2531  0.2671  0.0402
  344loPI   C1B 5501   1.472  17.069   9.951  0.1211 -0.3340 -0.2063
  344loPI   C2B 5502   1.313  16.925   9.546  0.0401 -0.3012  0.1920
  344loPI   C3B 5503   1.167  16.896   9.066 -0.2016 -0.0636 -0.1258
  344loPI   C4B 5504   1.145  16.885   8.576 -0.0163 -0.0990 -0.0879
  345loPI    C1 5505  16.194  15.677  11.508 -0.3252  0.0880  0.0410
  345loPI    C2 5506  16.509  15.923  11.505 -0.2516 -0.0066 -0.0152
  345loPI    C3 5507  16.314  15.852  11.847 -0.2332  0.0794  0.0131
  345loPI   PO4 5508  16.104  15.754  11.286 -0.0502  0.3644  0.1037
  345loPI   GL1 5509  16.237  15.751  10.800  0.0717  0.2676 -0.0815
  345loPI   GL2 5510  16.168  16.048  10.561  0.0190 -0.2147 -0.3285
  345loPI   C1A 5511  16.499  15.665  10.459  0.3920  0.2544  0.0074
  345loPI   C2A 5512  16.521  15.514  10.034  0.1447  0.0538  0.0105
  345loPI   C3A 5513  16.567  15.409   9.581 -0.1911  0.3305  0.1516
  345loPI   C4A 5514  16.573  15.460   9.165  0.0515  0.1114  0.1337
  345loPI   C5A 5515  16.632  15.562   8.711  0.0157 -0.0103  0.1828
  345loPI   C6A 5516  16.653  15.693   8.160  0.0031 -0.2913 -0.1413
  345loPI   C1B 5517  16.196  15.878  10.157  0.0513  0.1356 -0.0495
  345loPI   C2B 5518  16.296  15.856   9.753 -0.1387 -0.0471 -0.1643
  345loPI   C3B 5519  16.239  15.780   9.421 -0.0427 -0.0429 -0.0943
  345loPI   C4B 5520  16.247  15.806   8.994 -0.2626  0.1350 -0.0856
  346loPI    C1 5521   7.282  13.113  10.936  0.2069 -0.0410  0.2729
  346loPI    C2 5522   7.108  12.844  11.175  0.0027 -0.1083  0.0525
  346loPI    C3 5523   7.180  13.214  11.309  0.2267 -0.2508  0.3358
  346loPI   PO4 5524   7.083  13.069  10.665  0.1414 -0.0692 -0.3680
  346loPI   GL1 5525   7.110  13.306  10.290  0.2052  0.2238  0.1016
  346loPI   GL2 5526   7.384  13.036  10.215  0.2537 -0.1712 -0.1432
  346loPI   C1A 5527   6.928  13.151   9.949  0.0703  0.1378  0.1147
  346loPI   C2A 5528   6.885  13.144   9.543 -0.2002  0.1181 -0.0824
  346loPI   C3A 5529   6.854  13.189   9.155 -0.0677 -0.2233 -0.0824
  346loPI   C4A 5530   6.867  13.272   8.711  0.1264  0.0505  0.0757
  346loPI   C5A 5531   7.032  13.315   8.352 -0.0888  0.0606 -0.1784
  346loPI   C6A 5532   7.227  13.410   7.985  0.0639  0.0260 -0.2039
  346loPI   C1B 5533   7.333  13.077   9.701 -0.0369  0.0298  0.0860
  346loPI   C2B 5534   7.300  13.031   9.261 -0.0843 -0.2534 -0.0951
  346loPI   C3B 5535   7.551  12.804   9.072  0.1509 -0.0483 -0.3973
  346loPI   C4B 5536   7.568  12.578   8.671 -0.1439  0.0029 -0.2308
  347loPI    C1 5537   9.591   4.826  10.333 -0.0003 -0.0257 -0.2404
  347loPI    C2 5538   9.419   4.466  10.370  0.0705 -0.0513 -0.1564
  347loPI    C3 5539   9.535   4.667  10.696 -0.0731  0.0989 -0.1965
  347loPI   PO4 5540   9.760   4.786  10.209  0.1338 -0.0920 -0.3239
  347loPI   GL1 5541   9.821   4.918   9.795  0.0720 -0.4393  0.3545
  347loPI   GL2 5542   9.980   4.753   9.731 -0.1401  0.1283  0.0128
  347loPI   C1A 5543   9.772   5.302   9.631 -0.0917 -0.2138 -0.2140
  347loPI   C2A 5544   9.823   5.401   9.306 -0.0662 -0.0080  0.2335
  347loPI   C3A 5545   9.783   5.579   8.825  0.0453  0.1561 -0.0924
  347loPI   C4A 5546   9.693   5.526   8.451 -0.1687 -0.0695 -0.3241
  347loPI   C5A 5547   9.567   5.610   8.003  0.1011 -0.1679 -0.0426
  347loPI   C6A 5548   9.392   5.885   7.801  0.2113 -0.0363  0.0004
  347loPI   C1B 5549   9.981   4.397   9.555 -0.1133  0.0343 -0.0446
  347loPI   C2B 5550   9.979   4.103   9.283  0.2586 -0.3222 -0.0286
  347loPI   C3B 5551   9.937   3.695   9.115  0.0915 -0.0118  0.1976
  347loPI   C4B 5552   9.978   3.436   8.838  0.3148 -0.0352  0.2607
  348loPI    C1 5553   8.885  16.353  11.229 -0.0176 -0.0661 -0.1273
  348loPI    C2 5554   8.898  15.979  11.370  0.2469 -0.0111 -0.0011
  348loPI    C3 5555   8.636  16.240  11.521 -0.0766 -0.1978 -0.2275
  348loPI   PO4 5556   8.785  16.361  10.977  0.2396 -0.1353 -0.0344
  348loPI   GL1 5557   8.891  16.291  10.516 -0.2990 -0.1724 -0.2022
  348loPI   GL2 5558   8.658  16.481  10.279 -0.0233 -0.2414 -0.1216
  348loPI   C1A 5559   8.921  16.185  10.053 -0.3469  0.1712  0.1570
  348loPI   C2A 5560   8.914  16.254   9.607 -0.1137  0.2561  0.1202
  348loPI   C3A 5561   8.957  16.194   9.154 -0.3740 -0.1139 -0.2274
  348loPI   C4A 5562   8.914  16.183   8.752  0.0017 -0.2572 -0.0215
  348loPI   C5A 5563   8.879  16.359   8.324 -0.3285  0.0987  0.1540
  348loPI   C6A 5564   8.818  16.387   7.876 -0.0969 -0.0686 -0.4214
  348loPI   C1B 5565   8.558  16.475   9.873  0.3785  0.2468 -0.0805
  348loPI   C2B 5566   8.418  16.438   9.529  0.0458 -0.1456  0.0999
  348loPI   C3B 5567   8.447  16.421   9.174 -0.1025 -0.1008 -0.1782
  348loPI   C4B 5568   8.471  16.452   8.641  0.1607 -0.3509  0.0176
  349loPI    C1 5569   3.807  17.757  10.780  0.0075  0.0216 -0.1178
  349loPI    C2 5570   3.818  18.131  10.920  0.1767 -0.0613  0.0974
  349loPI    C3 5571   3.741  17.828  11.168  0.0057 -0.1676 -0.0826
  349loPI   PO4 5572   3.936  17.743  10.577 -0.0767 -0.1108  0.1197
  349loPI   GL1 5573   3.709  17.825  10.107 -0.0176  0.1951 -0.3805
  349loPI   GL2 5574   3.577  18.077  10.011 -0.0066  0.0688  0.3180
  349loPI   C1A 5575   3.666  17.622   9.716 -0.0700  0.1525 -0.0613
  349loPI   C2A 5576   3.521  17.528   9.426 -0.0568  0.0256  0.2059
  349loPI   C3A 5577   3.422  17.475   9.042 -0.1347  0.0483  0.4684
  349loPI   C4A 5578   3.598  17.175   8.861 -0.1020  0.2027 -0.3851
  349loPI   C5A 5579   3.743  17.125   8.495 -0.1807 -0.0459 -0.1829
  349loPI   C6A 5580   3.994  17.370   8.411 -0.0607  0.1244  0.0669
  349loPI   C1B 5581   3.545  18.093   9.463  0.2189  0.0627 -0.2608
  349loPI   C2B 5582   3.413  17.968   9.045  0.0801  0.2114  0.0133
  349loPI   C3B 5583   3.214  17.905   8.692 -0.0653 -0.0458  0.0942
  349loPI   C4B 5584   3.167  17.789   8.221  0.3211 -0.1280 -0.2105
  350loPI    C1 5585   1.176  16.898  11.029 -0.1273 -0.1380  0.2900
  350loPI    C2 5586   1.157  17.267  11.182  0.0788  0.0566 -0.1349
  350loPI    C3 5587   1.477  17.036  11.253 -0.0234 -0.0215  0.0817
  350loPI   PO4 5588   1.124  16.898  10.792 -0.3127  0.2290 -0.0803
  350loPI   GL1 5589   1.233  16.962  10.364 -0.2326  0.3177 -0.3325
  350loPI   GL2 5590   0.946  16.976  10.341  0.2522  0.1662  0.0979
  350loPI   C1A 5591   1.246  16.632  10.053  0.0606  0.3153 -0.0322
  350loPI   C2A 5592   1.171  16.442   9.717 -0.0787  0.1655  0.1655
  350loPI   C3A 5593   1.069  16.419   9.304  0.0309  0.4414  0.0318
  350loPI   C4A 5594   1.053  16.419   8.900 -0.2293 -0.0237 -0.0035
  350loPI   C5A 5595   1.012  16.392   8.502 -0.1836  0.0815  0.0672
  350loPI   C6A 5596   0.805  16.673   8.152 -0.0804  0.0986  0.1947
  350loPI   C1B 5597   0.848  16.897   9.948  0.0107  0.1634 -0.0648
  350loPI   C2B 5598   0.814  16.874   9.522  0.0814 -0.1096  0.1254
  350loPI   C3B 5599   0.668  16.766   9.106  0.0586  0.1559  0.1774
  350loPI   C4B 5600   0.689  16.771   8.690 -0.3175  0.2914  0.1941
  351loPI    C1 5601  13.683   4.491  10.551  0.1178 -0.1855 -0.0236
  351loPI    C2 5602  13.601   4.817  10.768  0.1348 -0.2141  0.0260
  351loPI    C3 5603  13.926   4.808  10.535  0.1110 -0.1796 -0.0085
  351loPI   PO4 5604  13.467   4.352  10.550  0.1864 -0.0567  0.2303
  351loPI   GL1 5605  13.435   4.122  10.172 -0.2395 -0.3721 -0.0667
  351loPI   GL2 5606  13.160   3.940  10.034 -0.0402  0.3260 -0.0218
  351loPI   C1A 5607  13.560   4.192   9.809 -0.3937 -0.0752 -0.0560
  351loPI   C2A 5608  13.529   4.334   9.366 -0.1636 -0.0591  0.2414
  351loPI   C3A 5609  13.412   4.538   8.893  0.0663 -0.2131  0.0653
  351loPI   C4A 5610  13.375   4.549   8.379 -0.0229  0.1426 -0.2385
  351loPI   C5A 5611  13.049   4.806   7.995 -0.3312  0.1172  0.1292
  351loPI   C6A 5612  12.921   4.536   7.713 -0.2661 -0.0019 -0.0612
  351loPI   C1B 5613  12.984   4.097   9.648 -0.2523  0.0340  0.2337
  351loPI   C2B 5614  13.048   4.219   9.177  0.1370 -0.2509 -0.2949
  351loPI   C3B 5615  13.169   4.079   8.773  0.4975 -0.2835 -0.0676
  351loPI   C4B 5616  13.119   4.078   8.381 -0.0763  0.2908  0.0050
  352loPI    C1 5617   9.317   5.259  10.940  0.1405 -0.1429  0.1169
  352loPI    C2 5618   9.442   5.502  11.232 -0.1244  0.0132  0.1035
  352loPI    C3 5619   9.062   5.375  11.227 -0.0896 -0.0853 -0.1070
  352loPI   PO4 5620   9.402   5.308  10.743 -0.1594 -0.1253  0.0543
  352loPI   GL1 5621   9.384   5.283  10.285 -0.0340  0.2178 -0.0686
  352loPI   GL2 5622   9.314   5.125  10.051  0.2944 -0.0304  0.0344
  352loPI   C1A 5623   9.601   5.693  10.065  0.1089 -0.0562  0.5365
  352loPI   C2A 5624   9.638   5.775   9.626  0.0690  0.2651  0.2024
  352loPI   C3A 5625   9.639   5.869   9.188  0.1081  0.0277 -0.1003
  352loPI   C4A 5626   9.588   6.017   8.774  0.1722  0.0630 -0.3018
  352loPI   C5A 5627   9.430   5.976   8.416  0.3086  0.3379 -0.0550
  352loPI   C6A 5628   9.214   6.251   8.070  0.1753 -0.2894  0.2305
  352loPI   C1B 5629   9.334   4.991   9.557  0.1877  0.0672 -0.0754
  352loPI   C2B 5630   9.675   4.868   9.295  0.0261  0.0942 -0.0683
  352loPI   C3B 5631   9.740   4.701   8.953  0.2317  0.2262 -0.1773
  352loPI   C4B 5632   9.745   4.754   8.467 -0.1017 -0.0276 -0.1663
  353loPI    C1 5633  10.685  14.319  11.157  0.1166  0.2081  0.2231
  353loPI    C2 5634  10.401  14.592  11.224 -0.0825  0.0034  0.2271
  353loPI    C3 5635  10.484  14.317  11.503 -0.1246 -0.1529  0.0868
  353loPI   PO4 5636  10.649  14.127  10.880 -0.0375  0.0236 -0.1812
  353loPI   GL1 5637  10.796  14.204  10.517 -0.0096  0.2070  0.0534
  353loPI   GL2 5638  11.017  14.010  10.393 -0.1015  0.0648 -0.1684
  353loPI   C1A 5639  10.405  14.395  10.339  0.0166  0.1252  0.1455
  353loPI   C2A 5640  10.310  14.477   9.855  0.0757  0.1621  0.0200
  353loPI   C3A 5641  10.334  14.488   9.437  0.0213 -0.0476 -0.1339
  353loPI   C4A 5642  10.402  14.511   9.069  0.0047  0.0597 -0.0080
  353loPI   C5A 5643  10.357  14.480   8.557 -0.0705  0.2079 -0.3585
  353loPI   C6A 5644  10.195  14.749   8.129  0.0320  0.0258 -0.2562
  353loPI   C1B 5645  10.954  14.171   9.977 -0.1068  0.1027  0.1782
  353loPI   C2B 5646  10.900  14.217   9.556 -0.0157  0.4055 -0.2846
  353loPI   C3B 5647  10.842  14.234   9.128 -0.0294  0.1287  0.0317
  353loPI   C4B 5648  10.839  14.464   8.668  0.1698 -0.0173  0.3023
  354loPI    C1 5649   2.284   2.814  10.646 -0.0736 -0.0178 -0.2622
  354loPI    C2 5650   2.118   3.097  10.874 -0.0825 -0.1017 -0.1635
  354loPI    C3 5651   2.512   3.100  10.807 -0.0727 -0.1047 -0.1067
  354loPI   PO4 5652   2.109   2.859  10.399  0.0323  0.2002 -0.1692
  354loPI   GL1 5653   2.087   3.013   9.951  0.0910  0.0794  0.0528
  354loPI   GL2 5654   1.831   2.863   9.857 -0.1909  0.0183  0.1521
  354loPI   C1A 5655   2.433   3.028   9.761 -0.3114  0.2259 -0.0047
  354loPI   C2A 5656   2.469   3.065   9.283 -0.0087 -0.0761  0.1075
  354loPI   C3A 5657   2.498   3.053   8.913 -0.1008  0.0935 -0.2899
  354loPI   C4A 5658   2.390   2.939   8.536 -0.2492  0.2670  0.0366
  354loPI   C5A 5659   2.179   2.769   8.131  0.0572  0.0356  0.3437
  354loPI   C6A 5660   1.921   2.603   7.899 -0.1715 -0.1521  0.0612
  354loPI   C1B 5661   1.977   2.998   9.501 -0.0920  0.0983 -0.3953
  354loPI   C2B 5662   1.932   3.152   9.148  0.2592 -0.1713 -0.4099
  354loPI   C3B 5663   1.947   3.112   8.796 -0.0399  0.1096 -0.2841
  354loPI   C4B 5664   1.802   2.893   8.465  0.0869  0.3535  0.2694
  355loPI    C1 5665  16.547   6.725  11.008 -0.0775  0.0206 -0.0866
  355loPI    C2 5666  16.578   7.092  10.851 -0.0147  0.0652  0.0290
  355loPI    C3 5667  16.782   6.998  11.182 -0.0876 -0.0517  0.0416
  355loPI   PO4 5668  16.488   6.589  10.876  0.1184  0.0698  0.1736
  355loPI   GL1 5669  16.354   6.482  10.467 -0.1046 -0.0411  0.2386
  355loPI   GL2 5670  16.388   6.851  10.483  0.1571 -0.0645  0.2348
  355loPI   C1A 5671  16.318   6.410  10.079 -0.0942  0.1428  0.3803
  355loPI   C2A 5672  16.329   6.522   9.637 -0.1575 -0.1107 -0.1727
  355loPI   C3A 5673  16.362   6.572   9.331 -0.0056  0.1578 -0.3923
  355loPI   C4A 5674  16.348   6.673   8.889  0.2567  0.2400  0.4346
  355loPI   C5A 5675  16.348   6.598   8.445  0.0940 -0.5424 -0.2544
  355loPI   C6A 5676  16.325   6.803   8.021 -0.0001  0.1056  0.1134
  355loPI   C1B 5677  16.483   6.892  10.090 -0.2761  0.3681  0.3935
  355loPI   C2B 5678  16.504   7.012   9.679 -0.0943 -0.1785 -0.0588
  355loPI   C3B 5679  16.514   7.134   9.231 -0.2311  0.0673  0.0251
  355loPI   C4B 5680  16.486   7.195   8.864 -0.1143  0.1900 -0.2217
  356loPI    C1 5681  14.182   4.477  10.785 -0.0932 -0.1979 -0.1006
  356loPI    C2 5682  14.575   4.543  10.812 -0.1252 -0.0441 -0.0007
  356loPI    C3 5683  14.351   4.534  11.143 -0.2528  0.1680 -0.0793
  356loPI   PO4 5684  14.196   4.295  10.534 -0.2059  0.1711  0.1332
  356loPI   GL1 5685  13.933   4.138  10.269 -0.0808  0.1840  0.2175
  356loPI   GL2 5686  13.976   4.430  10.117 -0.3015 -0.2469  0.0115
  356loPI   C1A 5687  14.176   4.026   9.807  0.0934  0.0080 -0.0587
  356loPI   C2A 5688  14.366   4.154   9.401  0.2359 -0.3364  0.2798
  356loPI   C3A 5689  14.222   4.258   9.015  0.2345 -0.2620 -0.1737
  356loPI   C4A 5690  14.312   4.180   8.620 -0.0294  0.0434 -0.1469
  356loPI   C5A 5691  14.276   4.295   8.289 -0.0693 -0.0975  0.0171
  356loPI   C6A 5692  14.328   4.429   7.918  0.1612  0.3252 -0.1452
  356loPI   C1B 5693  14.015   4.492   9.638  0.0698  0.2359 -0.1736
  356loPI   C2B 5694  13.974   4.652   9.215  0.0884  0.1494  0.2726
  356loPI   C3B 5695  13.906   4.610   8.861  0.0159 -0.0417  0.2662
  356loPI   C4B 5696  13.892   4.694   8.399  0.0395 -0.1416  0.1656
  357loPI    C1 5697   2.660  15.769  10.856  0.1188 -0.1562 -0.1581
  357loPI    C2 5698   2.763  15.793  11.242  0.2449 -0.3274 -0.1797
  357loPI    C3 5699   2.615  15.452  11.095 -0.0648 -0.1794 -0.2216
  357loPI   PO4 5700   2.820  15.871  10.750  0.1407 -0.2953 -0.0081
  357loPI   GL1 5701   2.954  15.767  10.320  0.0486 -0.1346 -0.1776
  357loPI   GL2 5702   2.960  16.065  10.262  0.0353 -0.1967 -0.1349
  357loPI   C1A 5703   3.143  15.660   9.922  0.3049 -0.0898  0.2107
  357loPI   C2A 5704   3.037  15.679   9.494 -0.0986 -0.1183  0.0412
  357loPI   C3A 5705   3.063  15.588   8.994 -0.0376 -0.0918 -0.1134
  357loPI   C4A 5706   3.084  15.730   8.532 -0.2296 -0.1537  0.1128
  357loPI   C5A 5707   2.838  15.513   8.229 -0.3449 -0.0192 -0.1123
  357loPI   C6A 5708   2.467  15.490   8.012 -0.1211  0.2403 -0.0839
  357loPI   C1B 5709   2.664  15.845   9.945  0.0373 -0.1044 -0.0301
  357loPI   C2B 5710   2.538  15.836   9.582  0.0638  0.1115  0.1042
  357loPI   C3B 5711   2.516  15.860   9.131 -0.1489  0.0423  0.2955
  357loPI   C4B 5712   2.161  15.808   8.864  0.1719 -0.1276 -0.3009
  358loPI    C1 5713  14.256  12.717  11.365  0.0037  0.0261  0.0147
  358loPI    C2 5714  14.094  12.564  11.033 -0.0945 -0.0567  0.0996
  358loPI    C3 5715  13.889  12.558  11.376  0.1095 -0.2119  0.2215
  358loPI   PO4 5716  14.415  12.959  11.228  0.0318 -0.0108  0.0958
  358loPI   GL1 5717  14.304  13.300  10.911 -0.0417 -0.3406 -0.0674
  358loPI   GL2 5718  14.254  12.910  10.665  0.3606 -0.1509  0.2611
  358loPI   C1A 5719  14.355  13.470  10.452  0.3079  0.3104 -0.2338
  358loPI   C2A 5720  14.265  13.434   9.995 -0.1533 -0.2420  0.1318
  358loPI   C3A 5721  14.363  13.367   9.564 -0.1435 -0.1555 -0.0974
  358loPI   C4A 5722  14.160  13.498   9.169 -0.1896 -0.0701 -0.0664
  358loPI   C5A 5723  14.160  13.645   8.768  0.3162  0.1406  0.1051
  358loPI   C6A 5724  13.838  13.723   8.492 -0.1712  0.0816  0.0233
  358loPI   C1B 5725  14.106  12.965  10.319 -0.0564 -0.0527 -0.1330
  358loPI   C2B 5726  13.886  13.086   9.875 -0.0933  0.2073  0.1246
  358loPI   C3B 5727  13.959  13.041   9.487 -0.1426 -0.0307 -0.0637
  358loPI   C4B 5728  14.124  12.996   9.022 -0.0049  0.0103 -0.1333
  359loPI    C1 5729  11.996   9.025  11.131 -0.0868 -0.0011  0.0981
  359loPI    C2 5730  12.033   8.753  11.422  0.0143 -0.0462  0.0434
  359loPI    C3 5731  12.242   9.094  11.439  0.1972 -0.1495 -0.0913
  359loPI   PO4 5732  12.065   8.934  10.969  0.2436 -0.2030 -0.0539
  359loPI   GL1 5733  12.150   9.188  10.618  0.1645  0.1788  0.4093
  359loPI   GL2 5734  12.208   9.384  10.545 -0.0054  0.0658  0.0483
  359loPI   C1A 5735  11.954   9.117  10.135 -0.0224 -0.1591  0.0637
  359loPI   C2A 5736  11.975   9.066   9.800 -0.0052 -0.1469 -0.2017
  359loPI   C3A 5737  11.979   9.086   9.368  0.0910  0.2313  0.4120
  359loPI   C4A 5738  12.037   9.106   8.902 -0.3921  0.0736  0.1654
  359loPI   C5A 5739  11.940   9.183   8.433  0.0631 -0.0187 -0.0450
  359loPI   C6A 5740  12.009   8.993   8.107  0.1163 -0.0018 -0.1646
  359loPI   C1B 5741  12.221   9.575  10.201 -0.1920 -0.0658 -0.0429
  359loPI   C2B 5742  12.076   9.532   9.773 -0.0657 -0.1139 -0.0824
  359loPI   C3B 5743  12.100   9.547   9.387  0.3518  0.0655 -0.1937
  359loPI   C4B 5744  12.111   9.634   8.961 -0.2803  0.0577  0.2516
  360loPI    C1 5745   7.027   0.470  10.644  0.1720  0.1698 -0.0932
  360loPI    C2 5746   7.268   0.174  10.763 -0.2794 -0.1263  0.1093
  360loPI    C3 5747   7.285   0.530  10.944  0.1082 -0.0938  0.0172
  360loPI   PO4 5748   6.871   0.238  10.415 -0.0675  0.0736 -0.2602
  360loPI   GL1 5749   6.723   0.245  10.116  0.1678 -0.0766 -0.2073
  360loPI   GL2 5750   6.848  -0.113  10.013  0.0097  0.2737  0.3009
  360loPI   C1A 5751   6.831   0.383   9.702  0.0599  0.2008  0.0934
  360loPI   C2A 5752   6.647   0.337   9.378  0.1210  0.0583  0.0691
  360loPI   C3A 5753   6.548   0.383   8.928  0.0120  0.1061  0.0006
  360loPI   C4A 5754   6.671   0.232   8.568  0.1027  0.2202  0.0772
  360loPI   C5A 5755   6.645   0.069   8.201  0.0452  0.0186 -0.0616
  360loPI   C6A 5756   6.458  -0.272   8.065  0.1163  0.2160  0.2353
  360loPI   C1B 5757   7.029  -0.095   9.744 -0.1171 -0.0384  0.1722
  360loPI   C2B 5758   6.998  -0.059   9.302  0.1428 -0.2243  0.0872
  360loPI   C3B 5759   6.919   0.040   8.956 -0.1660  0.0730 -0.0644
  360loPI   C4B 5760   7.033  -0.057   8.517 -0.0739 -0.0854  0.0173
  361loPI    C1 5761  16.044   4.470  10.766  0.1202 -0.0034 -0.0540
  361loPI    C2 5762  15.916   4.791  10.967 -0.1242 -0.1365  0.0072
  361loPI    C3 5763  16.253   4.811  10.751 -0.0694  0.1218  0.1128
  361loPI   PO4 5764  15.737   4.397  10.636  0.1184  0.2598  0.0485
  361loPI   GL1 5765  15.460   4.405  10.294 -0.0380  0.3201 -0.0239
  361loPI   GL2 5766  15.510   4.108  10.269 -0.0031 -0.1801  0.0422
  361loPI   C1A 5767  15.410   4.314   9.810 -0.2614 -0.1390 -0.0818
  361loPI   C2A 5768  15.335   4.434   9.451  0.0844  0.0366  0.1277
  361loPI   C3A 5769  15.362   4.500   9.014 -0.0947 -0.0993  0.1584
  361loPI   C4A 5770  15.334   4.507   8.569 -0.0446  0.0686 -0.0276
  361loPI   C5A 5771  15.264   4.558   8.129  0.1454 -0.1040  0.1127
  361loPI   C6A 5772  14.824   4.651   7.977 -0.0553 -0.1620 -0.1315
  361loPI   C1B 5773  15.852   4.318  10.014  0.1566 -0.0836 -0.0284
  361loPI   C2B 5774  15.813   4.537   9.605  0.1685  0.0124 -0.0953
  361loPI   C3B 5775  15.828   4.629   9.182  0.1280 -0.0831  0.2179
  361loPI   C4B 5776  15.807   4.674   8.703  0.0955  0.0235 -0.1476
  362loPI    C1 5777  12.559   2.696  10.991 -0.1264 -0.2548 -0.0804
  362loPI    C2 5778  12.668   2.348  11.157  0.1195 -0.0991  0.0908
  362loPI    C3 5779  12.554   2.654  11.388 -0.3144 -0.1333 -0.0692
  362loPI   PO4 5780  12.742   2.711  10.835 -0.0480  0.0604  0.0016
  362loPI   GL1 5781  12.750   2.774  10.498 -0.3252  0.2395  0.0555
  362loPI   GL2 5782  12.842   3.058  10.291 -0.0242  0.1899  0.1788
  362loPI   C1A 5783  12.729   2.674  10.030  0.1363  0.1600 -0.0503
  362loPI   C2A 5784  12.792   2.751   9.557 -0.1431  0.2186  0.1875
  362loPI   C3A 5785  12.802   2.887   9.167 -0.0543  0.1836  0.0550
  362loPI   C4A 5786  12.879   3.069   8.785 -0.3577  0.2935 -0.0137
  362loPI   C5A 5787  12.722   3.350   8.487 -0.2316  0.0662 -0.1554
  362loPI   C6A 5788  12.757   3.680   8.321 -0.1066  0.0890  0.0524
  362loPI   C1B 5789  13.098   2.987   9.850 -0.2764 -0.0076  0.1253
  362loPI   C2B 5790  13.215   3.044   9.396 -0.2297 -0.0007 -0.0294
  362loPI   C3B 5791  13.080   3.421   9.153 -0.1546 -0.0825  0.3261
  362loPI   C4B 5792  12.953   3.603   8.799  0.1080  0.0669 -0.1499
  363loPI    C1 5793   8.380   8.388  11.542  0.2543 -0.1747  0.0935
  363loPI    C2 5794   8.613   8.123  11.731  0.0493 -0.3065  0.1654
  363loPI    C3 5795   8.401   8.389  11.941  0.2238 -0.1088  0.0949
  363loPI   PO4 5796   8.527   8.477  11.272 -0.2661  0.1954  0.2623
  363loPI   GL1 5797   8.792   8.483  11.006 -0.1672  0.1485  0.1807
  363loPI   GL2 5798   8.991   8.354  10.915  0.0858 -0.0503 -0.0249
  363loPI   C1A 5799   8.498   8.729  10.681 -0.1172  0.0525  0.0557
  363loPI   C2A 5800   8.482   8.754  10.142 -0.5756  0.2217 -0.1394
  363loPI   C3A 5801   8.601   8.793   9.694 -0.0069  0.0620  0.0514
  363loPI   C4A 5802   8.566   8.868   9.258  0.0938  0.1448 -0.1303
  363loPI   C5A 5803   8.717   8.885   8.854 -0.2882 -0.0231 -0.1352
  363loPI   C6A 5804   8.740   9.043   8.568 -0.0524 -0.0028  0.4048
  363loPI   C1B 5805   8.918   8.272  10.459  0.0305  0.0206 -0.1008
  363loPI   C2B 5806   8.870   8.310   9.908  0.1569  0.1714 -0.1423
  363loPI   C3B 5807   8.855   8.478   9.420 -0.1665 -0.0754  0.0532
  363loPI   C4B 5808   8.959   8.473   8.970 -0.2462  0.2340  0.0484
  364loPI    C1 5809  15.822   8.790  10.978  0.0424 -0.0408  0.0595
  364loPI    C2 5810  16.210   8.882  11.007  0.0323 -0.0122  0.1047
  364loPI    C3 5811  15.936   9.115  11.181  0.0051 -0.1162  0.2019
  364loPI   PO4 5812  15.797   8.692  10.756  0.2963 -0.1368 -0.0011
  364loPI   GL1 5813  15.482   8.727  10.471  0.0142 -0.3039  0.0648
  364loPI   GL2 5814  15.580   9.067  10.275  0.4678  0.0015 -0.0566
  364loPI   C1A 5815  15.561   8.606  10.138  0.0975  0.2070  0.1670
  364loPI   C2A 5816  15.616   8.650   9.707 -0.1491  0.0851  0.0612
  364loPI   C3A 5817  15.574   8.727   9.259  0.1288 -0.0925 -0.0914
  364loPI   C4A 5818  15.551   8.731   8.757 -0.2169 -0.4003  0.0353
  364loPI   C5A 5819  15.531   8.897   8.345 -0.0731 -0.0926  0.0896
  364loPI   C6A 5820  15.389   9.070   7.945  0.2083 -0.0399 -0.1595
  364loPI   C1B 5821  15.709   9.096   9.929  0.1758  0.1847 -0.1699
  364loPI   C2B 5822  15.703   9.197   9.524 -0.2559  0.0702 -0.2347
  364loPI   C3B 5823  15.620   9.225   9.065 -0.2030 -0.0464 -0.5803
  364loPI   C4B 5824  15.695   9.244   8.678  0.0875  0.0346 -0.2289
  365loPI    C1 5825   6.237  14.848  10.550  0.1054 -0.0398  0.2731
  365loPI    C2 5826   6.003  14.558  10.405  0.1465  0.0381  0.0479
  365loPI    C3 5827   5.860  14.812  10.679 -0.0372  0.0913 -0.0952
  365loPI   PO4 5828   6.436  14.750  10.553  0.0249  0.0629  0.0686
  365loPI   GL1 5829   6.586  14.395  10.298 -0.1481  0.2185  0.1329
  365loPI   GL2 5830   6.352  14.339  10.099  0.1767  0.0479  0.0585
  365loPI   C1A 5831   6.738  14.319   9.841 -0.0622  0.0258 -0.1241
  365loPI   C2A 5832   6.865  14.246   9.457  0.0540 -0.0199 -0.0553
  365loPI   C3A 5833   6.792  14.171   9.019 -0.5893 -0.0771  0.2354
  365loPI   C4A 5834   6.869  14.395   8.670 -0.1420  0.1814 -0.2446
  365loPI   C5A 5835   6.859  14.504   8.153 -0.0972 -0.0573  0.0027
  365loPI   C6A 5836   7.113  14.290   7.832 -0.4841 -0.0353 -0.0571
  365loPI   C1B 5837   6.129  14.463   9.805 -0.1401 -0.0351  0.2050
  365loPI   C2B 5838   6.251  14.491   9.334 -0.3181 -0.1105  0.3864
  365loPI   C3B 5839   6.333  14.472   8.965  0.1540 -0.1979 -0.0482
  365loPI   C4B 5840   6.336  14.483   8.494  0.2930 -0.1350 -0.1218
  366loPI    C1 5841  17.616   2.663  10.699  0.1715  0.0437 -0.0510
  366loPI    C2 5842  17.702   2.276  10.756  0.2459  0.0076 -0.3875
  366loPI    C3 5843  17.322   2.392  10.713  0.1873  0.0354  0.1434
  366loPI   PO4 5844  17.706   2.681  10.428  0.2240  0.0002  0.2303
  366loPI   GL1 5845  17.438   2.762  10.102  0.1298  0.1891  0.2299
  366loPI   GL2 5846  17.691   2.821   9.840  0.1662  0.0313 -0.3098
  366loPI   C1A 5847  17.226   2.838   9.756 -0.2316  0.0691  0.1166
  366loPI   C2A 5848  17.167   2.817   9.339 -0.0027  0.2619 -0.1746
  366loPI   C3A 5849  17.302   2.700   8.956  0.1497  0.4683  0.1678
  366loPI   C4A 5850  17.441   2.899   8.613  0.2858 -0.1553  0.0040
  366loPI   C5A 5851  17.465   2.992   8.231  0.1022 -0.3030 -0.1436
  366loPI   C6A 5852  17.392   2.927   7.758 -0.1296 -0.1198 -0.0378
  366loPI   C1B 5853  17.714   2.989   9.482  0.0839 -0.1547 -0.1046
  366loPI   C2B 5854  17.699   3.086   9.045 -0.0756 -0.0314 -0.1306
  366loPI   C3B 5855  17.891   3.282   8.629 -0.2631 -0.0429  0.2087
  366loPI   C4B 5856  18.230   3.239   8.375  0.1395 -0.1566 -0.0831
  367loPI    C1 5857  15.091   7.256  10.773  0.0585  0.1531 -0.1959
  367loPI    C2 5858  14.905   7.383  11.103 -0.0295  0.0902 -0.2206
  367loPI    C3 5859  15.170   7.085  11.126  0.0598  0.1714 -0.1873
  367loPI   PO4 5860  15.160   7.465  10.690  0.1616  0.0053  0.1285
  367loPI   GL1 5861  15.354   7.562  10.273  0.0553 -0.2125 -0.1642
  367loPI   GL2 5862  15.612   7.380  10.419  0.1667 -0.1041 -0.2286
  367loPI   C1A 5863  15.236   7.571   9.905  0.3760  0.1956 -0.0747
  367loPI   C2A 5864  15.229   7.583   9.556  0.0850  0.2022 -0.4072
  367loPI   C3A 5865  15.274   7.631   9.148  0.0592 -0.1034  0.4603
  367loPI   C4A 5866  15.179   7.726   8.751 -0.0564 -0.0336  0.2945
  367loPI   C5A 5867  15.174   7.921   8.382  0.2561 -0.4947  0.3982
  367loPI   C6A 5868  14.766   8.016   8.181  0.4767  0.1813 -0.1618
  367loPI   C1B 5869  15.643   7.199  10.007 -0.0466 -0.1388  0.1877
  367loPI   C2B 5870  15.602   7.226   9.588  0.1088 -0.4362  0.0671
  367loPI   C3B 5871  15.709   7.316   9.183  0.2298 -0.0703  0.2830
  367loPI   C4B 5872  15.590   7.414   8.770 -0.1676  0.3767 -0.1385
  368loPI    C1 5873   3.440  15.947  10.731  0.5220  0.1156  0.3925
  368loPI    C2 5874   3.183  16.142  10.967 -0.1210  0.0592 -0.2258
  368loPI    C3 5875   3.261  15.756  11.033 -0.0657  0.1171  0.0614
  368loPI   PO4 5876   3.381  15.952  10.498 -0.2345 -0.1954  0.1520
  368loPI   GL1 5877   3.377  16.206  10.036  0.2449  0.1894  0.0676
  368loPI   GL2 5878   3.508  15.975   9.960 -0.2057  0.0051 -0.0578
  368loPI   C1A 5879   3.164  16.144   9.660 -0.0259  0.3000 -0.0853
  368loPI   C2A 5880   2.990  16.053   9.209 -0.0342  0.3467  0.1130
  368loPI   C3A 5881   2.830  16.094   8.767 -0.1259 -0.1365 -0.0199
  368loPI   C4A 5882   2.805  16.075   8.304  0.0735 -0.0880 -0.0544
  368loPI   C5A 5883   2.678  16.182   7.878 -0.0571  0.0182  0.1984
  368loPI   C6A 5884   2.523  16.451   7.545 -0.1052 -0.1703  0.2897
  368loPI   C1B 5885   3.540  15.722   9.638  0.2041 -0.2366  0.2634
  368loPI   C2B 5886   3.845  15.581   9.420  0.1665  0.0574  0.3298
  368loPI   C3B 5887   3.851  15.464   8.998  0.0050 -0.0688  0.2848
  368loPI   C4B 5888   4.050  15.604   8.667  0.3181 -0.2286 -0.2489
  369loPI    C1 5889   4.476   3.095  10.833 -0.0128 -0.0866  0.0423
  369loPI    C2 5890   4.094   3.134  10.720 -0.0815 -0.0102  0.2936
  369loPI    C3 5891   4.229   2.781  10.851 -0.0441 -0.0575  0.1295
  369loPI   PO4 5892   4.684   3.244  10.582 -0.4244  0.2701 -0.1535
  369loPI   GL1 5893   4.759   3.194  10.079  0.0458 -0.2644  0.3070
  369loPI   GL2 5894   4.914   3.451   9.925  0.2885 -0.0403 -0.0992
  369loPI   C1A 5895   4.949   2.997   9.727  0.0865 -0.2356  0.1753
  369loPI   C2A 5896   4.860   2.935   9.278 -0.1122  0.1094 -0.1235
  369loPI   C3A 5897   4.816   3.003   8.905 -0.0066 -0.0181  0.0777
  369loPI   C4A 5898   4.860   2.972   8.463  0.1053 -0.3192 -0.1087
  369loPI   C5A 5899   4.607   2.936   8.067  0.1823  0.4312  0.0576
  369loPI   C6A 5900   4.136   2.815   8.099 -0.1818  0.2287 -0.0152
  369loPI   C1B 5901   4.827   3.452   9.573 -0.2450 -0.1975 -0.0008
  369loPI   C2B 5902   4.701   3.484   9.159  0.0414  0.0879 -0.0273
  369loPI   C3B 5903   4.648   3.527   8.735  0.2136  0.2097  0.0318
  369loPI   C4B 5904   4.524   3.375   8.196  0.0623 -0.1670  0.1100
  370loPI    C1 5905   3.732   0.121  10.412  0.1457  0.0297  0.3728
  370loPI    C2 5906   3.448   0.241  10.668 -0.0703 -0.0838  0.1898
  370loPI    C3 5907   3.458  -0.139  10.544 -0.0984  0.0174 -0.1334
  370loPI   PO4 5908   3.719   0.328  10.262 -0.2534 -0.3174 -0.0382
  370loPI   GL1 5909   3.409   0.503  10.103 -0.1309  0.0652 -0.0093
  370loPI   GL2 5910   3.608   0.387   9.781  0.2273 -0.1550 -0.0392
  370loPI   C1A 5911   3.258   0.715   9.750  0.0420 -0.3782  0.0027
  370loPI   C2A 5912   3.214   0.691   9.278 -0.1639  0.3401  0.2860
  370loPI   C3A 5913   3.123   0.831   8.906 -0.1410 -0.1144 -0.1747
  370loPI   C4A 5914   3.008   0.868   8.469  0.0772 -0.0399 -0.0983
  370loPI   C5A 5915   2.843   0.904   8.164  0.1834 -0.1628 -0.0489
  370loPI   C6A 5916   2.934   0.747   7.754  0.0191  0.4056  0.1457
  370loPI   C1B 5917   3.907   0.231   9.482 -0.0146  0.1612 -0.1445
  370loPI   C2B 5918   4.002   0.208   9.071  0.0611 -0.1274 -0.1014
  370loPI   C3B 5919   4.128   0.221   8.631  0.0131 -0.0824 -0.0032
  370loPI   C4B 5920   4.563   0.236   8.481  0.1825  0.2584 -0.0592
  371loPI    C1 5921   9.935  15.549  10.979 -0.1805  0.2426  0.0862
  371loPI    C2 5922  10.095  15.865  10.794 -0.1650  0.2180  0.0576
  371loPI    C3 5923  10.170  15.801  11.181  0.0662  0.0903 -0.0064
  371loPI   PO4 5924   9.971  15.386  10.818  0.1144 -0.0293 -0.0201
  371loPI   GL1 5925   9.786  15.125  10.494 -0.2737 -0.1719  0.2664
  371loPI   GL2 5926   9.528  14.954  10.409 -0.2389 -0.2812 -0.0169
  371loPI   C1A 5927   9.774  15.101  10.056  0.2397  0.0708 -0.1820
  371loPI   C2A 5928   9.900  15.240   9.624 -0.1300 -0.0865 -0.0858
  371loPI   C3A 5929   9.801  15.239   9.193 -0.0699  0.1030  0.3084
  371loPI   C4A 5930   9.906  15.249   8.807 -0.0724  0.2995 -0.0304
  371loPI   C5A 5931   9.940  15.044   8.388 -0.1512  0.1187  0.1356
  371loPI   C6A 5932   9.718  14.967   7.958  0.0687  0.0811 -0.1613
  371loPI   C1B 5933   9.371  14.833  10.043  0.0795  0.0627 -0.0336
  371loPI   C2B 5934   9.389  14.845   9.584 -0.0256  0.0368  0.0355
  371loPI   C3B 5935   9.447  14.839   9.151  0.1376 -0.0729  0.2441
  371loPI   C4B 5936   9.504  14.854   8.700  0.0680 -0.0067  0.2740
  372loPI    C1 5937  12.969  13.984  11.065  0.1403  0.2539 -0.0043
  372loPI    C2 5938  13.277  13.752  11.171  0.1289  0.1860 -0.1178
  372loPI    C3 5939  12.991  13.839  11.438  0.1410  0.0819 -0.0705
  372loPI   PO4 5940  12.965  13.939  10.841  0.2703 -0.1357 -0.1067
  372loPI   GL1 5941  13.112  14.163  10.401 -0.3563  0.1854  0.1201
  372loPI   GL2 5942  13.268  13.889  10.259  0.0027 -0.0793 -0.0237
  372loPI   C1A 5943  13.043  14.117   9.905  0.2173 -0.1415 -0.2603
  372loPI   C2A 5944  12.698  13.940   9.648  0.0242 -0.2058 -0.1358
  372loPI   C3A 5945  12.354  13.748   9.324  0.2339 -0.0550 -0.2920
  372loPI   C4A 5946  12.098  13.496   9.109  0.1598 -0.1358  0.1545
  372loPI   C5A 5947  11.796  13.190   8.957  0.0346 -0.0119  0.2819
  372loPI   C6A 5948  11.375  13.032   8.982  0.1359  0.3390  0.3331
  372loPI   C1B 5949  13.418  13.887   9.748 -0.0677 -0.1766  0.1395
  372loPI   C2B 5950  13.592  13.902   9.413 -0.1022  0.2196  0.0593
  372loPI   C3B 5951  13.603  13.718   8.948 -0.1686  0.1794 -0.0516
  372loPI   C4B 5952  13.339  13.516   8.544  0.2907 -0.0111  0.3264
  373loPI    C1 5953  11.551   3.363  11.257  0.1993 -0.2413  0.0374
  373loPI    C2 5954  11.419   3.101  11.528 -0.2055 -0.1250 -0.0413
  373loPI    C3 5955  11.441   3.489  11.620  0.1903 -0.1547  0.0048
  373loPI   PO4 5956  11.433   3.310  11.027 -0.0431  0.1239  0.1694
  373loPI   GL1 5957  11.534   3.234  10.604 -0.1773  0.3469  0.1344
  373loPI   GL2 5958  11.316   3.054  10.542  0.2474  0.0219 -0.2931
  373loPI   C1A 5959  11.553   3.517  10.176  0.2338  0.1027  0.0345
  373loPI   C2A 5960  11.606   3.673   9.827 -0.1634  0.0231  0.1535
  373loPI   C3A 5961  11.690   3.813   9.385  0.1024  0.0588 -0.0425
  373loPI   C4A 5962  11.626   3.760   8.983 -0.0776 -0.0112  0.2992
  373loPI   C5A 5963  11.780   3.837   8.576 -0.0274  0.2314 -0.0354
  373loPI   C6A 5964  11.781   3.665   8.229  0.2965  0.1593  0.0261
  373loPI   C1B 5965  11.463   2.956  10.159  0.0661 -0.1180 -0.0485
  373loPI   C2B 5966  11.471   2.868   9.767 -0.0701  0.3307 -0.2300
  373loPI   C3B 5967  11.399   2.862   9.419 -0.2284 -0.0401  0.0470
  373loPI   C4B 5968  11.272   3.105   9.121 -0.1504  0.1416  0.3888
  374loPI    C1 5969   8.568   5.891  10.738 -0.2039  0.1932  0.1369
  374loPI    C2 5970   8.702   5.690  11.058 -0.0726  0.1450  0.0525
  374loPI    C3 5971   8.338   5.613  10.911 -0.0219 -0.0352  0.0182
  374loPI   PO4 5972   8.728   5.826  10.546 -0.0633 -0.1966 -0.3524
  374loPI   GL1 5973   8.635   5.877  10.166  0.2103  0.1101 -0.1853
  374loPI   GL2 5974   8.405   5.737  10.068 -0.2801  0.1872  0.1006
  374loPI   C1A 5975   8.675   6.086   9.765  0.2206 -0.0085 -0.3380
  374loPI   C2A 5976   8.629   6.241   9.406 -0.2341  0.0163  0.0261
  374loPI   C3A 5977   8.712   6.069   8.965  0.1604  0.1545 -0.0904
  374loPI   C4A 5978   8.915   5.945   8.575  0.0389  0.3398 -0.0172
  374loPI   C5A 5979   9.019   5.683   8.256  0.0374 -0.1965  0.2644
  374loPI   C6A 5980   9.149   5.279   7.934 -0.0912  0.0705 -0.2075
  374loPI   C1B 5981   8.349   5.670   9.664  0.0449  0.1898 -0.1474
  374loPI   C2B 5982   8.692   5.731   9.370 -0.0251  0.0683 -0.2761
  374loPI   C3B 5983   8.951   5.605   9.022 -0.0283  0.0615 -0.3069
  374loPI   C4B 5984   9.264   5.628   8.768 -0.0963  0.2469 -0.1936
  375loPI    C1 5985  14.674   7.848  10.834  0.0886 -0.0565  0.0501
  375loPI    C2 5986  15.061   7.897  10.926  0.1313 -0.3679  0.0479
  375loPI    C3 5987  14.782   7.921  11.212  0.1452 -0.0926  0.0411
  375loPI   PO4 5988  14.655   7.616  10.692 -0.1751  0.2085  0.0102
  375loPI   GL1 5989  14.812   7.484  10.318  0.0543  0.1926 -0.1112
  375loPI   GL2 5990  14.556   7.811  10.249 -0.1338 -0.1764  0.4817
  375loPI   C1A 5991  14.778   7.460   9.880 -0.0384 -0.0683 -0.0292
  375loPI   C2A 5992  14.709   7.515   9.493  0.3088 -0.1283  0.2411
  375loPI   C3A 5993  14.812   7.570   9.046 -0.1719  0.0549  0.1907
  375loPI   C4A 5994  14.713   7.631   8.546 -0.3967 -0.1485  0.1775
  375loPI   C5A 5995  14.659   7.279   8.312  0.1494 -0.2279 -0.0941
  375loPI   C6A 5996  14.480   7.055   8.001  0.1530  0.2990 -0.1426
  375loPI   C1B 5997  14.442   7.914   9.809 -0.1574 -0.0748 -0.2512
  375loPI   C2B 5998  14.480   7.906   9.327 -0.1986  0.1475 -0.3228
  375loPI   C3B 5999  14.430   7.966   8.844 -0.0578 -0.1776 -0.0029
  375loPI   C4B 6000  14.338   8.001   8.493 -0.2036 -0.0619  0.0387
  376loPI    C1 6001   1.074   0.531  10.771  0.1709  0.1328 -0.2903
  376loPI    C2 6002   0.754   0.752  10.681  0.0453  0.0904  0.0403
  376loPI    C3 6003   0.738   0.492  10.985  0.2919 -0.1464 -0.1457
  376loPI   PO4 6004   1.220   0.454  10.551  0.3235  0.0249  0.0101
  376loPI   GL1 6005   1.010   0.548  10.239 -0.0181 -0.1268 -0.1260
  376loPI   GL2 6006   0.667   0.534  10.142 -0.3696 -0.1233  0.1109
  376loPI   C1A 6007   1.147   0.441   9.773  0.2600 -0.0187  0.0769
  376loPI   C2A 6008   0.934   0.459   9.442 -0.2129 -0.2317  0.3037
  376loPI   C3A 6009   0.922   0.432   8.984  0.0504  0.1115  0.0043
  376loPI   C4A 6010   0.989   0.234   8.604 -0.2261 -0.2734  0.3039
  376loPI   C5A 6011   1.011   0.274   8.127 -0.4072  0.1229  0.0588
  376loPI   C6A 6012   1.135   0.114   7.605 -0.2768  0.0930  0.0574
  376loPI   C1B 6013   0.553   0.470   9.724 -0.2513  0.2120 -0.1670
  376loPI   C2B 6014   0.395   0.428   9.315  0.0308  0.0484 -0.1909
  376loPI   C3B 6015   0.453   0.408   8.945  0.1008  0.0500  0.0274
  376loPI   C4B 6016   0.527   0.452   8.451 -0.0052 -0.1075 -0.2265
  377loPI    C1 6017   3.637   8.953  10.453 -0.0789  0.0596  0.0791
  377loPI    C2 6018   3.617   9.072  10.834 -0.0509 -0.2282  0.1736
  377loPI    C3 6019   3.370   9.230  10.562 -0.1243 -0.0783  0.3252
  377loPI   PO4 6020   3.902   8.947  10.357 -0.1635  0.1694 -0.2548
  377loPI   GL1 6021   4.160   8.947  10.011 -0.0981  0.3703 -0.1240
  377loPI   GL2 6022   4.086   9.299  10.054 -0.0560  0.3328  0.0646
  377loPI   C1A 6023   4.140   8.881   9.581 -0.1195 -0.1710  0.2019
  377loPI   C2A 6024   4.153   8.738   9.186  0.1911  0.1873 -0.4083
  377loPI   C3A 6025   3.933   8.841   8.801  0.1614 -0.2232 -0.0224
  377loPI   C4A 6026   3.566   8.948   8.485 -0.3403 -0.0241 -0.1386
  377loPI   C5A 6027   3.201   9.015   8.134 -0.0051  0.1000  0.0176
  377loPI   C6A 6028   3.156   8.942   7.669  0.0096 -0.2080 -0.2487
  377loPI   C1B 6029   4.412   9.287   9.640  0.0688  0.1285 -0.0530
  377loPI   C2B 6030   4.353   9.215   9.243 -0.1168 -0.2545 -0.2797
  377loPI   C3B 6031   4.446   9.191   8.797 -0.3446  0.1069  0.1369
  377loPI   C4B 6032   4.310   9.145   8.251 -0.0982  0.0163 -0.2554
  378loPI    C1 6033  17.619  15.024  10.893 -0.0413 -0.0832 -0.1778
  378loPI    C2 6034  17.527  14.869  11.250  0.3015  0.2043  0.0426
  378loPI    C3 6035  17.646  14.629  10.952  0.2352 -0.0144  0.1897
  378loPI   PO4 6036  17.486  15.207  10.876  0.0830  0.1338 -0.1284
  378loPI   GL1 6037  17.277  15.351  10.597 -0.2080  0.3544  0.0352
  378loPI   GL2 6038  17.438  15.333  10.365  0.0643 -0.1351  0.0595
  378loPI   C1A 6039  16.995  15.481  10.308  0.2231 -0.1401 -0.4562
  378loPI   C2A 6040  16.984  15.529   9.885 -0.0959  0.1688 -0.0748
  378loPI   C3A 6041  17.048  15.490   9.405 -0.1910  0.0080  0.1722
  378loPI   C4A 6042  17.049  15.617   8.948 -0.0644 -0.1240  0.4134
  378loPI   C5A 6043  17.114  15.681   8.569  0.3005  0.0813 -0.2341
  378loPI   C6A 6044  17.115  15.479   8.268  0.1132  0.2528  0.1471
  378loPI   C1B 6045  17.431  15.286   9.896 -0.1111  0.1718 -0.0270
  378loPI   C2B 6046  17.387  15.105   9.511 -0.1066 -0.2650  0.2554
  378loPI   C3B 6047  17.415  15.178   9.061  0.0511  0.2711  0.1426
  378loPI   C4B 6048  17.457  15.175   8.648  0.1531  0.0081 -0.2351
  379loPI    C1 6049   7.080   1.493  10.698 -0.0445  0.0970 -0.0222
  379loPI    C2 6050   6.713   1.546  10.846 -0.0434  0.0562 -0.0051
  379loPI    C3 6051   7.021   1.479  11.093 -0.0553 -0.0930 -0.0299
  379loPI   PO4 6052   7.080   1.719  10.442 -0.0235 -0.3260  0.2783
  379loPI   GL1 6053   7.121   1.829  10.081  0.0203  0.1519  0.1847
  379loPI   GL2 6054   7.344   1.962  10.009 -0.1280  0.0121 -0.0616
  379loPI   C1A 6055   7.189   1.478   9.749  0.1668  0.1433  0.2089
  379loPI   C2A 6056   7.341   1.175   9.449  0.0730  0.3213 -0.0545
  379loPI   C3A 6057   7.408   1.099   9.120 -0.0275  0.0639 -0.0972
  379loPI   C4A 6058   7.451   0.714   8.784 -0.1169  0.2441 -0.0215
  379loPI   C5A 6059   7.448   0.622   8.416 -0.0876  0.2129  0.0293
  379loPI   C6A 6060   7.663   0.325   8.188 -0.0335 -0.0190  0.1578
  379loPI   C1B 6061   7.201   1.997   9.627  0.0188 -0.0904  0.0235
  379loPI   C2B 6062   7.207   2.058   9.204  0.0845  0.0960 -0.1684
  379loPI   C3B 6063   7.110   2.093   8.747 -0.0440  0.0278 -0.3296
  379loPI   C4B 6064   6.993   2.051   8.260 -0.1020 -0.1973  0.0704
  380loPI    C1 6065  11.179  12.139  11.104  0.0144 -0.0676  0.0175
  380loPI    C2 6066  11.570  12.218  11.126 -0.0130  0.0771  0.0019
  380loPI    C3 6067  11.430  11.863  11.246  0.0880  0.1258  0.2714
  380loPI   PO4 6068  11.104  12.274  10.880  0.2665  0.3117 -0.0676
  380loPI   GL1 6069  11.129  12.218  10.431  0.1921 -0.0091  0.0440
  380loPI   GL2 6070  10.789  12.232  10.499 -0.0843 -0.0902  0.1716
  380loPI   C1A 6071  11.205  11.835  10.133 -0.0651  0.1203 -0.2546
  380loPI   C2A 6072  11.387  11.740   9.722  0.1795 -0.0368 -0.0564
  380loPI   C3A 6073  11.300  11.762   9.310 -0.1570  0.0020 -0.0373
  380loPI   C4A 6074  11.422  11.702   8.901  0.4026 -0.1375  0.2176
  380loPI   C5A 6075  11.377  11.543   8.482 -0.2956  0.0474 -0.1058
  380loPI   C6A 6076  11.224  11.072   8.404 -0.0329  0.2306  0.2376
  380loPI   C1B 6077  10.820  12.169  10.044  0.2993  0.0813  0.1402
  380loPI   C2B 6078  10.824  12.022   9.658 -0.0664 -0.0331  0.2499
  380loPI   C3B 6079  10.913  12.107   9.131  0.1909 -0.1745  0.1028
  380loPI   C4B 6080  10.527  11.945   8.858 -0.2585  0.1052 -0.1361
  381loPI    C1 6081   1.309   5.140  10.757 -0.1027  0.0893  0.0223
  381loPI    C2 6082   1.097   5.071  11.089 -0.1231 -0.0650 -0.0222
  381loPI    C3 6083   1.458   5.241  11.114 -0.0810 -0.1694  0.0885
  381loPI   PO4 6084   1.194   5.210  10.593 -0.2906 -0.1344  0.1418
  381loPI   GL1 6085   1.091   5.312  10.126 -0.0395 -0.1528  0.0833
  381loPI   GL2 6086   1.206   5.010  10.048 -0.2201 -0.1286  0.2364
  381loPI   C1A 6087   1.001   5.445   9.736 -0.2358 -0.0214  0.1494
  381loPI   C2A 6088   0.982   5.548   9.362  0.0017  0.0408  0.0783
  381loPI   C3A 6089   0.902   5.574   8.886  0.2781 -0.1378  0.0239
  381loPI   C4A 6090   0.952   5.593   8.452  0.1286  0.1297  0.0483
  381loPI   C5A 6091   1.265   5.600   8.048 -0.0909 -0.0453  0.1126
  381loPI   C6A 6092   1.554   5.638   7.669 -0.3238  0.1879  0.0895
  381loPI   C1B 6093   1.206   5.022   9.594 -0.2141 -0.2348 -0.0514
  381loPI   C2B 6094   1.099   5.124   9.136 -0.0772 -0.1256  0.2557
  381loPI   C3B 6095   1.087   5.118   8.754  0.2718  0.1197 -0.1072
  381loPI   C4B 6096   1.304   5.246   8.381  0.2703 -0.3372  0.1941
  382loPI    C1 6097  12.217  14.582  11.060  0.0055  0.1774 -0.1882
  382loPI    C2 6098  12.259  14.783  11.404 -0.0398 -0.0665 -0.0377
  382loPI    C3 6099  12.098  14.416  11.404 -0.1901 -0.0046 -0.3402
  382loPI   PO4 6100  12.091  14.627  10.892  0.2717 -0.0912 -0.1845
  382loPI   GL1 6101  12.123  14.795  10.499  0.1284 -0.2143 -0.2075
  382loPI   GL2 6102  12.272  14.549  10.450 -0.2141 -0.0118 -0.0615
  382loPI   C1A 6103  12.110  15.053  10.110  0.1685  0.0202 -0.1270
  382loPI   C2A 6104  12.153  15.180   9.699  0.1097 -0.0773  0.1344
  382loPI   C3A 6105  12.168  15.038   9.209  0.0300 -0.1672  0.0483
  382loPI   C4A 6106  12.281  14.961   8.755  0.1359 -0.3290  0.0741
  382loPI   C5A 6107  12.271  14.543   8.623 -0.1150 -0.0914  0.0025
  382loPI   C6A 6108  12.274  14.390   8.194 -0.1281 -0.2269 -0.0551
  382loPI   C1B 6109  12.129  14.564   9.970  0.0762 -0.2028  0.0357
  382loPI   C2B 6110  12.197  14.619   9.514 -0.0812 -0.2140 -0.2967
  382loPI   C3B 6111  12.466  14.549   9.060 -0.0850  0.3166  0.2416
  382loPI   C4B 6112  12.673  14.158   9.153  0.1761  0.2698  0.0266
  383loPI    C1 6113  10.665   5.874  10.741 -0.2196  0.2588  0.0522
  383loPI    C2 6114  10.598   6.010  11.111  0.0285  0.1864  0.1255
  383loPI    C3 6115  10.652   5.619  11.048 -0.2234  0.1727 -0.0190
  383loPI   PO4 6116  10.511   5.953  10.570 -0.0431  0.3393 -0.1031
  383loPI   GL1 6117  10.551   6.121  10.227  0.0016  0.1215 -0.1076
  383loPI   GL2 6118  10.909   6.252  10.263 -0.0381 -0.0784 -0.2380
  383loPI   C1A 6119  10.606   6.029   9.831  0.2894 -0.0832 -0.1746
  383loPI   C2A 6120  10.681   6.037   9.384 -0.0945 -0.1750 -0.2855
  383loPI   C3A 6121  10.668   6.037   9.015 -0.0580 -0.1597 -0.0481
  383loPI   C4A 6122  10.516   6.066   8.688 -0.2363 -0.2900 -0.1002
  383loPI   C5A 6123  10.411   6.058   8.303 -0.1219 -0.0631  0.2797
  383loPI   C6A 6124  10.281   5.946   7.871 -0.0136  0.0844 -0.3176
  383loPI   C1B 6125  11.068   6.172   9.860 -0.2173  0.3693 -0.1676
  383loPI   C2B 6126  11.192   6.210   9.520  0.5442  0.0556  0.3329
  383loPI   C3B 6127  11.125   6.189   9.183  0.1208 -0.1809 -0.2441
  383loPI   C4B 6128  11.155   6.082   8.829  0.2445 -0.0273  0.0804
  384loPI    C1 6129  15.986   6.480  11.334 -0.4396  0.0817  0.1579
  384loPI    C2 6130  15.912   6.102  11.442 -0.1067 -0.0080  0.0838
  384loPI    C3 6131  16.110   6.345  11.690 -0.1113  0.0466  0.0340
  384loPI   PO4 6132  16.046   6.374  11.041 -0.1157 -0.1828 -0.0633
  384loPI   GL1 6133  15.841   6.387  10.574 -0.0391  0.1350  0.0132
  384loPI   GL2 6134  15.839   6.657  10.675 -0.0173  0.1919  0.1322
  384loPI   C1A 6135  15.827   6.352  10.177 -0.3535 -0.1525 -0.0066
  384loPI   C2A 6136  15.870   6.384   9.762 -0.2728 -0.0794  0.1210
  384loPI   C3A 6137  15.847   6.454   9.295  0.0017  0.0880 -0.0161
  384loPI   C4A 6138  15.858   6.528   8.955  0.0283 -0.2717 -0.2432
  384loPI   C5A 6139  15.852   6.455   8.537  0.0940  0.1362  0.0304
  384loPI   C6A 6140  15.497   6.245   8.228 -0.0633  0.2189  0.1731
  384loPI   C1B 6141  15.927   6.901  10.379 -0.2023 -0.2238  0.0340
  384loPI   C2B 6142  15.987   6.848   9.967  0.3584  0.0896  0.1627
  384loPI   C3B 6143  16.003   6.869   9.492  0.1870  0.1890  0.0244
  384loPI   C4B 6144  16.038   6.970   9.101 -0.0462  0.0542 -0.1810
  385loPI    C1 6145   2.383   8.032  10.929 -0.1165  0.1734 -0.0924
  385loPI    C2 6146   2.076   7.921  11.161 -0.1240  0.0939 -0.1401
  385loPI    C3 6147   2.452   7.872  11.289 -0.1332  0.3665 -0.0021
  385loPI   PO4 6148   2.361   8.230  10.783  0.0804 -0.0806  0.1900
  385loPI   GL1 6149   2.326   8.353  10.343 -0.1424  0.1724 -0.1061
  385loPI   GL2 6150   2.529   8.357  10.137  0.0731  0.2109  0.1435
  385loPI   C1A 6151   2.169   8.065   9.928 -0.1405  0.5515 -0.2723
  385loPI   C2A 6152   2.046   7.995   9.560  0.0681  0.0114  0.0678
  385loPI   C3A 6153   2.034   7.922   9.189 -0.2046 -0.0128 -0.0198
  385loPI   C4A 6154   2.141   7.927   8.768 -0.1026 -0.1748  0.1150
  385loPI   C5A 6155   2.295   8.182   8.471 -0.1028 -0.0157  0.1378
  385loPI   C6A 6156   2.399   8.577   8.249 -0.0276 -0.2122  0.0637
  385loPI   C1B 6157   2.441   8.440   9.744  0.1186 -0.0848 -0.0061
  385loPI   C2B 6158   2.427   8.273   9.444 -0.2177  0.0332 -0.0857
  385loPI   C3B 6159   2.340   8.307   9.085 -0.0526  0.2549  0.1104
  385loPI   C4B 6160   2.682   8.384   8.761  0.2805  0.0964 -0.0765
  386loPI    C1 6161   7.787   7.696  11.113 -0.0398  0.0243  0.2487
  386loPI    C2 6162   8.165   7.699  10.982 -0.0871  0.2654  0.1121
  386loPI    C3 6163   8.075   7.522  11.329  0.1609  0.2596  0.1750
  386loPI   PO4 6164   7.716   7.847  10.908 -0.2073  0.1439  0.1571
  386loPI   GL1 6165   7.835   7.852  10.482  0.0913  0.2347 -0.2019
  386loPI   GL2 6166   7.870   8.167  10.397 -0.0611  0.1685 -0.2484
  386loPI   C1A 6167   8.120   7.709  10.178  0.2345 -0.1186  0.1244
  386loPI   C2A 6168   8.295   7.763   9.780 -0.1195 -0.3324  0.0785
  386loPI   C3A 6169   8.286   7.851   9.306 -0.1122 -0.2253 -0.2509
  386loPI   C4A 6170   8.392   7.886   8.888 -0.2567  0.0238  0.0405
  386loPI   C5A 6171   8.447   8.065   8.445 -0.4162  0.2074 -0.0506
  386loPI   C6A 6172   8.460   8.005   8.033 -0.3788 -0.2520  0.3030
  386loPI   C1B 6173   7.869   8.110   9.923  0.0533  0.2044 -0.0426
  386loPI   C2B 6174   7.904   8.188   9.402 -0.1350  0.2788  0.1867
  386loPI   C3B 6175   7.976   8.270   8.942 -0.2240 -0.1781 -0.2994
  386loPI   C4B 6176   8.075   8.395   8.542 -0.1112 -0.2416  0.0270
  387loPI    C1 6177  14.525   7.035  11.187 -0.1435 -0.0912 -0.1259
  387loPI    C2 6178  14.761   6.713  11.212  0.0665  0.0802  0.1788
  387loPI    C3 6179  14.478   6.776  11.488 -0.1077  0.0561  0.0082
  387loPI   PO4 6180  14.544   7.078  10.924  0.1404 -0.2241  0.1661
  387loPI   GL1 6181  14.411   7.254  10.465 -0.0584 -0.0277 -0.2093
  387loPI   GL2 6182  14.625   7.050  10.381  0.2077  0.2295 -0.0541
  387loPI   C1A 6183  14.325   7.419  10.065  0.1341  0.1387 -0.2008
  387loPI   C2A 6184  14.274   7.362   9.569  0.1016  0.0931  0.0456
  387loPI   C3A 6185  14.325   7.449   9.163  0.3081  0.2275 -0.0315
  387loPI   C4A 6186  14.263   7.482   8.704  0.1969 -0.0678 -0.1211
  387loPI   C5A 6187  14.201   7.470   8.284  0.1942  0.0600  0.0580
  387loPI   C6A 6188  14.387   7.655   7.995 -0.0895 -0.0051  0.0833
  387loPI   C1B 6189  14.685   6.943   9.977  0.1891 -0.1166  0.0013
  387loPI   C2B 6190  14.687   7.034   9.593 -0.2272  0.0551 -0.3690
  387loPI   C3B 6191  14.713   7.085   9.167  0.1881  0.3789  0.0040
  387loPI   C4B 6192  14.655   7.150   8.803  0.1768 -0.2206  0.1669
  388loPI    C1 6193   6.919   4.209  10.876  0.0685 -0.0451  0.1038
  388loPI    C2 6194   6.932   3.826  10.994 -0.0892 -0.1209 -0.1197
  388loPI    C3 6195   6.617   4.054  11.087  0.0728  0.0001  0.1431
  388loPI   PO4 6196   6.880   4.257  10.584  0.2123  0.0221 -0.1165
  388loPI   GL1 6197   7.010   4.442  10.156  0.2636  0.1441 -0.0338
  388loPI   GL2 6198   6.939   4.112  10.107  0.0749  0.3369 -0.0789
  388loPI   C1A 6199   7.123   4.467   9.728  0.2525  0.0172 -0.0807
  388loPI   C2A 6200   7.401   4.427   9.367 -0.3767 -0.1663 -0.0481
  388loPI   C3A 6201   7.721   4.343   9.077 -0.4276 -0.3078 -0.2232
  388loPI   C4A 6202   7.738   3.986   8.819 -0.0075 -0.1008 -0.3992
  388loPI   C5A 6203   7.898   3.638   8.648  0.2570 -0.0590  0.0238
  388loPI   C6A 6204   8.045   3.257   8.438 -0.1083  0.2067 -0.1035
  388loPI   C1B 6205   6.666   4.260   9.771 -0.1893  0.3035  0.1514
  388loPI   C2B 6206   6.420   4.259   9.441  0.2383 -0.1634 -0.1181
  388loPI   C3B 6207   6.322   4.183   9.106 -0.0151  0.0205 -0.0271
  388loPI   C4B 6208   6.371   4.071   8.657  0.3765 -0.2930  0.0376
  389loPI    C1 6209  15.682  17.651  10.833 -0.2213 -0.0703  0.2950
  389loPI    C2 6210  15.998  17.414  10.902  0.1907  0.4111  0.1226
  389loPI    C3 6211  15.866  17.661  11.189 -0.1132  0.1253  0.2352
  389loPI   PO4 6212  15.545  17.461  10.594  0.0081  0.0937 -0.1783
  389loPI   GL1 6213  15.278  17.479  10.310 -0.0226  0.0231  0.1167
  389loPI   GL2 6214  15.084  17.703  10.232  0.0393 -0.0885 -0.0806
  389loPI   C1A 6215  15.486  17.539   9.829  0.2615  0.3141 -0.2245
  389loPI   C2A 6216  15.506  17.511   9.481  0.3199  0.0361  0.0865
  389loPI   C3A 6217  15.362  17.680   9.039  0.1620 -0.0331 -0.4728
  389loPI   C4A 6218  15.069  17.705   8.738  0.0723 -0.1702 -0.1016
  389loPI   C5A 6219  14.795  17.788   8.447  0.3593  0.1075  0.1186
  389loPI   C6A 6220  14.541  18.111   8.129 -0.2528 -0.4675 -0.2131
  389loPI   C1B 6221  15.179  17.927   9.867  0.1409 -0.2469  0.1037
  389loPI   C2B 6222  15.113  17.947   9.421 -0.1662 -0.0532  0.0805
  389loPI   C3B 6223  14.854  18.053   9.078  0.1194 -0.3488  0.2821
  389loPI   C4B 6224  14.511  18.198   8.771  0.2051  0.0525  0.1276
  390loPI    C1 6225  13.198   2.392  10.898 -0.1607  0.0942  0.1042
  390loPI    C2 6226  13.248   2.096  11.163  0.3155  0.1391  0.0737
  390loPI    C3 6227  13.130   2.458  11.286 -0.3466 -0.0718  0.1018
  390loPI   PO4 6228  13.076   2.312  10.736 -0.1040 -0.3063 -0.0715
  390loPI   GL1 6229  13.000   2.368  10.314  0.1142  0.3327  0.2664
  390loPI   GL2 6230  12.814   2.136  10.226 -0.2656  0.0517  0.1956
  390loPI   C1A 6231  13.178   2.446   9.956  0.0078  0.1514  0.0170
  390loPI   C2A 6232  13.280   2.452   9.564  0.0634  0.1313  0.0820
  390loPI   C3A 6233  13.159   2.570   9.208  0.1415 -0.0648 -0.1361
  390loPI   C4A 6234  13.111   2.434   8.784 -0.0624  0.0874  0.6349
  390loPI   C5A 6235  13.023   2.784   8.461 -0.0364 -0.0367  0.0756
  390loPI   C6A 6236  12.652   2.831   8.099 -0.1855  0.1498  0.0270
  390loPI   C1B 6237  12.701   2.218   9.821  0.0353  0.0693  0.0162
  390loPI   C2B 6238  12.913   2.205   9.436 -0.0557 -0.0663  0.1768
  390loPI   C3B 6239  12.743   2.204   9.102 -0.1341  0.2384  0.1459
  390loPI   C4B 6240  12.822   1.990   8.786  0.2075 -0.2316 -0.1417
  391loPI    C1 6241   0.706   3.746  10.753  0.2876  0.0074  0.1222
  391loPI    C2 6242   0.577   3.402  10.911  0.3727  0.0305  0.2434
  391loPI    C3 6243   0.710   3.695  11.150 -0.1423  0.3318  0.1764
  391loPI   PO4 6244   0.906   3.683  10.507  0.2536  0.1649 -0.0558
  391loPI   GL1 6245   0.923   3.697  10.105 -0.1330  0.0632 -0.0224
  391loPI   GL2 6246   0.834   3.456   9.968  0.0850 -0.0382 -0.1050
  391loPI   C1A 6247   0.600   3.778   9.694  0.1238  0.1501 -0.0555
  391loPI   C2A 6248   0.772   3.852   9.299 -0.0022  0.0334 -0.1916
  391loPI   C3A 6249   0.891   3.576   8.885 -0.3347  0.0320  0.0784
  391loPI   C4A 6250   0.982   3.656   8.450 -0.2432  0.0038 -0.0999
  391loPI   C5A 6251   1.058   3.962   8.161 -0.2307 -0.1203 -0.0064
  391loPI   C6A 6252   0.959   4.388   7.982 -0.0014 -0.0610 -0.1126
  391loPI   C1B 6253   1.196   3.465   9.690 -0.2568 -0.0424  0.1680
  391loPI   C2B 6254   1.251   3.668   9.257 -0.0727  0.0781 -0.0427
  391loPI   C3B 6255   1.325   3.782   8.866 -0.1126 -0.0011 -0.1483
  391loPI   C4B 6256   1.486   3.830   8.385 -0.1246  0.0107  0.0719
  392loPI    C1 6257   5.329  12.572  10.659 -0.0422 -0.0825 -0.2382
  392loPI    C2 6258   5.661  12.560  10.880 -0.0437  0.0542 -0.2278
  392loPI    C3 6259   5.303  12.552  11.057 -0.0459 -0.0480 -0.2367
  392loPI   PO4 6260   5.434  12.466  10.419  0.2284  0.1790 -0.4300
  392loPI   GL1 6261   5.650  12.405  10.049 -0.3110 -0.0444  0.0826
  392loPI   GL2 6262   5.659  12.130   9.964  0.1391 -0.0449  0.2155
  392loPI   C1A 6263   5.562  12.675   9.630  0.1247  0.0970 -0.2731
  392loPI   C2A 6264   5.590  12.753   9.224 -0.0724 -0.0847 -0.0246
  392loPI   C3A 6265   5.639  12.854   8.792 -0.0849 -0.5078  0.0113
  392loPI   C4A 6266   5.751  12.972   8.336 -0.1120 -0.0220  0.2560
  392loPI   C5A 6267   5.600  13.190   7.930  0.1215  0.1839 -0.1869
  392loPI   C6A 6268   5.657  13.444   7.556  0.1713 -0.3322 -0.0890
  392loPI   C1B 6269   5.682  12.191   9.490 -0.1531 -0.0588  0.2257
  392loPI   C2B 6270   5.705  12.336   9.043 -0.2300 -0.3704  0.0813
  392loPI   C3B 6271   5.635  12.281   8.671  0.1041 -0.2380 -0.0642
  392loPI   C4B 6272   5.810  12.418   8.295  0.1728 -0.3766  0.0982
  393loPI    C1 6273  16.227   2.568  10.920 -0.0525  0.0112  0.2133
  393loPI    C2 6274  16.459   2.812  10.704  0.0865 -0.2922  0.0134
  393loPI    C3 6275  16.569   2.706  11.074  0.0120 -0.0348  0.1119
  393loPI   PO4 6276  16.199   2.306  10.794  0.0093 -0.2955  0.3549
  393loPI   GL1 6277  16.202   2.233  10.367  0.2246 -0.2625 -0.0766
  393loPI   GL2 6278  16.482   2.388  10.400 -0.2306 -0.0283  0.2233
  393loPI   C1A 6279  15.952   2.212  10.053  0.0957  0.0389  0.0693
  393loPI   C2A 6280  15.936   2.099   9.648  0.1366 -0.0071  0.0166
  393loPI   C3A 6281  15.959   2.268   9.245  0.0116  0.1481 -0.0622
  393loPI   C4A 6282  15.720   2.161   8.845  0.0123  0.0563  0.1038
  393loPI   C5A 6283  15.485   2.329   8.565  0.2412 -0.0675  0.0173
  393loPI   C6A 6284  15.558   2.244   8.093 -0.0227 -0.0198 -0.0328
  393loPI   C1B 6285  16.466   2.353   9.925 -0.2048  0.0726 -0.0285
  393loPI   C2B 6286  16.444   2.248   9.486 -0.1137 -0.1238 -0.1744
  393loPI   C3B 6287  16.470   2.143   9.039 -0.0672  0.0642  0.2145
  393loPI   C4B 6288  16.194   2.185   8.724  0.0530  0.1593 -0.0451
  394loPI    C1 6289   5.236  16.672  10.694 -0.0504  0.0437  0.1049
  394loPI    C2 6290   4.895  16.634  10.488  0.0131  0.0447 -0.0007
  394loPI    C3 6291   4.894  16.819  10.842 -0.1064 -0.0062  0.0260
  394loPI   PO4 6292   5.378  16.653  10.489  0.0004  0.2400  0.0154
  394loPI   GL1 6293   5.394  16.850  10.107  0.1217  0.3248 -0.0138
  394loPI   GL2 6294   5.130  16.997   9.898 -0.0464  0.0782 -0.1290
  394loPI   C1A 6295   5.626  16.917   9.729  0.0816 -0.3185 -0.1766
  394loPI   C2A 6296   5.674  16.914   9.340  0.3817  0.1566  0.3075
  394loPI   C3A 6297   5.671  16.894   8.899  0.0481  0.0618 -0.2342
  394loPI   C4A 6298   5.772  16.947   8.448 -0.0290 -0.0116 -0.2594
  394loPI   C5A 6299   6.079  17.153   8.243  0.2730  0.0860 -0.0066
  394loPI   C6A 6300   6.341  17.414   7.941 -0.3950 -0.2563 -0.1557
  394loPI   C1B 6301   4.904  16.925   9.466  0.1648 -0.0553  0.0518
  394loPI   C2B 6302   4.949  16.805   9.076  0.0191  0.0185  0.0488
  394loPI   C3B 6303   4.716  16.696   8.670  0.0000  0.1230  0.1053
  394loPI   C4B 6304   4.404  16.577   8.294  0.0872 -0.0057 -0.3034
  395loPI    C1 6305   7.386  16.646  10.897 -0.1716  0.0845  0.1713
  395loPI    C2 6306   7.571  16.938  11.098 -0.2954  0.2049  0.1116
  395loPI    C3 6307   7.680  16.557  11.153 -0.0939  0.2667  0.1465
  395loPI   PO4 6308   7.426  16.745  10.575 -0.0488 -0.0065 -0.2358
  395loPI   GL1 6309   7.337  16.584  10.153  0.1004 -0.0114 -0.0431
  395loPI   GL2 6310   7.088  16.599  10.202 -0.0615  0.0581  0.3041
  395loPI   C1A 6311   7.555  16.885   9.825 -0.0504  0.1250  0.1038
  395loPI   C2A 6312   7.517  16.910   9.382  0.2026  0.0278 -0.0967
  395loPI   C3A 6313   7.424  16.863   8.995 -0.1478 -0.0678  0.1358
  395loPI   C4A 6314   7.378  16.988   8.599  0.0378  0.0487 -0.2325
  395loPI   C5A 6315   7.577  17.159   8.282  0.1008 -0.1544  0.0264
  395loPI   C6A 6316   7.707  17.295   7.932 -0.2014 -0.1534 -0.0017
  395loPI   C1B 6317   7.068  16.581   9.717 -0.0831 -0.0596 -0.0211
  395loPI   C2B 6318   7.067  16.655   9.312  0.0162  0.3714 -0.0454
  395loPI   C3B 6319   7.011  16.674   8.875  0.1698 -0.3708 -0.1320
  395loPI   C4B 6320   6.931  16.825   8.476  0.4359  0.0546 -0.1226
  396loPI    C1 6321  15.925   7.645  11.204  0.1272  0.0389  0.0830
  396loPI    C2 6322  15.988   8.014  11.344  0.1124  0.1211 -0.1243
  396loPI    C3 6323  15.708   7.782  11.511  0.2266  0.1464  0.1058
  396loPI   PO4 6324  15.928   7.714  10.938 -0.1244 -0.0792  0.2507
  396loPI   GL1 6325  15.996   7.690  10.559 -0.1653 -0.0519  0.0238
  396loPI   GL2 6326  15.855   7.819  10.257 -0.0560 -0.1059  0.1361
  396loPI   C1A 6327  16.144   7.378  10.272  0.0142 -0.2801 -0.1368
  396loPI   C2A 6328  16.189   7.290   9.934 -0.1451 -0.2597  0.0139
  396loPI   C3A 6329  16.112   7.399   9.577  0.0558  0.1828 -0.1333
  396loPI   C4A 6330  16.135   7.574   9.164  0.0777  0.0066  0.0348
  396loPI   C5A 6331  16.094   7.467   8.765  0.0533 -0.4218  0.0405
  396loPI   C6A 6332  16.057   7.025   8.630 -0.0124 -0.1492  0.1964
  396loPI   C1B 6333  15.841   7.639   9.903  0.0164 -0.3700 -0.1133
  396loPI   C2B 6334  15.718   7.716   9.494  0.0236  0.1017 -0.0672
  396loPI   C3B 6335  15.704   7.844   9.192  0.0101  0.1802  0.1057
  396loPI   C4B 6336  15.674   7.874   8.776  0.3172  0.0201  0.2187
  397loPI    C1 6337  13.219   6.622  11.225  0.2037  0.1605 -0.1176
  397loPI    C2 6338  13.175   6.224  11.245 -0.0469  0.1838 -0.1764
  397loPI    C3 6339  13.105   6.450  11.568 -0.3454  0.2176 -0.2611
  397loPI   PO4 6340  13.121   6.669  11.063  0.0294 -0.0279  0.1245
  397loPI   GL1 6341  13.141   6.726  10.652 -0.1212 -0.1345  0.0839
  397loPI   GL2 6342  12.857   6.834  10.621  0.1196 -0.1470  0.0391
  397loPI   C1A 6343  13.216   6.576  10.301 -0.0393  0.0173 -0.0829
  397loPI   C2A 6344  13.171   6.672   9.830 -0.1690  0.2894  0.1694
  397loPI   C3A 6345  13.188   6.625   9.378  0.0729 -0.0578  0.0100
  397loPI   C4A 6346  13.136   6.707   8.970 -0.2010 -0.0446 -0.0419
  397loPI   C5A 6347  13.011   6.827   8.552 -0.2323 -0.2858 -0.2550
  397loPI   C6A 6348  12.663   6.927   8.203  0.2357  0.0220 -0.1362
  397loPI   C1B 6349  12.749   6.883  10.219  0.3438  0.1678  0.2346
  397loPI   C2B 6350  12.753   7.009   9.796  0.0953 -0.1134  0.1346
  397loPI   C3B 6351  12.880   7.045   9.306 -0.0070 -0.0177  0.1045
  397loPI   C4B 6352  12.712   7.104   8.935 -0.2823 -0.0719  0.0092
  398loPI    C1 6353   6.516   0.685  10.999 -0.3634 -0.0021  0.1980
  398loPI    C2 6354   6.814   0.458  11.139 -0.0101  0.2657 -0.1019
  398loPI    C3 6355   6.452   0.437  11.306  0.1849 -0.0306  0.2997
  398loPI   PO4 6356   6.532   0.641  10.763 -0.2027  0.0934  0.1190
  398loPI   GL1 6357   6.703   0.708  10.320 -0.0168  0.1014  0.0625
  398loPI   GL2 6358   6.529   0.760  10.140  0.0060  0.0017  0.0655
  398loPI   C1A 6359   6.939   0.776   9.923  0.1175 -0.0931  0.4856
  398loPI   C2A 6360   7.069   0.786   9.507  0.0418  0.0981 -0.3167
  398loPI   C3A 6361   6.941   0.671   9.120  0.1046  0.2068 -0.0129
  398loPI   C4A 6362   6.999   0.536   8.721  0.0652 -0.2375 -0.3124
  398loPI   C5A 6363   6.996   0.491   8.316 -0.3063  0.0404 -0.0866
  398loPI   C6A 6364   7.126   0.242   8.137 -0.1866  0.1650  0.2892
  398loPI   C1B 6365   6.478   0.854   9.834  0.0272  0.3523  0.0771
  398loPI   C2B 6366   6.566   0.850   9.385  0.5087  0.0340  0.2449
  398loPI   C3B 6367   6.525   0.861   8.913 -0.0882 -0.0661 -0.1679
  398loPI   C4B 6368   6.616   0.775   8.500  0.0856 -0.3018 -0.2021
  399loPI    C1 6369   7.827   2.482  10.802  0.0708 -0.0950  0.1852
  399loPI    C2 6370   7.769   2.667  11.152 -0.0988  0.0106  0.1029
  399loPI    C3 6371   7.517   2.380  11.034 -0.1128  0.0600  0.0121
  399loPI   PO4 6372   7.774   2.611  10.544 -0.0369  0.1381 -0.2423
  399loPI   GL1 6373   7.676   2.635  10.148  0.0773 -0.1760  0.0335
  399loPI   GL2 6374   7.726   2.326  10.132 -0.0634  0.0215  0.0588
  399loPI   C1A 6375   7.646   2.745   9.773 -0.0022  0.0303  0.0598
  399loPI   C2A 6376   7.741   2.789   9.245 -0.1225 -0.2351  0.0256
  399loPI   C3A 6377   7.730   3.011   8.811  0.2377  0.0328  0.1851
  399loPI   C4A 6378   7.538   3.075   8.359  0.0511  0.3173 -0.1600
  399loPI   C5A 6379   7.390   3.204   7.958 -0.1886  0.1146  0.3130
  399loPI   C6A 6380   7.504   3.036   7.501 -0.1156  0.3689  0.1457
  399loPI   C1B 6381   7.714   2.203   9.753  0.2183  0.0389 -0.0112
  399loPI   C2B 6382   7.705   2.150   9.269  0.1924 -0.0483  0.0730
  399loPI   C3B 6383   7.646   2.029   8.891  0.0553 -0.2003  0.1801
  399loPI   C4B 6384   7.536   1.890   8.563 -0.0629 -0.2829 -0.4298
  400loPI    C1 6385   9.832  18.106  10.848  0.1064 -0.1258 -0.0481
  400loPI    C2 6386  10.208  18.114  10.985  0.1359  0.2014 -0.1408
  400loPI    C3 6387   9.902  18.162  11.238  0.1588  0.0236 -0.0783
  400loPI   PO4 6388   9.791  17.897  10.662 -0.0460 -0.1730 -0.1127
  400loPI   GL1 6389  10.036  17.796  10.363 -0.1579  0.1128  0.1461
  400loPI   GL2 6390  10.335  18.008  10.466 -0.1497  0.0845  0.0324
  400loPI   C1A 6391   9.790  17.907   9.965  0.0796 -0.0638 -0.2865
  400loPI   C2A 6392   9.644  17.886   9.556  0.0978  0.0568  0.1482
  400loPI   C3A 6393   9.675  17.822   9.119  0.0654 -0.2410 -0.0340
  400loPI   C4A 6394   9.791  17.800   8.651  0.0200 -0.0753 -0.2153
  400loPI   C5A 6395  10.052  17.945   8.314 -0.5603 -0.2338  0.0465
  400loPI   C6A 6396  10.331  18.242   8.100 -0.1724  0.0130  0.0683
  400loPI   C1B 6397  10.268  18.130  10.058 -0.0719  0.2716  0.1209
  400loPI   C2B 6398  10.204  18.137   9.677 -0.1665  0.0365  0.0355
  400loPI   C3B 6399  10.128  18.090   9.247 -0.2478 -0.0442  0.1612
  400loPI   C4B 6400  10.197  18.055   8.782 -0.0403 -0.0980  0.0672
  401loPI    C1 6401  18.025  15.641  11.021  0.0288  0.2269 -0.0461
  401loPI    C2 6402  17.817  15.981  10.995  0.1233  0.3038  0.1801
  401loPI    C3 6403  17.843  15.788  11.345 -0.1305 -0.0669  0.0012
  401loPI   PO4 6404  17.902  15.520  10.819 -0.1260  0.1476  0.2070
  401loPI   GL1 6405  17.575  15.788  10.556  0.0841  0.0302 -0.0151
  401loPI   GL2 6406  17.292  15.868  10.430 -0.0567  0.1250 -0.3552
  401loPI   C1A 6407  17.709  15.698  10.066  0.0480  0.0061  0.1216
  401loPI   C2A 6408  17.482  15.665   9.618  0.2484 -0.0248  0.3333
  401loPI   C3A 6409  17.526  15.621   9.282  0.1475  0.3269 -0.1473
  401loPI   C4A 6410  17.568  15.637   8.816  0.1297 -0.3797 -0.0257
  401loPI   C5A 6411  17.568  15.733   8.322  0.1397 -0.0270  0.1393
  401loPI   C6A 6412  17.606  15.805   7.864 -0.0103  0.2077  0.0380
  401loPI   C1B 6413  17.305  15.963   9.958  0.0739  0.3744  0.3527
  401loPI   C2B 6414  17.198  16.013   9.494  0.1264 -0.1688  0.0747
  401loPI   C3B 6415  17.293  16.032   8.993  0.2151  0.0652 -0.2130
  401loPI   C4B 6416  17.183  16.198   8.630 -0.0476  0.0203 -0.0107
  402loPI    C1 6417  10.008   9.931  11.380 -0.0020 -0.1056  0.0005
  402loPI    C2 6418  10.357  10.118  11.440 -0.0079 -0.2514  0.5462
  402loPI    C3 6419  10.352   9.730  11.345 -0.0108 -0.1019 -0.1088
  402loPI   PO4 6420   9.925  10.098  11.153  0.3996  0.1118 -0.3483
  402loPI   GL1 6421   9.768  10.111  10.760  0.1991 -0.1464  0.0442
  402loPI   GL2 6422  10.091  10.113  10.686 -0.0897 -0.2393 -0.2111
  402loPI   C1A 6423   9.704  10.048  10.318  0.1267  0.0149 -0.0119
  402loPI   C2A 6424   9.914   9.961   9.930  0.0571  0.3766 -0.1809
  402loPI   C3A 6425   9.932  10.028   9.677  0.2352 -0.0153 -0.0249
  402loPI   C4A 6426   9.967  10.066   9.275  0.1612 -0.0414  0.1737
  402loPI   C5A 6427  10.031  10.027   8.834  0.0832  0.1679 -0.1375
  402loPI   C6A 6428  10.254  10.323   8.540 -0.1868  0.3305 -0.1202
  402loPI   C1B 6429  10.304  10.103  10.213 -0.1680 -0.2197  0.2512
  402loPI   C2B 6430  10.432  10.108   9.785  0.0343 -0.1479 -0.2956
  402loPI   C3B 6431  10.439  10.115   9.376  0.1755  0.1253 -0.1733
  402loPI   C4B 6432  10.516  10.114   8.959 -0.0973  0.1069 -0.0523
  403loPI    C1 6433   5.351  12.098  10.778  0.0829 -0.1968 -0.2379
  403loPI    C2 6434   5.483  11.776  10.976 -0.0266 -0.1516 -0.0900
  403loPI    C3 6435   5.351  12.095  11.178  0.0051 -0.0448 -0.2363
  403loPI   PO4 6436   5.224  12.008  10.595  0.2155  0.1247 -0.2670
  403loPI   GL1 6437   5.245  12.024  10.219 -0.1753 -0.0626 -0.1715
  403loPI   GL2 6438   4.816  12.006  10.229 -0.2586  0.1181 -0.0523
  403loPI   C1A 6439   5.256  12.282   9.812  0.2484  0.0007 -0.0749
  403loPI   C2A 6440   5.207  12.359   9.452  0.0397  0.1917 -0.1637
  403loPI   C3A 6441   5.220  12.465   9.008 -0.1223  0.1163  0.0004
  403loPI   C4A 6442   5.290  12.617   8.563  0.2837 -0.1240  0.0093
  403loPI   C5A 6443   5.408  12.618   8.122 -0.2320 -0.1906  0.1058
  403loPI   C6A 6444   5.841  12.631   7.829 -0.1609 -0.2981 -0.1585
  403loPI   C1B 6445   4.797  11.996   9.695 -0.1905 -0.2132  0.5327
  403loPI   C2B 6446   4.704  12.116   9.302 -0.0767 -0.0590 -0.1282
  403loPI   C3B 6447   4.733  12.064   8.997  0.4763  0.1950 -0.0703
  403loPI   C4B 6448   4.941  12.214   8.598 -0.2585  0.0978 -0.0181
  404loPI    C1 6449   4.532   9.899  10.687 -0.1018 -0.0243 -0.0542
  404loPI    C2 6450   4.553  10.005  11.072 -0.1923  0.1228 -0.0887
  404loPI    C3 6451   4.772   9.699  10.937 -0.0153  0.1914  0.0386
  404loPI   PO4 6452   4.459  10.128  10.546 -0.6809 -0.0684 -0.2752
  404loPI   GL1 6453   4.595  10.240  10.146 -0.1366  0.1781  0.0602
  404loPI   GL2 6454   4.296  10.163  10.060  0.0450 -0.1634 -0.0289
  404loPI   C1A 6455   4.622  10.018   9.608  0.1000 -0.2870  0.0578
  404loPI   C2A 6456   4.651  10.183   9.171 -0.1882  0.1999  0.3476
  404loPI   C3A 6457   4.390  10.132   8.831  0.0888  0.4527  0.1502
  404loPI   C4A 6458   4.150   9.862   8.453  0.1667 -0.0900 -0.0833
  404loPI   C5A 6459   3.831   9.839   8.250  0.0147 -0.0319 -0.1545
  404loPI   C6A 6460   3.600   9.808   7.927 -0.0404 -0.2090 -0.0577
  404loPI   C1B 6461   4.311  10.405   9.682 -0.0294  0.2122 -0.0168
  404loPI   C2B 6462   4.493  10.658   9.330  0.1100 -0.0147  0.1566
  404loPI   C3B 6463   4.459  10.637   8.830 -0.3219  0.0430  0.0104
  404loPI   C4B 6464   4.593  10.759   8.432 -0.1239 -0.2801 -0.3201
  405loPI    C1 6465  16.312   3.781  11.011  0.1543 -0.0101  0.0825
  405loPI    C2 6466  15.985   3.559  10.948  0.2522 -0.1220 -0.0369
  405loPI    C3 6467  16.177   3.537  11.298  0.2230 -0.1758 -0.0240
  405loPI   PO4 6468  16.264   4.030  10.937  0.0360  0.0463  0.2373
  405loPI   GL1 6469  16.392   4.160  10.574  0.2297  0.1328  0.0032
  405loPI   GL2 6470  16.287   4.453  10.341 -0.1648  0.0074 -0.0398
  405loPI   C1A 6471  16.291   4.007  10.200  0.2684  0.2669 -0.1175
  405loPI   C2A 6472  16.263   4.124   9.803  0.1839 -0.0653  0.1018
  405loPI   C3A 6473  16.227   4.309   9.450 -0.0218  0.0529 -0.0334
  405loPI   C4A 6474  16.159   4.265   9.143  0.2427  0.0715  0.2959
  405loPI   C5A 6475  16.011   4.129   8.623 -0.0762 -0.1028  0.0067
  405loPI   C6A 6476  16.118   4.089   8.269  0.2548 -0.0160 -0.1087
  405loPI   C1B 6477  16.315   4.680   9.943 -0.0906  0.0419 -0.0713
  405loPI   C2B 6478  16.407   5.085   9.784  0.1131  0.1358  0.0664
  405loPI   C3B 6479  16.410   5.330   9.475 -0.1747  0.2135 -0.2625
  405loPI   C4B 6480  16.835   5.306   9.163  0.1381  0.2333 -0.1352
  406loPI    C1 6481  11.534  14.748  10.940 -0.1282 -0.1140  0.0598
  406loPI    C2 6482  11.663  14.532  11.251  0.0637 -0.0942 -0.0050
  406loPI    C3 6483  11.796  14.906  11.198 -0.0509 -0.0599 -0.0515
  406loPI   PO4 6484  11.596  14.643  10.731 -0.2973  0.2928 -0.0378
  406loPI   GL1 6485  11.736  14.655  10.231  0.0361  0.0032  0.0910
  406loPI   GL2 6486  11.566  15.027  10.284  0.2233 -0.1808 -0.0739
  406loPI   C1A 6487  11.740  14.323   9.777 -0.2601 -0.0022  0.1225
  406loPI   C2A 6488  11.601  14.284   9.249 -0.4441  0.1054 -0.2760
  406loPI   C3A 6489  11.696  13.833   9.122 -0.0218  0.1420  0.3859
  406loPI   C4A 6490  11.833  13.636   8.719 -0.0353 -0.0730  0.0780
  406loPI   C5A 6491  11.643  13.255   8.509  0.0675  0.0736 -0.3293
  406loPI   C6A 6492  11.557  12.857   8.294 -0.2701 -0.1735  0.1737
  406loPI   C1B 6493  11.725  14.924   9.799  0.3494  0.0982  0.0738
  406loPI   C2B 6494  11.750  14.753   9.366 -0.1022 -0.1876  0.3093
  406loPI   C3B 6495  11.944  14.612   9.003 -0.0305  0.2165  0.3177
  406loPI   C4B 6496  11.800  14.252   8.820  0.0963  0.2187  0.0225
  407loPI    C1 6497  10.701   0.768  10.797 -0.1197  0.1748  0.1963
  407loPI    C2 6498  10.839   0.554  11.106  0.0636 -0.1294 -0.0887
  407loPI    C3 6499  11.043   0.564  10.762 -0.1477  0.1885 -0.2107
  407loPI   PO4 6500  10.502   0.625  10.736 -0.1144  0.1156  0.0569
  407loPI   GL1 6501  10.192   0.797  10.410  0.3214 -0.0540  0.1491
  407loPI   GL2 6502  10.410   0.983  10.399 -0.3021  0.1843  0.0397
  407loPI   C1A 6503  10.088   0.554   9.997 -0.0425  0.1959 -0.1491
  407loPI   C2A 6504  10.085   0.499   9.503  0.2138 -0.2154  0.4252
  407loPI   C3A 6505  10.186   0.385   9.161 -0.0340 -0.0949  0.0130
  407loPI   C4A 6506  10.206   0.389   8.699  0.3218  0.2846 -0.1540
  407loPI   C5A 6507   9.931   0.501   8.291 -0.2613  0.0069 -0.1299
  407loPI   C6A 6508   9.525   0.458   8.125 -0.0791 -0.1432 -0.1879
  407loPI   C1B 6509  10.513   0.824   9.958  0.6328 -0.1172  0.1853
  407loPI   C2B 6510  10.518   0.774   9.475  0.0240  0.0253 -0.4441
  407loPI   C3B 6511  10.599   0.689   9.072  0.1143 -0.1859  0.0385
  407loPI   C4B 6512  10.721   0.643   8.625  0.0192  0.5760 -0.0039
  408loPI    C1 6513   3.455  16.796  10.628  0.0049 -0.0203 -0.0584
  408loPI    C2 6514   3.241  16.510  10.448  0.1338 -0.0127 -0.2254
  408loPI    C3 6515   3.539  16.411  10.695 -0.0791 -0.0235  0.0307
  408loPI   PO4 6516   3.499  16.942  10.484 -0.1715 -0.3256  0.0088
  408loPI   GL1 6517   3.819  17.018  10.155  0.0138 -0.0545 -0.0290
  408loPI   GL2 6518   3.673  17.298  10.160 -0.0227 -0.2167  0.2417
  408loPI   C1A 6519   4.056  17.211   9.873  0.4843  0.0776  0.1565
  408loPI   C2A 6520   4.277  17.544   9.695  0.1868  0.2259 -0.1175
  408loPI   C3A 6521   4.404  17.723   9.245  0.0151  0.3744  0.4377
  408loPI   C4A 6522   4.277  17.963   8.894 -0.0420 -0.0796 -0.0594
  408loPI   C5A 6523   4.086  17.935   8.465  0.3929 -0.2328  0.1085
  408loPI   C6A 6524   4.069  18.001   7.984 -0.0654  0.1062 -0.2763
  408loPI   C1B 6525   3.635  17.052   9.722  0.0745 -0.1989  0.0149
  408loPI   C2B 6526   3.562  16.856   9.247  0.2619 -0.0424 -0.0852
  408loPI   C3B 6527   3.507  16.688   8.809  0.1113 -0.0685 -0.2554
  408loPI   C4B 6528   3.545  16.647   8.302  0.1628  0.0305  0.2606
  409loPI    C1 6529   2.448   6.677  11.059 -0.2388  0.1674 -0.3619
  409loPI    C2 6530   2.642   7.027  11.043  0.0969  0.0016 -0.0633
  409loPI    C3 6531   2.401   6.945  11.353  0.0741 -0.0601 -0.0970
  409loPI   PO4 6532   2.450   6.657  10.758 -0.1037  0.2499 -0.3187
  409loPI   GL1 6533   2.337   6.736  10.269  0.3098 -0.1530 -0.1296
  409loPI   GL2 6534   2.692   6.745  10.265  0.1459  0.1821 -0.3335
  409loPI   C1A 6535   2.427   6.970   9.912  0.1360  0.2986 -0.0501
  409loPI   C2A 6536   2.406   7.011   9.566  0.1739  0.1964 -0.1319
  409loPI   C3A 6537   2.397   7.029   9.114 -0.2268  0.2658  0.2743
  409loPI   C4A 6538   2.466   7.024   8.660 -0.0005 -0.2145  0.2750
  409loPI   C5A 6539   2.699   6.795   8.218  0.0125  0.2283 -0.1021
  409loPI   C6A 6540   2.811   6.454   7.899  0.1258  0.1247 -0.2136
  409loPI   C1B 6541   2.954   6.841   9.901  0.0615 -0.2095 -0.0507
  409loPI   C2B 6542   2.959   6.925   9.434 -0.2221  0.0213  0.1026
  409loPI   C3B 6543   2.911   6.940   8.974  0.2221  0.0197 -0.0890
  409loPI   C4B 6544   2.953   6.941   8.623  0.1221 -0.1665  0.0178
  410loPI    C1 6545  15.782  12.376  10.860  0.1374 -0.0955  0.3833
  410loPI    C2 6546  15.488  12.105  10.870  0.1614 -0.1609 -0.2590
  410loPI    C3 6547  15.807  12.063  11.108 -0.2358 -0.2098  0.2828
  410loPI   PO4 6548  15.560  12.651  10.785  0.2156 -0.1494  0.4496
  410loPI   GL1 6549  15.515  13.037  10.643 -0.0579  0.4116  0.0415
  410loPI   GL2 6550  15.592  13.267  10.404 -0.0725 -0.0359 -0.1201
  410loPI   C1A 6551  15.516  12.869  10.196 -0.0590  0.1880  0.1941
  410loPI   C2A 6552  15.399  13.013   9.748  0.1000  0.1025 -0.2111
  410loPI   C3A 6553  15.253  12.975   9.356  0.1488 -0.2978 -0.3413
  410loPI   C4A 6554  15.175  12.909   8.906  0.1688  0.1790  0.0591
  410loPI   C5A 6555  15.174  12.748   8.462  0.0299  0.0259  0.0431
  410loPI   C6A 6556  14.917  12.776   7.994  0.1447 -0.0280  0.2208
  410loPI   C1B 6557  15.786  13.422  10.007  0.1782  0.1218  0.1808
  410loPI   C2B 6558  15.746  13.420   9.518 -0.0824 -0.1753  0.0908
  410loPI   C3B 6559  15.745  13.622   9.155 -0.0918  0.1786  0.2172
  410loPI   C4B 6560  15.770  13.601   8.766  0.2394  0.1188  0.2004
  411loPI    C1 6561  17.672   0.179  10.867  0.0698  0.0026 -0.0887
  411loPI    C2 6562  17.753   0.337  11.226  0.0717  0.0409 -0.1060
  411loPI    C3 6563  17.462   0.065  11.188  0.1831 -0.0881 -0.0459
  411loPI   PO4 6564  17.744   0.301  10.683  0.1128 -0.3936  0.0009
  411loPI   GL1 6565  17.653   0.467  10.292  0.3554 -0.1009 -0.0937
  411loPI   GL2 6566  17.393   0.609  10.113 -0.1489 -0.2679 -0.0652
  411loPI   C1A 6567  17.839   0.623   9.925 -0.1916  0.1001 -0.0116
  411loPI   C2A 6568  17.800   0.647   9.581 -0.1757 -0.0628  0.4829
  411loPI   C3A 6569  17.853   0.780   9.082  0.0594 -0.1724  0.1752
  411loPI   C4A 6570  17.867   0.794   8.672  0.0325  0.1258 -0.0001
  411loPI   C5A 6571  17.847   0.498   8.328 -0.2893  0.3503  0.1382
  411loPI   C6A 6572  17.969   0.181   8.010  0.1160  0.0280 -0.0072
  411loPI   C1B 6573  17.306   0.597   9.725  0.2231  0.2961 -0.1458
  411loPI   C2B 6574  17.244   0.706   9.328 -0.1080  0.2774 -0.0645
  411loPI   C3B 6575  17.172   0.749   8.910  0.0609  0.4583 -0.0052
  411loPI   C4B 6576  17.036   0.991   8.561 -0.0595  0.0308  0.0794
  412loPI    C1 6577   8.525   0.936  10.554  0.0661 -0.0555  0.0318
  412loPI    C2 6578   8.786   0.746  10.789  0.0988  0.1902  0.1972
  412loPI    C3 6579   8.468   0.927  10.950 -0.1595 -0.0804  0.0002
  412loPI   PO4 6580   8.676   0.827  10.307  0.3202  0.1161 -0.2482
  412loPI   GL1 6581   8.475   0.646   9.951 -0.1592 -0.2349  0.2520
  412loPI   GL2 6582   8.427   0.356  10.059  0.0715 -0.1052 -0.0323
  412loPI   C1A 6583   8.656   0.659   9.522  0.2938 -0.2512  0.1349
  412loPI   C2A 6584   8.805   0.680   9.133  0.1965 -0.0982 -0.0365
  412loPI   C3A 6585   8.733   0.572   8.730  0.1412 -0.1801 -0.1639
  412loPI   C4A 6586   8.662   0.532   8.390 -0.0311 -0.0802  0.0877
  412loPI   C5A 6587   8.660   0.788   8.111  0.3380  0.1927 -0.0866
  412loPI   C6A 6588   8.810   1.165   7.913 -0.2513 -0.0966 -0.0201
  412loPI   C1B 6589   8.291   0.312   9.650 -0.0921  0.1719  0.1555
  412loPI   C2B 6590   8.351   0.390   9.113  0.0804 -0.0587 -0.1482
  412loPI   C3B 6591   8.240   0.309   8.698 -0.0906 -0.1387  0.2933
  412loPI   C4B 6592   8.027   0.099   8.394 -0.0504 -0.0655 -0.2833
  413loPI    C1 6593  16.138  14.257  11.111  0.0817 -0.0870 -0.0295
  413loPI    C2 6594  16.390  14.529  11.261  0.0651 -0.0686 -0.0349
  413loPI    C3 6595  16.137  14.336  11.503 -0.1716  0.1790 -0.0805
  413loPI   PO4 6596  16.041  14.403  10.932 -0.2120  0.1068 -0.0079
  413loPI   GL1 6597  15.898  14.361  10.487  0.0840  0.1327 -0.2141
  413loPI   GL2 6598  16.196  14.479  10.493 -0.1056 -0.3679 -0.0871
  413loPI   C1A 6599  15.822  14.426  10.148  0.0521 -0.0248 -0.1232
  413loPI   C2A 6600  15.803  14.361   9.750  0.1528 -0.2025 -0.2136
  413loPI   C3A 6601  15.796  14.475   9.278  0.0231  0.0220 -0.2066
  413loPI   C4A 6602  15.821  14.438   8.823  0.2510  0.2301  0.0905
  413loPI   C5A 6603  15.749  14.356   8.486  0.0728  0.2084  0.0162
  413loPI   C6A 6604  15.747  14.476   8.011 -0.0490 -0.1243 -0.0579
  413loPI   C1B 6605  16.343  14.469  10.041  0.0228  0.1664 -0.1132
  413loPI   C2B 6606  16.277  14.595   9.624  0.3384  0.2650  0.2235
  413loPI   C3B 6607  16.476  14.890   9.384 -0.2262  0.0444  0.1193
  413loPI   C4B 6608  16.467  15.038   9.018  0.0610  0.0478  0.1721
  414loPI    C1 6609  11.074   5.698  11.289  0.0325  0.0881 -0.0463
  414loPI    C2 6610  11.098   5.438  10.987  0.1768  0.0142  0.0274
  414loPI    C3 6611  11.320   5.384  11.315  0.2309  0.2473  0.0309
  414loPI   PO4 6612  11.097   5.927  11.067 -0.0578 -0.1127  0.1241
  414loPI   GL1 6613  11.282   5.984  10.641  0.1261  0.1038 -0.4538
  414loPI   GL2 6614  11.213   5.681  10.573 -0.0929 -0.0482 -0.2233
  414loPI   C1A 6615  11.439   5.961  10.272 -0.2382 -0.0489  0.0521
  414loPI   C2A 6616  11.467   5.803   9.888  0.0726  0.0571 -0.1735
  414loPI   C3A 6617  11.477   5.727   9.520 -0.1809  0.1047  0.1831
  414loPI   C4A 6618  11.568   5.767   9.010 -0.0023  0.0909  0.0721
  414loPI   C5A 6619  11.593   5.503   8.724  0.0931  0.2339 -0.0656
  414loPI   C6A 6620  11.638   5.270   8.365 -0.0183  0.0900 -0.0302
  414loPI   C1B 6621  11.598   5.506  10.332 -0.0896  0.0352 -0.0628
  414loPI   C2B 6622  11.793   5.424   9.938 -0.2725 -0.0270 -0.2427
  414loPI   C3B 6623  11.820   5.383   9.536  0.0366  0.1090  0.1873
  414loPI   C4B 6624  11.931   5.459   9.169 -0.0334  0.2302 -0.1780
  415loPI    C1 6625  10.157   1.651  11.001 -0.1648 -0.0816  0.0521
  415loPI    C2 6626  10.002   1.662  11.370 -0.1542  0.1915  0.0506
  415loPI    C3 6627   9.836   1.877  11.077 -0.0832  0.0788 -0.0738
  415loPI   PO4 6628  10.423   1.601  11.069  0.1821 -0.0514  0.0359
  415loPI   GL1 6629  10.785   1.442  10.737  0.1825 -0.1342  0.2587
  415loPI   GL2 6630  10.816   1.200  10.620 -0.1875  0.2041  0.2216
  415loPI   C1A 6631  10.855   1.645  10.339  0.1174  0.1931  0.0501
  415loPI   C2A 6632  10.825   1.591   9.916  0.2962  0.1898  0.2619
  415loPI   C3A 6633  10.948   1.569   9.509  0.0052  0.1543  0.0464
  415loPI   C4A 6634  11.010   1.554   9.074 -0.0710 -0.1275 -0.0287
  415loPI   C5A 6635  11.015   1.694   8.700 -0.2609 -0.1897  0.0291
  415loPI   C6A 6636  10.770   1.785   8.333 -0.3456 -0.1838  0.0812
  415loPI   C1B 6637  10.905   1.116  10.111  0.1897 -0.0821  0.2323
  415loPI   C2B 6638  10.894   1.118   9.688  0.1055  0.0947 -0.0889
  415loPI   C3B 6639  11.000   0.981   9.268  0.2540 -0.1273  0.0762
  415loPI   C4B 6640  10.990   0.975   8.864 -0.1352  0.1747 -0.2672
  416loPI    C1 6641   7.353   7.133  10.670  0.0985  0.0293 -0.0559
  416loPI    C2 6642   7.485   7.489  10.543 -0.1397  0.1903  0.1390
  416loPI    C3 6643   7.393   7.435  10.929 -0.1698 -0.0639  0.0984
  416loPI   PO4 6644   7.196   6.976  10.442 -0.0062  0.2557 -0.2504
  416loPI   GL1 6645   7.153   6.785  10.066 -0.2908  0.0947  0.0014
  416loPI   GL2 6646   7.034   6.602   9.914 -0.0560 -0.1126  0.2923
  416loPI   C1A 6647   7.594   6.696   9.957 -0.2451  0.0461 -0.1241
  416loPI   C2A 6648   7.778   6.940   9.623 -0.1552  0.0267  0.1169
  416loPI   C3A 6649   7.980   6.962   9.274 -0.0446 -0.0811 -0.0124
  416loPI   C4A 6650   8.052   6.955   8.897  0.1673 -0.0829 -0.0213
  416loPI   C5A 6651   8.178   6.881   8.636  0.1291 -0.0260  0.1481
  416loPI   C6A 6652   8.453   6.720   8.247 -0.1896  0.0536 -0.1530
  416loPI   C1B 6653   7.305   6.843   9.541  0.0667 -0.2842  0.0230
  416loPI   C2B 6654   7.521   6.821   9.161  0.0588  0.0311 -0.0851
  416loPI   C3B 6655   7.637   6.743   8.721 -0.0029 -0.0073  0.3371
  416loPI   C4B 6656   7.659   6.795   8.357  0.1719 -0.2728  0.0907
  417loPI    C1 6657  14.289   6.037  11.254 -0.0778 -0.0596  0.1105
  417loPI    C2 6658  14.544   6.290  11.431  0.1041  0.0412 -0.2842
  417loPI    C3 6659  14.649   5.908  11.374 -0.0576 -0.0579  0.0516
  417loPI   PO4 6660  14.083   6.167  11.198  0.1762 -0.0158  0.0788
  417loPI   GL1 6661  13.921   6.357  10.829 -0.3915  0.2795 -0.2238
  417loPI   GL2 6662  14.092   6.248  10.609 -0.2298 -0.1174 -0.4153
  417loPI   C1A 6663  13.776   6.639  10.505  0.1985  0.0780  0.1096
  417loPI   C2A 6664  13.743   6.755  10.041  0.0721  0.2509  0.2334
  417loPI   C3A 6665  13.666   6.713   9.588 -0.1306 -0.0422 -0.1732
  417loPI   C4A 6666  13.709   6.808   9.174 -0.1361  0.0253 -0.1176
  417loPI   C5A 6667  13.760   6.883   8.744 -0.0746  0.0631  0.0242
  417loPI   C6A 6668  13.456   6.823   8.407  0.1805  0.1219  0.1494
  417loPI   C1B 6669  14.020   6.336  10.223  0.0794  0.0769 -0.0474
  417loPI   C2B 6670  14.018   6.379   9.752  0.1885  0.1851  0.3057
  417loPI   C3B 6671  14.025   6.436   9.360  0.1655 -0.2550 -0.2009
  417loPI   C4B 6672  14.033   6.487   8.997 -0.1983 -0.0799  0.1311
  418loPI    C1 6673   5.340   2.980  10.792  0.0401  0.0137 -0.0150
  418loPI    C2 6674   5.170   3.328  10.893  0.0715  0.0100  0.0508
  418loPI    C3 6675   5.385   3.125  11.162 -0.0200 -0.1036  0.0386
  418loPI   PO4 6676   5.406   3.066  10.508  0.0645  0.4294 -0.0734
  418loPI   GL1 6677   5.653   2.925  10.192  0.0634 -0.0704  0.3167
  418loPI   GL2 6678   5.303   3.121  10.031  0.0124  0.0463 -0.1641
  418loPI   C1A 6679   5.703   2.598   9.962  0.1423  0.4878 -0.2117
  418loPI   C2A 6680   5.633   2.477   9.595  0.0548 -0.2236  0.1415
  418loPI   C3A 6681   5.523   2.369   9.214 -0.0759  0.1937  0.0971
  418loPI   C4A 6682   5.538   2.312   8.838 -0.0397  0.1261  0.0377
  418loPI   C5A 6683   5.446   2.194   8.419 -0.0785  0.0572  0.3941
  418loPI   C6A 6684   5.546   1.902   8.145  0.1646 -0.0872  0.0077
  418loPI   C1B 6685   5.434   2.942   9.682 -0.1018  0.2211 -0.3585
  418loPI   C2B 6686   5.422   2.861   9.204 -0.2173 -0.1603 -0.1399
  418loPI   C3B 6687   5.415   2.853   8.774  0.1220 -0.4131  0.1973
  418loPI   C4B 6688   5.342   2.813   8.368 -0.0882 -0.0309 -0.0798
  419loPI    C1 6689  11.525   8.107  11.140  0.0315 -0.0367 -0.1475
  419loPI    C2 6690  11.342   8.076  11.495 -0.0844 -0.4924 -0.2401
  419loPI    C3 6691  11.741   8.081  11.476 -0.0756 -0.0225 -0.0769
  419loPI   PO4 6692  11.390   8.321  10.947  0.0726  0.0417  0.4418
  419loPI   GL1 6693  11.421   8.344  10.472  0.0041 -0.2177  0.0873
  419loPI   GL2 6694  11.173   8.106  10.435  0.3926 -0.0525 -0.1724
  419loPI   C1A 6695  11.316   8.451  10.081 -0.1824  0.0333 -0.1924
  419loPI   C2A 6696  11.309   8.494   9.701 -0.1301  0.1531 -0.2818
  419loPI   C3A 6697  11.278   8.558   9.294 -0.2518  0.1282 -0.2345
  419loPI   C4A 6698  11.338   8.553   8.819  0.1052  0.0059 -0.1252
  419loPI   C5A 6699  11.348   8.419   8.351 -0.0147  0.1782 -0.2284
  419loPI   C6A 6700  11.203   8.567   7.906  0.1646  0.1308  0.1691
  419loPI   C1B 6701  11.120   7.997   9.977  0.0546 -0.2394  0.1139
  419loPI   C2B 6702  11.112   8.000   9.571  0.0975  0.1275 -0.0402
  419loPI   C3B 6703  11.173   8.101   9.192  0.1901  0.1006  0.3965
  419loPI   C4B 6704  11.256   8.009   8.722  0.1205 -0.0247 -0.0744
  420loPI    C1 6705   1.656  12.749  10.914  0.2191  0.0220 -0.0088
  420loPI    C2 6706   1.699  13.061  11.160  0.1868 -0.1077  0.1635
  420loPI    C3 6707   1.668  12.691  11.310  0.0901 -0.1805 -0.0327
  420loPI   PO4 6708   1.458  12.840  10.729 -0.3463 -0.0452 -0.3870
  420loPI   GL1 6709   1.225  12.836  10.313 -0.0799 -0.1627 -0.0754
  420loPI   GL2 6710   1.521  13.038  10.333  0.3355  0.2264 -0.0891
  420loPI   C1A 6711   1.178  12.850   9.874  0.1862  0.0234  0.0465
  420loPI   C2A 6712   1.236  12.932   9.470 -0.0577 -0.1518  0.2595
  420loPI   C3A 6713   1.329  12.849   9.043 -0.0873 -0.1572 -0.1439
  420loPI   C4A 6714   1.389  12.965   8.709  0.0172 -0.1805  0.2699
  420loPI   C5A 6715   1.429  13.085   8.246 -0.0842 -0.2226 -0.0037
  420loPI   C6A 6716   1.270  13.265   7.876  0.1009  0.1600  0.1921
  420loPI   C1B 6717   1.461  13.262  10.022 -0.0339  0.0888  0.2705
  420loPI   C2B 6718   1.452  13.364   9.550  0.1905 -0.0472  0.0874
  420loPI   C3B 6719   1.521  13.395   9.134 -0.0120  0.0788 -0.0587
  420loPI   C4B 6720   1.439  13.475   8.800  0.0803 -0.1331 -0.0974
  421loPI    C1 6721   7.005  14.998  11.042 -0.1951  0.1861  0.0808
  421loPI    C2 6722   7.103  15.245  10.742 -0.0694  0.2040  0.1359
  421loPI    C3 6723   7.284  15.280  11.097 -0.0871  0.0644  0.1594
  421loPI   PO4 6724   6.873  14.795  10.891 -0.2284  0.2209  0.0089
  421loPI   GL1 6725   6.944  14.691  10.453 -0.1525 -0.1612 -0.2809
  421loPI   GL2 6726   6.846  15.032  10.354  0.0632 -0.0748  0.0122
  421loPI   C1A 6727   7.046  14.655  10.074  0.0378  0.1068  0.0943
  421loPI   C2A 6728   7.261  14.620   9.630 -0.0974  0.3545  0.0967
  421loPI   C3A 6729   7.233  14.595   9.107  0.1240 -0.0792 -0.1572
  421loPI   C4A 6730   7.340  14.640   8.685  0.4551 -0.1434 -0.1392
  421loPI   C5A 6731   7.737  14.793   8.410 -0.0842 -0.1079  0.1547
  421loPI   C6A 6732   8.005  14.757   8.036  0.2412 -0.0999 -0.1697
  421loPI   C1B 6733   6.627  14.817   9.953 -0.1523  0.1287 -0.1616
  421loPI   C2B 6734   6.696  14.848   9.661  0.0790 -0.1892  0.1903
  421loPI   C3B 6735   6.713  14.669   9.231  0.1001 -0.0649 -0.0017
  421loPI   C4B 6736   6.781  14.865   8.886 -0.1101  0.0896  0.0225
  422loPI    C1 6737   4.602   7.780  10.570  0.0206 -0.2175  0.2566
  422loPI    C2 6738   4.768   7.681  10.920  0.2925  0.1455  0.2360
  422loPI    C3 6739   4.648   8.057  10.855  0.2768  0.0894 -0.0738
  422loPI   PO4 6740   4.518   7.546  10.503  0.0273  0.0502  0.0015
  422loPI   GL1 6741   4.516   7.318  10.119 -0.0999 -0.1579  0.1924
  422loPI   GL2 6742   4.240   7.426  10.045  0.2424 -0.2409 -0.0621
  422loPI   C1A 6743   4.650   7.372   9.674  0.0092  0.1509  0.0648
  422loPI   C2A 6744   4.570   7.457   9.249 -0.1486 -0.1394 -0.1619
  422loPI   C3A 6745   4.585   7.709   8.875  0.0013 -0.0407  0.2704
  422loPI   C4A 6746   4.610   7.727   8.485  0.2820  0.0730 -0.1572
  422loPI   C5A 6747   4.316   7.533   8.129  0.0875 -0.0824  0.3654
  422loPI   C6A 6748   3.884   7.582   8.143  0.2024  0.1532 -0.2080
  422loPI   C1B 6749   4.069   7.454   9.753  0.1247 -0.1218 -0.1027
  422loPI   C2B 6750   4.093   7.625   9.352  0.0124  0.3610  0.2104
  422loPI   C3B 6751   4.062   7.653   8.975 -0.0236 -0.0757  0.0191
  422loPI   C4B 6752   4.160   7.850   8.576  0.2179  0.0868  0.0313
  423loPI    C1 6753  11.430   0.578  11.082  0.3828  0.0231 -0.0993
  423loPI    C2 6754  11.698   0.620  11.376  0.2490 -0.3093  0.0752
  423loPI    C3 6755  11.307   0.607  11.461  0.1632  0.2625 -0.1863
  423loPI   PO4 6756  11.580   0.744  10.897 -0.0887 -0.1139 -0.2401
  423loPI   GL1 6757  11.497   0.848  10.538 -0.1104  0.0349 -0.4326
  423loPI   GL2 6758  11.217   0.862  10.439  0.0017  0.1654 -0.0786
  423loPI   C1A 6759  11.721   1.153  10.279  0.2641 -0.3373  0.0384
  423loPI   C2A 6760  11.837   1.133   9.925 -0.0672  0.1875 -0.3823
  423loPI   C3A 6761  11.879   1.094   9.475 -0.0449  0.4391 -0.0370
  423loPI   C4A 6762  11.822   1.072   8.974  0.1646 -0.0076 -0.0656
  423loPI   C5A 6763  11.982   0.870   8.569 -0.0661 -0.0258 -0.0096
  423loPI   C6A 6764  12.392   0.979   8.346 -0.0094 -0.1090 -0.3424
  423loPI   C1B 6765  11.374   0.895   9.994 -0.0915  0.0033 -0.4144
  423loPI   C2B 6766  11.447   0.799   9.498  0.0156  0.1189 -0.1654
  423loPI   C3B 6767  11.453   0.784   9.061  0.1390 -0.0199 -0.1453
  423loPI   C4B 6768  11.432   0.834   8.634 -0.3460  0.0083  0.1012
  424loPI    C1 6769  16.249  13.845  11.369 -0.1455 -0.0935  0.0882
  424loPI    C2 6770  16.063  13.697  11.691 -0.1767 -0.0931  0.0705
  424loPI    C3 6771  16.412  13.887  11.732 -0.1338 -0.1761  0.0926
  424loPI   PO4 6772  16.060  13.763  11.117 -0.1360  0.0129  0.1558
  424loPI   GL1 6773  16.141  13.945  10.714 -0.3504  0.1072  0.3136
  424loPI   GL2 6774  15.954  13.691  10.536 -0.2335  0.0329  0.0899
  424loPI   C1A 6775  16.203  14.028  10.278  0.2756 -0.1712  0.0861
  424loPI   C2A 6776  16.165  14.045   9.845 -0.0116 -0.0718 -0.1736
  424loPI   C3A 6777  16.169  14.090   9.419 -0.3129  0.1287 -0.2583
  424loPI   C4A 6778  16.083  14.050   8.999  0.0351 -0.2392  0.0711
  424loPI   C5A 6779  16.046  14.041   8.682  0.0501  0.1586  0.2313
  424loPI   C6A 6780  15.971  13.816   8.287 -0.1451  0.0937 -0.0072
  424loPI   C1B 6781  15.739  13.915  10.085  0.0544  0.3958  0.1351
  424loPI   C2B 6782  15.692  13.870   9.718 -0.2554 -0.0277 -0.0843
  424loPI   C3B 6783  15.613  14.035   9.406 -0.1468  0.0376  0.0377
  424loPI   C4B 6784  15.505  14.110   9.019  0.4125 -0.0327 -0.0715
  425loPI    C1 6785   4.940   0.684  10.498 -0.1405 -0.2163  0.1874
  425loPI    C2 6786   4.894   0.821  10.871  0.1062  0.0458  0.1254
  425loPI    C3 6787   5.177   0.550  10.791  0.0108 -0.0585  0.1390
  425loPI   PO4 6788   4.837   0.852  10.286  0.1736  0.2236 -0.2612
  425loPI   GL1 6789   4.405   0.956  10.041  0.4578  0.1235 -0.0998
  425loPI   GL2 6790   4.597   0.733   9.863  0.3182  0.1167  0.1031
  425loPI   C1A 6791   4.079   1.270   9.794  0.1207 -0.1492 -0.1077
  425loPI   C2A 6792   3.914   1.280   9.409  0.0503 -0.0112  0.3566
  425loPI   C3A 6793   4.082   1.215   9.014  0.0113  0.1902 -0.1748
  425loPI   C4A 6794   3.942   1.289   8.585 -0.1156  0.2075  0.1320
  425loPI   C5A 6795   3.775   1.151   8.179 -0.0944 -0.0855  0.1252
  425loPI   C6A 6796   3.305   1.054   8.065 -0.1593 -0.1283  0.1176
  425loPI   C1B 6797   4.670   0.627   9.451 -0.0296  0.1749 -0.1385
  425loPI   C2B 6798   4.716   0.672   9.017 -0.0427 -0.2598 -0.0454
  425loPI   C3B 6799   4.506   0.696   8.651 -0.0452  0.0493 -0.1821
  425loPI   C4B 6800   4.378   1.088   8.372 -0.4213  0.1514 -0.1288
  426loPI    C1 6801  12.296   5.177  11.397  0.1676 -0.1073 -0.2085
  426loPI    C2 6802  12.184   4.814  11.521 -0.1009  0.0882  0.1392
  426loPI    C3 6803  12.404   5.048  11.760 -0.0914  0.2293 -0.0060
  426loPI   PO4 6804  12.402   5.181  11.114  0.4770  0.0783  0.0603
  426loPI   GL1 6805  12.514   5.505  10.832  0.0361 -0.1136 -0.1081
  426loPI   GL2 6806  12.820   5.586  10.682  0.1327 -0.2520 -0.1673
  426loPI   C1A 6807  12.570   5.204  10.430 -0.1674  0.2174  0.3019
  426loPI   C2A 6808  12.978   5.154  10.108  0.3340  0.2075 -0.0380
  426loPI   C3A 6809  13.207   5.151   9.750 -0.3255  0.1554 -0.3945
  426loPI   C4A 6810  13.177   5.289   9.457  0.2999  0.0463  0.3234
  426loPI   C5A 6811  13.235   5.340   8.987 -0.1080  0.0565  0.1346
  426loPI   C6A 6812  13.227   5.416   8.525 -0.0648 -0.0237 -0.1340
  426loPI   C1B 6813  12.799   5.603  10.164  0.1212 -0.3680 -0.2387
  426loPI   C2B 6814  12.801   5.563   9.642 -0.1029  0.0208 -0.1369
  426loPI   C3B 6815  12.813   5.742   9.237 -0.1675  0.3378  0.1007
  426loPI   C4B 6816  12.815   5.839   8.825 -0.4238  0.3517  0.0961
  427loPI    C1 6817   6.812   1.061  10.753 -0.1355 -0.0659  0.0005
  427loPI    C2 6818   7.207   1.019  10.713 -0.1489 -0.0592 -0.1454
  427loPI    C3 6819   7.039   0.988  11.075 -0.0128 -0.0384 -0.0792
  427loPI   PO4 6820   6.748   1.148  10.511 -0.1340  0.3155 -0.0849
  427loPI   GL1 6821   6.753   1.200  10.119 -0.0531 -0.0170 -0.0067
  427loPI   GL2 6822   6.706   1.499  10.175 -0.1152 -0.0352 -0.1815
  427loPI   C1A 6823   6.825   1.171   9.640 -0.0208  0.0923 -0.0760
  427loPI   C2A 6824   6.920   1.155   9.188  0.0112 -0.2777  0.1046
  427loPI   C3A 6825   7.028   1.067   8.706  0.2664  0.2375  0.1404
  427loPI   C4A 6826   7.027   1.050   8.341 -0.0742 -0.0266  0.0240
  427loPI   C5A 6827   7.058   0.843   7.924 -0.1662 -0.1011  0.1498
  427loPI   C6A 6828   7.440   0.695   7.822  0.0084 -0.0698  0.2310
  427loPI   C1B 6829   6.740   1.717   9.817  0.0376  0.1568 -0.1287
  427loPI   C2B 6830   6.926   1.663   9.391  0.0715  0.0278 -0.3049
  427loPI   C3B 6831   6.757   1.795   9.018  0.1301  0.2086  0.0300
  427loPI   C4B 6832   6.692   1.796   8.598  0.0436  0.1279  0.2480
  428loPI    C1 6833  17.652   0.987  10.614 -0.1950  0.0195 -0.0943
  428loPI    C2 6834  17.737   0.754  10.928  0.0050 -0.1139 -0.2449
  428loPI    C3 6835  17.736   1.151  10.969 -0.0065 -0.1314 -0.0669
  428loPI   PO4 6836  17.426   0.900  10.539  0.2777 -0.1943  0.2496
  428loPI   GL1 6837  17.011   1.072  10.419 -0.0701 -0.0292  0.1454
  428loPI   GL2 6838  16.871   0.821  10.292 -0.0087  0.0525 -0.0375
  428loPI   C1A 6839  17.104   1.002   9.952  0.3132 -0.2529  0.0149
  428loPI   C2A 6840  16.907   1.000   9.632 -0.0952  0.3916 -0.0661
  428loPI   C3A 6841  16.956   1.063   9.215 -0.1553 -0.1383  0.0205
  428loPI   C4A 6842  16.917   1.370   8.841  0.2710  0.0216  0.2749
  428loPI   C5A 6843  16.677   1.296   8.408 -0.1945  0.0232  0.1963
  428loPI   C6A 6844  16.640   1.405   8.009 -0.0067  0.0829  0.0935
  428loPI   C1B 6845  16.582   0.935  10.069 -0.0858 -0.1903  0.2814
  428loPI   C2B 6846  16.407   0.927   9.630  0.3013  0.0106  0.1278
  428loPI   C3B 6847  16.419   1.026   9.182  0.0454 -0.2121 -0.2757
  428loPI   C4B 6848  16.583   0.927   8.795 -0.0931  0.0294  0.1103
  429loPI    C1 6849  17.013   8.495  11.026 -0.0569  0.0323  0.0512
  429loPI    C2 6850  16.618   8.449  10.981 -0.0234 -0.0141 -0.2088
  429loPI    C3 6851  16.801   8.302  11.305 -0.1950 -0.1318 -0.1638
  429loPI   PO4 6852  17.092   8.385  10.792 -0.0891  0.3149 -0.0420
  429loPI   GL1 6853  17.117   8.707  10.503 -0.0013  0.1390 -0.0451
  429loPI   GL2 6854  16.974   8.874  10.357 -0.1274 -0.1773  0.2045
  429loPI   C1A 6855  17.260   8.428  10.129 -0.2014  0.0968  0.1640
  429loPI   C2A 6856  17.400   8.498   9.626 -0.2478 -0.0753  0.1622
  429loPI   C3A 6857  17.407   8.282   9.320  0.2845 -0.4056 -0.1559
  429loPI   C4A 6858  17.413   8.478   8.913 -0.2336  0.0759 -0.0591
  429loPI   C5A 6859  17.341   8.842   8.684  0.0268 -0.0477  0.0332
  429loPI   C6A 6860  17.078   9.158   8.414 -0.1916 -0.2553 -0.1855
  429loPI   C1B 6861  17.213   8.914   9.914 -0.4059  0.1567  0.1241
  429loPI   C2B 6862  17.244   8.997   9.536 -0.2865  0.1233 -0.2115
  429loPI   C3B 6863  17.203   9.153   9.085  0.1105 -0.0921 -0.0395
  429loPI   C4B 6864  17.393   9.329   8.830  0.0401 -0.1754 -0.1627
  430loPI    C1 6865   3.289   1.102  10.594  0.2958  0.2105 -0.2379
  430loPI    C2 6866   3.193   0.721  10.668  0.0187  0.3271  0.0272
  430loPI    C3 6867   3.542   0.810  10.493 -0.1157 -0.0757 -0.4703
  430loPI   PO4 6868   3.112   1.268  10.468 -0.0204 -0.1326  0.3089
  430loPI   GL1 6869   3.235   1.566  10.107 -0.1264  0.2569 -0.1222
  430loPI   GL2 6870   3.096   1.285   9.968  0.3771 -0.2163 -0.3046
  430loPI   C1A 6871   3.045   1.593   9.600 -0.0553 -0.0560 -0.1402
  430loPI   C2A 6872   2.720   1.518   9.329 -0.1906 -0.0041  0.3076
  430loPI   C3A 6873   2.525   1.615   8.987  0.2654 -0.1456  0.1446
  430loPI   C4A 6874   2.421   1.532   8.565  0.0576 -0.0902 -0.0158
  430loPI   C5A 6875   2.131   1.421   8.265  0.1515 -0.1162 -0.1613
  430loPI   C6A 6876   1.811   1.474   7.935 -0.0435 -0.0142  0.0487
  430loPI   C1B 6877   2.971   1.091   9.612 -0.1714  0.2910  0.1627
  430loPI   C2B 6878   2.783   1.072   9.158  0.0158  0.4485 -0.1937
  430loPI   C3B 6879   2.561   1.077   8.807 -0.2138 -0.2592 -0.0985
  430loPI   C4B 6880   2.400   0.954   8.417  0.4182 -0.1365 -0.0239
  431loPI    C1 6881   6.123   5.865  10.877 -0.1424  0.2034 -0.0650
  431loPI    C2 6882   5.942   5.527  10.761  0.1820 -0.0219  0.0708
  431loPI    C3 6883   6.022   5.589  11.148  0.0062  0.2737  0.0633
  431loPI   PO4 6884   6.317   5.826  10.584 -0.2386  0.0202  0.0717
  431loPI   GL1 6885   6.108   5.736  10.217 -0.0766  0.0769  0.2737
  431loPI   GL2 6886   5.854   5.581  10.245 -0.2945 -0.0523 -0.4079
  431loPI   C1A 6887   6.089   5.633   9.749  0.1863  0.1285  0.1471
  431loPI   C2A 6888   5.942   5.756   9.468 -0.1580  0.0311 -0.1404
  431loPI   C3A 6889   5.711   6.044   9.105 -0.1775  0.0068 -0.0138
  431loPI   C4A 6890   5.534   6.441   8.982  0.1169 -0.0216  0.0673
  431loPI   C5A 6891   5.464   6.694   8.573  0.1346  0.3248  0.0773
  431loPI   C6A 6892   5.113   6.837   8.398 -0.1644 -0.3195  0.1259
  431loPI   C1B 6893   5.704   5.415   9.920 -0.0258  0.3263  0.2923
  431loPI   C2B 6894   5.535   5.292   9.504 -0.0701 -0.1103 -0.0910
  431loPI   C3B 6895   5.459   5.157   9.034 -0.0692 -0.0205 -0.0930
  431loPI   C4B 6896   5.617   5.112   8.700 -0.0071  0.1869  0.1599
  432loPI    C1 6897  15.464   9.152  10.923 -0.1327 -0.3735  0.0757
  432loPI    C2 6898  15.172   9.281  11.163  0.0685  0.1145  0.0688
  432loPI    C3 6899  15.400   8.972  11.274 -0.1294  0.0472  0.2974
  432loPI   PO4 6900  15.333   9.202  10.683  0.0523 -0.0425  0.0199
  432loPI   GL1 6901  15.114   9.324  10.351 -0.1207 -0.2438  0.5439
  432loPI   GL2 6902  15.072   9.004  10.314  0.3158  0.1065 -0.1210
  432loPI   C1A 6903  14.895   9.378  10.042  0.0076  0.0662 -0.1664
  432loPI   C2A 6904  14.922   9.360   9.661 -0.2352  0.3405  0.6287
  432loPI   C3A 6905  14.875   9.455   9.265 -0.2764 -0.1668 -0.0421
  432loPI   C4A 6906  14.915   9.485   8.810 -0.0115 -0.1730  0.3623
  432loPI   C5A 6907  14.956   9.693   8.360  0.1004 -0.0066  0.0170
  432loPI   C6A 6908  14.639   9.844   8.033 -0.1951  0.0828 -0.0294
  432loPI   C1B 6909  15.215   8.953   9.835 -0.1142 -0.2553 -0.1201
  432loPI   C2B 6910  15.197   9.012   9.469  0.0504 -0.0365  0.1279
  432loPI   C3B 6911  15.175   9.087   9.030  0.2043 -0.0515  0.0142
  432loPI   C4B 6912  15.130   9.086   8.574 -0.2249 -0.0547 -0.0762
  433loPI    C1 6913   5.520  15.218  10.627 -0.0408 -0.1121 -0.0816
  433loPI    C2 6914   5.616  15.441  10.945  0.3316 -0.0952 -0.2010
  433loPI    C3 6915   5.459  15.077  10.996  0.0963  0.0309 -0.0031
  433loPI   PO4 6916   5.696  15.273  10.424  0.0643  0.1035 -0.0790
  433loPI   GL1 6917   5.904  15.045  10.111  0.2435  0.2798 -0.3071
  433loPI   GL2 6918   6.155  14.924  10.053  0.3730  0.1333 -0.0019
  433loPI   C1A 6919   5.806  15.219   9.734 -0.0195 -0.1107  0.0554
  433loPI   C2A 6920   5.758  15.200   9.366  0.2040 -0.0828  0.1566
  433loPI   C3A 6921   5.761  15.193   8.880 -0.1728  0.1302  0.0519
  433loPI   C4A 6922   5.896  15.253   8.513 -0.1753 -0.0837 -0.1146
  433loPI   C5A 6923   5.630  15.389   8.201  0.2591 -0.0479  0.1494
  433loPI   C6A 6924   5.286  15.205   8.116  0.2027 -0.1777 -0.1217
  433loPI   C1B 6925   6.262  14.995   9.669  0.0567  0.3085 -0.0482
  433loPI   C2B 6926   6.247  15.072   9.213  0.0183 -0.0183 -0.5155
  433loPI   C3B 6927   6.306  14.958   8.780 -0.1094 -0.1976 -0.1855
  433loPI   C4B 6928   6.620  15.003   8.385  0.1807 -0.0781 -0.2143
  434loPI    C1 6929  11.045  11.556  11.418 -0.2573 -0.0596  0.0597
  434loPI    C2 6930  10.865  11.913  11.408 -0.2366 -0.0475  0.1124
  434loPI    C3 6931  11.079  11.806  11.729  0.4373  0.2261 -0.2252
  434loPI   PO4 6932  11.112  11.521  11.151  0.0980  0.1270 -0.0183
  434loPI   GL1 6933  10.991  11.326  10.814  0.0592 -0.1684 -0.0065
  434loPI   GL2 6934  11.202  11.260  10.631 -0.2048 -0.0529  0.0287
  434loPI   C1A 6935  10.791  11.624  10.441 -0.2839  0.2755 -0.4099
  434loPI   C2A 6936  10.741  11.630   9.989 -0.0752  0.0804 -0.1574
  434loPI   C3A 6937  10.797  11.482   9.598  0.2080 -0.2718 -0.0383
  434loPI   C4A 6938  10.856  11.613   9.136  0.0090  0.0113  0.1282
  434loPI   C5A 6939  10.972  11.572   8.754  0.2236 -0.2646  0.1651
  434loPI   C6A 6940  10.912  11.491   8.277 -0.1268  0.2096  0.0487
  434loPI   C1B 6941  11.107  11.272  10.201  0.5429 -0.1543 -0.2168
  434loPI   C2B 6942  11.198  11.284   9.781  0.3083 -0.2084  0.1979
  434loPI   C3B 6943  11.218  11.278   9.332  0.1089 -0.0835  0.0255
  434loPI   C4B 6944  11.270  11.218   8.839  0.0967  0.0181 -0.1213
  435loPI    C1 6945   7.897   6.468  10.578  0.0778 -0.0177  0.0375
  435loPI    C2 6946   7.522   6.534  10.455  0.0799 -0.0738  0.0010
  435loPI    C3 6947   7.690   6.777  10.725  0.1168  0.1208 -0.1942
  435loPI   PO4 6948   8.031   6.507  10.359 -0.1246  0.0452 -0.0638
  435loPI   GL1 6949   8.001   6.329  10.035  0.1614 -0.1454 -0.0008
  435loPI   GL2 6950   8.049   6.023   9.817 -0.0565  0.1793  0.1823
  435loPI   C1A 6951   7.731   6.428   9.563 -0.2145  0.1398 -0.2018
  435loPI   C2A 6952   7.816   6.463   9.173 -0.3295  0.1063 -0.1110
  435loPI   C3A 6953   7.880   6.259   8.845 -0.1982 -0.3509 -0.2453
  435loPI   C4A 6954   7.804   6.172   8.396 -0.3025  0.0440  0.1133
  435loPI   C5A 6955   7.570   5.814   8.336  0.0922 -0.1114  0.1925
  435loPI   C6A 6956   7.398   5.514   7.972 -0.0229  0.0136  0.1336
  435loPI   C1B 6957   8.101   6.056   9.423 -0.1534 -0.3780 -0.2087
  435loPI   C2B 6958   8.193   5.951   9.033  0.1032  0.0001  0.1172
  435loPI   C3B 6959   8.317   5.904   8.660 -0.1439 -0.1105 -0.3100
  435loPI   C4B 6960   8.456   5.891   8.337  0.1183 -0.3363 -0.0735
  436loPI    C1 6961  17.235  10.785  10.787 -0.1123 -0.2054 -0.2566
  436loPI    C2 6962  16.913  10.649  10.981  0.0847 -0.0609  0.1836
  436loPI    C3 6963  17.270  10.652  11.162  0.2773  0.0718 -0.1879
  436loPI   PO4 6964  17.121  10.998  10.656 -0.0069 -0.1174  0.1039
  436loPI   GL1 6965  17.077  11.236  10.324 -0.1371 -0.0891  0.0556
  436loPI   GL2 6966  16.771  11.111  10.332 -0.1578 -0.1815  0.0593
  436loPI   C1A 6967  17.137  11.360   9.940  0.1806 -0.3588  0.0271
  436loPI   C2A 6968  17.168  11.465   9.447  0.0738 -0.1486  0.3005
  436loPI   C3A 6969  17.151  11.502   9.014  0.1678  0.0319 -0.0548
  436loPI   C4A 6970  17.205  11.351   8.523  0.2332  0.2079 -0.1149
  436loPI   C5A 6971  17.439  11.112   8.312  0.3239  0.1449 -0.2654
  436loPI   C6A 6972  17.605  10.845   7.923 -0.0314  0.0067 -0.0499
  436loPI   C1B 6973  16.688  11.077  10.049  0.0888  0.1312 -0.0231
  436loPI   C2B 6974  16.733  11.302   9.710 -0.3059 -0.1550  0.3195
  436loPI   C3B 6975  16.673  11.351   9.266 -0.0647 -0.3223  0.0597
  436loPI   C4B 6976  16.724  11.316   8.821 -0.0770  0.1835 -0.0942
  437loPI    C1 6977   7.278   3.113  10.493 -0.1336 -0.1414 -0.0916
  437loPI    C2 6978   7.452   3.461  10.401  0.1320 -0.2022  0.1633
  437loPI    C3 6979   7.130   3.455  10.639 -0.0626 -0.1100 -0.0928
  437loPI   PO4 6980   7.303   2.984  10.207  0.2021 -0.0822 -0.1276
  437loPI   GL1 6981   6.973   2.702   9.962 -0.0330 -0.0269 -0.2479
  437loPI   GL2 6982   6.903   2.778   9.647 -0.3081 -0.2167  0.3365
  437loPI   C1A 6983   7.231   2.431   9.895  0.0529  0.1670  0.1529
  437loPI   C2A 6984   7.354   2.488   9.492 -0.1444  0.0434  0.0101
  437loPI   C3A 6985   7.388   2.440   8.981 -0.1977  0.0143 -0.1045
  437loPI   C4A 6986   7.440   2.508   8.581  0.0266  0.0766  0.0526
  437loPI   C5A 6987   7.306   2.503   8.236  0.2488  0.2180 -0.1996
  437loPI   C6A 6988   7.340   2.227   7.836 -0.0289  0.1060 -0.2118
  437loPI   C1B 6989   6.886   2.720   9.270  0.0552 -0.1923  0.1113
  437loPI   C2B 6990   6.866   2.733   8.797 -0.1142  0.0923 -0.2303
  437loPI   C3B 6991   6.722   2.465   8.467  0.1477  0.1949 -0.0367
  437loPI   C4B 6992   6.513   2.112   8.307  0.3257 -0.1731 -0.0630
  438loPI    C1 6993   3.785  13.973  10.892 -0.0533 -0.3790  0.2400
  438loPI    C2 6994   4.174  14.061  10.917 -0.1371  0.0169  0.2121
  438loPI    C3 6995   3.945  14.076  11.244 -0.1850  0.0599  0.1768
  438loPI   PO4 6996   3.723  13.868  10.578  0.0582  0.0592  0.2891
  438loPI   GL1 6997   4.065  13.747  10.233 -0.1183  0.1707  0.2135
  438loPI   GL2 6998   4.021  14.085  10.139  0.3114  0.0339  0.0859
  438loPI   C1A 6999   3.875  13.725   9.847  0.1034  0.0120  0.1071
  438loPI   C2A 7000   3.876  13.692   9.477  0.0144 -0.1873  0.0753
  438loPI   C3A 7001   3.828  13.506   9.077  0.0784 -0.1625  0.0581
  438loPI   C4A 7002   3.803  13.405   8.608 -0.0222 -0.0230 -0.0928
  438loPI   C5A 7003   3.740  13.649   8.296 -0.1482  0.1597  0.2364
  438loPI   C6A 7004   3.737  13.946   7.954 -0.2939 -0.0289  0.0726
  438loPI   C1B 7005   3.891  14.185   9.726 -0.1688  0.1591  0.0656
  438loPI   C2B 7006   4.044  14.142   9.362  0.0431  0.0966 -0.3109
  438loPI   C3B 7007   4.110  13.893   8.947 -0.2692 -0.3462 -0.1102
  438loPI   C4B 7008   4.124  13.960   8.452 -0.2818  0.2522  0.2162
  439loPI    C1 7009   1.146  11.202  10.778  0.0689  0.0289  0.2172
  439loPI    C2 7010   0.784  11.235  10.943 -0.0907 -0.0460 -0.1102
  439loPI    C3 7011   1.100  11.403  11.121 -0.2860  0.0315  0.1717
  439loPI   PO4 7012   1.232  11.005  10.695  0.0643  0.3104 -0.1682
  439loPI   GL1 7013   1.321  10.825  10.364  0.1097 -0.1338 -0.3693
  439loPI   GL2 7014   1.145  11.069  10.187 -0.0452  0.2046  0.2972
  439loPI   C1A 7015   1.556  10.839   9.975 -0.1145 -0.0521  0.1773
  439loPI   C2A 7016   1.538  10.733   9.453  0.0684 -0.2670 -0.1886
  439loPI   C3A 7017   1.634  10.683   9.024  0.0645 -0.2075  0.3651
  439loPI   C4A 7018   1.700  10.696   8.591  0.0310 -0.1100  0.1776
  439loPI   C5A 7019   1.808  10.699   8.135  0.2103 -0.0122  0.0282
  439loPI   C6A 7020   1.426  10.623   7.944  0.3348 -0.2730 -0.1076
  439loPI   C1B 7021   1.149  11.090   9.822 -0.0049 -0.1789 -0.0612
  439loPI   C2B 7022   1.184  11.081   9.483  0.2908  0.3447  0.1276
  439loPI   C3B 7023   1.248  11.177   9.105 -0.1358  0.2185  0.0487
  439loPI   C4B 7024   1.385  11.058   8.651 -0.3677 -0.1405 -0.0087
  440loPI    C1 7025   5.337   2.377  10.949 -0.0700  0.2370 -0.1675
  440loPI    C2 7026   5.172   2.697  11.124 -0.0385  0.0750  0.1659
  440loPI    C3 7027   4.964   2.357  11.091 -0.0428  0.1022 -0.1137
  440loPI   PO4 7028   5.327   2.448  10.699 -0.0302 -0.1874  0.0361
  440loPI   GL1 7029   5.325   2.428  10.388  0.1338  0.2403 -0.1263
  440loPI   GL2 7030   4.956   2.173  10.192  0.1887  0.0135 -0.0313
  440loPI   C1A 7031   5.191   2.541   9.900  0.2082 -0.1303 -0.0743
  440loPI   C2A 7032   5.121   2.464   9.520 -0.1279 -0.1184 -0.4127
  440loPI   C3A 7033   5.053   2.427   9.094 -0.2118 -0.1310  0.1996
  440loPI   C4A 7034   5.048   2.411   8.619 -0.1699 -0.0998 -0.0550
  440loPI   C5A 7035   4.925   2.519   8.214 -0.2748  0.0412  0.0939
  440loPI   C6A 7036   4.847   2.504   7.830  0.0262  0.1199  0.1328
  440loPI   C1B 7037   4.713   2.096   9.796  0.0300  0.1116 -0.3046
  440loPI   C2B 7038   4.750   2.082   9.311 -0.0422 -0.0004  0.4230
  440loPI   C3B 7039   4.673   2.049   8.895  0.3232  0.0596 -0.3392
  440loPI   C4B 7040   4.674   2.056   8.490 -0.1739  0.1717 -0.0750
  441loPI    C1 7041   1.749   2.139  10.532 -0.1141 -0.0589  0.0429
  441loPI    C2 7042   2.098   2.090  10.721  0.0031  0.0768 -0.1346
  441loPI    C3 7043   1.946   2.457  10.675 -0.0486  0.0399 -0.2608
  441loPI   PO4 7044   1.774   2.015  10.274 -0.0373  0.1455 -0.0815
  441loPI   GL1 7045   1.793   2.201   9.851  0.0536  0.2313 -0.2181
  441loPI   GL2 7046   1.436   2.211   9.761  0.1421  0.0725 -0.1129
  441loPI   C1A 7047   1.641   2.569   9.535  0.2406  0.2684 -0.0110
  441loPI   C2A 7048   1.606   2.721   9.171 -0.0384 -0.0516  0.1646
  441loPI   C3A 7049   1.373   2.733   8.875  0.1632 -0.0045 -0.1363
  441loPI   C4A 7050   1.168   2.806   8.455 -0.1036 -0.1356  0.0263
  441loPI   C5A 7051   1.010   2.522   8.129  0.0001 -0.1655  0.0244
  441loPI   C6A 7052   1.010   2.481   7.682 -0.1807  0.3624  0.0155
  441loPI   C1B 7053   1.379   2.079   9.359 -0.0912  0.1523  0.0641
  441loPI   C2B 7054   1.325   2.318   9.093  0.2874  0.1906  0.1055
  441loPI   C3B 7055   1.290   2.334   8.535 -0.1191  0.0014 -0.0031
  441loPI   C4B 7056   1.582   2.448   8.288  0.1227  0.0185  0.0372
  442loPI    C1 7057   6.221  12.160  10.722  0.2112  0.1855 -0.1011
  442loPI    C2 7058   5.955  12.371  10.511 -0.0575  0.0222  0.0683
  442loPI    C3 7059   6.194  12.556  10.773 -0.0248  0.1652 -0.0605
  442loPI   PO4 7060   6.332  11.982  10.543  0.1146  0.2616 -0.0449
  442loPI   GL1 7061   6.250  11.941  10.142 -0.1585 -0.1668 -0.1215
  442loPI   GL2 7062   6.158  12.337  10.069  0.1723 -0.3543  0.0413
  442loPI   C1A 7063   6.106  11.946   9.751  0.0477  0.0535  0.0506
  442loPI   C2A 7064   6.141  11.948   9.376  0.1804  0.0476 -0.0499
  442loPI   C3A 7065   6.134  12.085   8.987  0.0071 -0.0997  0.1172
  442loPI   C4A 7066   6.159  12.156   8.553 -0.0924 -0.2591  0.0031
  442loPI   C5A 7067   6.270  12.372   8.146 -0.1625 -0.0871  0.4951
  442loPI   C6A 7068   6.325  12.757   7.851  0.0233 -0.2791 -0.0012
  442loPI   C1B 7069   6.079  12.463   9.678 -0.2514  0.1458  0.0184
  442loPI   C2B 7070   6.120  12.535   9.341  0.1979  0.0671 -0.0535
  442loPI   C3B 7071   6.128  12.539   8.884 -0.1592 -0.3497  0.3438
  442loPI   C4B 7072   6.175  12.758   8.500 -0.1705  0.2277 -0.1894
  443loPI    C1 7073  10.720   6.906  10.585 -0.1061  0.1817  0.0560
  443loPI    C2 7074  10.704   6.728  10.943 -0.1349  0.0116 -0.0294
  443loPI    C3 7075  10.857   7.095  10.910  0.1738 -0.1019  0.1074
  443loPI   PO4 7076  10.831   6.712  10.440 -0.1229 -0.1139 -0.0323
  443loPI   GL1 7077  11.021   6.652  10.044  0.4908 -0.0031 -0.1789
  443loPI   GL2 7078  10.864   7.018   9.971 -0.0191  0.0017  0.0711
  443loPI   C1A 7079  11.238   6.675   9.710  0.0153 -0.0437  0.4353
  443loPI   C2A 7080  11.306   6.730   9.358 -0.1136 -0.0353 -0.0813
  443loPI   C3A 7081  11.248   6.628   8.997  0.2443  0.3877 -0.0301
  443loPI   C4A 7082  11.313   6.526   8.575 -0.0655  0.0409  0.1136
  443loPI   C5A 7083  11.461   6.250   8.212 -0.0532  0.2078  0.2398
  443loPI   C6A 7084  11.786   5.882   8.268  0.1587  0.2559  0.1848
  443loPI   C1B 7085  10.897   6.993   9.507 -0.1209 -0.2040 -0.1267
  443loPI   C2B 7086  10.901   7.044   9.031  0.2058  0.2168 -0.0911
  443loPI   C3B 7087  10.894   7.043   8.579  0.2412 -0.1049 -0.4717
  443loPI   C4B 7088  11.216   6.949   8.282  0.1312  0.2140 -0.1109
  444loPI    C1 7089   2.270  11.316  10.831 -0.1533 -0.1578 -0.1851
  444loPI    C2 7090   2.213  10.942  10.960 -0.1060 -0.0884  0.0425
  444loPI    C3 7091   2.260  11.239  11.224  0.4374 -0.0092 -0.1314
  444loPI   PO4 7092   2.100  11.377  10.613  0.0296  0.2349 -0.1690
  444loPI   GL1 7093   2.161  11.423  10.264  0.0605  0.1091 -0.2088
  444loPI   GL2 7094   2.047  11.010  10.188 -0.0253 -0.1180 -0.0450
  444loPI   C1A 7095   2.236  11.453   9.775 -0.0319 -0.0877 -0.0739
  444loPI   C2A 7096   2.418  11.310   9.382  0.1230  0.0999 -0.1186
  444loPI   C3A 7097   2.427  11.323   8.976 -0.0705 -0.1816  0.0354
  444loPI   C4A 7098   2.359  11.469   8.573  0.1258  0.0756  0.1872
  444loPI   C5A 7099   2.358  11.206   8.250  0.0503 -0.0578  0.0776
  444loPI   C6A 7100   2.098  11.217   7.907 -0.1056  0.1961 -0.1219
  444loPI   C1B 7101   2.058  10.991   9.717  0.1904  0.0597 -0.0746
  444loPI   C2B 7102   2.219  10.760   9.366 -0.2455 -0.1885 -0.0190
  444loPI   C3B 7103   2.197  10.708   8.950  0.1368 -0.1279  0.0215
  444loPI   C4B 7104   2.380  10.848   8.688  0.0842 -0.0555 -0.2474
  445loPI    C1 7105   6.508  16.405  11.034 -0.1560 -0.0401 -0.1421
  445loPI    C2 7106   6.463  16.047  11.205  0.0105  0.0515  0.0995
  445loPI    C3 7107   6.717  16.312  11.362 -0.3186  0.3810  0.0880
  445loPI   PO4 7108   6.567  16.353  10.694  0.2628  0.0558 -0.1741
  445loPI   GL1 7109   6.631  16.431  10.294 -0.0718  0.0918  0.2314
  445loPI   GL2 7110   6.330  16.463  10.230  0.1927  0.0514  0.1873
  445loPI   C1A 7111   6.694  16.351   9.905 -0.2571  0.1682 -0.1566
  445loPI   C2A 7112   6.641  16.413   9.452 -0.1927  0.3160 -0.1925
  445loPI   C3A 7113   6.512  16.345   9.022 -0.0114 -0.0580 -0.1933
  445loPI   C4A 7114   6.707  16.372   8.597  0.1112  0.2549  0.2096
  445loPI   C5A 7115   6.778  16.193   8.249  0.3111  0.2482  0.1798
  445loPI   C6A 7116   6.640  16.025   7.945  0.1377 -0.0842  0.1504
  445loPI   C1B 7117   6.204  16.248   9.797  0.2362  0.0084 -0.1514
  445loPI   C2B 7118   6.222  16.058   9.491  0.1891 -0.1257 -0.1863
  445loPI   C3B 7119   6.083  15.962   9.064  0.0175  0.1300 -0.2203
  445loPI   C4B 7120   6.152  16.120   8.659  0.0237  0.1503 -0.2355
  446loPI    C1 7121   1.996  14.028  11.180 -0.0977 -0.0588 -0.0705
  446loPI    C2 7122   1.892  14.227  11.511 -0.0941  0.1010 -0.1643
  446loPI    C3 7123   1.795  13.841  11.471  0.0329  0.0406  0.0858
  446loPI   PO4 7124   2.004  14.280  10.993  0.2016 -0.0578  0.0048
  446loPI   GL1 7125   2.122  14.350  10.439 -0.1423  0.0248  0.0413
  446loPI   GL2 7126   1.842  14.237  10.260 -0.0417  0.1478 -0.1102
  446loPI   C1A 7127   2.201  14.416  10.020 -0.1211 -0.2880 -0.1707
  446loPI   C2A 7128   2.228  14.469   9.589  0.1641  0.1209  0.1441
  446loPI   C3A 7129   2.237  14.530   9.280 -0.0742  0.0698 -0.2907
  446loPI   C4A 7130   2.389  14.509   8.870  0.1606  0.3985 -0.1561
  446loPI   C5A 7131   2.428  14.537   8.474 -0.1468  0.1184  0.1003
  446loPI   C6A 7132   2.222  14.386   8.064 -0.2834  0.1317  0.0798
  446loPI   C1B 7133   1.733  14.300   9.843 -0.1918  0.0016 -0.0066
  446loPI   C2B 7134   1.741  14.339   9.417  0.2802 -0.1283 -0.0214
  446loPI   C3B 7135   1.741  14.357   9.068 -0.2218 -0.0425  0.2328
  446loPI   C4B 7136   1.734  14.407   8.622  0.0438  0.1813 -0.0920
  447loPI    C1 7137  17.926  17.579  10.933  0.1203  0.3037 -0.0074
  447loPI    C2 7138  17.735  17.887  11.101 -0.3641 -0.0197  0.0522
  447loPI    C3 7139  17.568  17.523  11.102  0.0797 -0.2323 -0.2501
  447loPI   PO4 7140  17.942  17.613  10.726 -0.2274 -0.3801 -0.1501
  447loPI   GL1 7141  18.110  17.478  10.414  0.0212 -0.0010  0.0541
  447loPI   GL2 7142  18.270  17.281  10.186 -0.1420  0.1536 -0.2836
  447loPI   C1A 7143  17.933  17.716  10.040 -0.1317 -0.0898  0.2141
  447loPI   C2A 7144  17.933  17.944   9.682  0.0429 -0.0383 -0.0131
  447loPI   C3A 7145  17.922  18.028   9.277 -0.1493 -0.2908 -0.2304
  447loPI   C4A 7146  17.867  18.132   8.878  0.3789 -0.1185  0.3508
  447loPI   C5A 7147  17.989  18.173   8.492  0.3761 -0.1233  0.2661
  447loPI   C6A 7148  17.684  17.957   8.137 -0.0822 -0.2676 -0.1987
  447loPI   C1B 7149  18.216  17.052   9.781 -0.0611  0.4345  0.0240
  447loPI   C2B 7150  17.959  17.070   9.463 -0.1539  0.0945  0.2626
  447loPI   C3B 7151  17.568  17.139   9.160  0.0231  0.0854 -0.0275
  447loPI   C4B 7152  17.474  17.150   8.737 -0.2156  0.1320  0.0834
  448loPI    C1 7153  12.166   3.107  11.119  0.1506 -0.1965  0.0291
  448loPI    C2 7154  11.962   3.151  11.460 -0.1211 -0.1796 -0.1323
  448loPI    C3 7155  12.361   3.130  11.467 -0.0949  0.2720  0.1439
  448loPI   PO4 7156  11.877   2.976  10.976 -0.0485 -0.0352  0.0270
  448loPI   GL1 7157  11.797   2.846  10.478 -0.0534 -0.0061  0.0244
  448loPI   GL2 7158  12.114   2.678  10.594  0.0024  0.0176 -0.1873
  448loPI   C1A 7159  11.888   2.688  10.038 -0.1030  0.0515 -0.0782
  448loPI   C2A 7160  11.856   2.626   9.580  0.1192  0.0113 -0.0957
  448loPI   C3A 7161  11.877   2.792   9.130  0.1518  0.3322  0.0041
  448loPI   C4A 7162  11.954   2.852   8.756 -0.2622  0.1965  0.0191
  448loPI   C5A 7163  12.339   3.018   8.531  0.0909 -0.1043  0.1977
  448loPI   C6A 7164  12.335   3.200   8.069  0.0357 -0.2299 -0.2911
  448loPI   C1B 7165  12.328   2.898  10.250  0.0240 -0.1479 -0.2092
  448loPI   C2B 7166  12.250   2.951   9.788 -0.1605  0.1401 -0.1275
  448loPI   C3B 7167  12.144   3.075   9.433 -0.1409  0.3052  0.3267
  448loPI   C4B 7168  12.254   3.072   9.084 -0.0293  0.4612  0.0218
  449loPI    C1 7169  14.574   3.663  11.052  0.1225 -0.1431  0.3225
  449loPI    C2 7170  14.295   3.766  11.319 -0.0456 -0.0985  0.1322
  449loPI    C3 7171  14.408   4.027  11.038  0.0108 -0.2017  0.0585
  449loPI   PO4 7172  14.519   3.482  10.805  0.1276  0.2026 -0.1518
  449loPI   GL1 7173  14.618   3.333  10.427 -0.0262 -0.2793  0.0228
  449loPI   GL2 7174  14.669   3.623  10.312 -0.0662 -0.3812 -0.0736
  449loPI   C1A 7175  14.426   3.318  10.063 -0.1702  0.2379  0.5247
  449loPI   C2A 7176  14.546   3.387   9.568 -0.0002  0.1694 -0.1526
  449loPI   C3A 7177  14.464   3.344   9.147 -0.2193  0.1358 -0.0249
  449loPI   C4A 7178  14.325   3.221   8.827 -0.2061  0.0600 -0.1554
  449loPI   C5A 7179  14.187   3.118   8.423 -0.0388  0.0709 -0.0201
  449loPI   C6A 7180  13.995   2.889   8.134 -0.0916  0.2365  0.0883
  449loPI   C1B 7181  14.680   3.727   9.889 -0.0723  0.0424 -0.4724
  449loPI   C2B 7182  14.735   3.790   9.409 -0.0272  0.0027 -0.0565
  449loPI   C3B 7183  14.598   3.893   9.028  0.0881  0.0747 -0.1710
  449loPI   C4B 7184  14.550   3.680   8.684 -0.3918  0.4056 -0.1240
  450loPI    C1 7185  16.497   1.866  10.768  0.0402  0.1582  0.1493
  450loPI    C2 7186  16.290   1.527  10.813  0.0992  0.0595 -0.2789
  450loPI    C3 7187  16.611   1.597  11.041 -0.0435 -0.0673 -0.0346
  450loPI   PO4 7188  16.547   1.917  10.541 -0.0222 -0.3522 -0.1295
  450loPI   GL1 7189  16.864   2.009  10.358  0.0780 -0.0655  0.2519
  450loPI   GL2 7190  16.778   1.936  10.033 -0.0255 -0.0387  0.0118
  450loPI   C1A 7191  17.027   2.398  10.108  0.3649 -0.2568 -0.4985
  450loPI   C2A 7192  16.983   2.384   9.637  0.0146  0.0556  0.2072
  450loPI   C3A 7193  16.847   2.461   9.185 -0.0506 -0.1924 -0.0168
  450loPI   C4A 7194  16.613   2.541   8.782 -0.0470 -0.0409 -0.0124
  450loPI   C5A 7195  16.504   2.609   8.314 -0.0724 -0.1006  0.1186
  450loPI   C6A 7196  16.269   2.691   7.955  0.1398  0.0495 -0.0838
  450loPI   C1B 7197  16.786   1.886   9.579  0.3416  0.0163  0.1006
  450loPI   C2B 7198  16.813   1.780   9.143  0.1274  0.2052 -0.1840
  450loPI   C3B 7199  16.617   1.836   8.688 -0.3886 -0.0491  0.4755
  450loPI   C4B 7200  16.319   1.896   8.270 -0.0062  0.1185  0.0968
  451loPI    C1 7201  15.260   5.343  10.934 -0.2167 -0.0837  0.1142
  451loPI    C2 7202  15.544   5.111  11.093 -0.0535 -0.0454 -0.1163
  451loPI    C3 7203  15.308   5.329  11.331  0.2481  0.0844  0.0705
  451loPI   PO4 7204  15.423   5.403  10.649  0.2247 -0.0692  0.1170
  451loPI   GL1 7205  15.575   5.674  10.240  0.1622 -0.2125 -0.3509
  451loPI   GL2 7206  15.679   5.898  10.183  0.1419 -0.0137  0.2039
  451loPI   C1A 7207  15.593   5.434   9.842  0.0095 -0.1133  0.0114
  451loPI   C2A 7208  15.509   5.404   9.391  0.0290 -0.0903 -0.0196
  451loPI   C3A 7209  15.564   5.456   9.017  0.1034 -0.0374 -0.1413
  451loPI   C4A 7210  15.580   5.527   8.577 -0.0104 -0.0510  0.1990
  451loPI   C5A 7211  15.432   5.367   8.249 -0.2169 -0.0054  0.0521
  451loPI   C6A 7212  15.233   5.073   7.994  0.1565 -0.3704  0.0823
  451loPI   C1B 7213  15.659   5.905   9.742 -0.0319  0.1404 -0.3090
  451loPI   C2B 7214  15.712   5.931   9.270 -0.1510 -0.2093 -0.0423
  451loPI   C3B 7215  15.734   5.957   8.868 -0.0179 -0.2221  0.0396
  451loPI   C4B 7216  15.813   5.939   8.438 -0.2918  0.0022 -0.1975
  452loPI    C1 7217   4.322  15.567  10.315 -0.3181 -0.1944  0.0147
  452loPI    C2 7218   4.219  15.378  10.652 -0.0630  0.0365  0.2270
  452loPI    C3 7219   4.385  15.741  10.669  0.2874 -0.0995 -0.1282
  452loPI   PO4 7220   4.431  15.463  10.156  0.1602 -0.0686 -0.1588
  452loPI   GL1 7221   4.864  15.279  10.009  0.0669  0.1548 -0.1825
  452loPI   GL2 7222   5.163  15.268  10.191  0.0973 -0.0374  0.0451
  452loPI   C1A 7223   4.926  15.098   9.638 -0.0567 -0.1487 -0.2160
  452loPI   C2A 7224   4.938  15.175   9.162 -0.0957  0.0144 -0.0285
  452loPI   C3A 7225   4.875  15.204   8.762  0.0094 -0.2557  0.1556
  452loPI   C4A 7226   4.796  15.281   8.340 -0.0191 -0.1682 -0.2433
  452loPI   C5A 7227   4.812  15.048   7.923  0.2044 -0.0433 -0.0438
  452loPI   C6A 7228   4.563  14.932   7.622  0.0489 -0.0433  0.1275
  452loPI   C1B 7229   5.301  15.449   9.778 -0.1439  0.3130  0.2324
  452loPI   C2B 7230   5.305  15.465   9.447 -0.0931  0.2979  0.2058
  452loPI   C3B 7231   5.355  15.426   8.982  0.0570 -0.0521  0.0227
  452loPI   C4B 7232   5.333  15.497   8.597 -0.2070 -0.1045 -0.2826
  453loPI    C1 7233   6.283  13.030  10.352  0.1339 -0.0384 -0.0364
  453loPI    C2 7234   6.500  12.920  10.670  0.0924 -0.2111 -0.0669
  453loPI    C3 7235   6.674  13.112  10.365  0.1067  0.0731  0.1164
  453loPI   PO4 7236   6.138  12.815  10.351 -0.1931 -0.1340 -0.2087
  453loPI   GL1 7237   5.922  12.822   9.918  0.2430 -0.0198 -0.1426
  453loPI   GL2 7238   5.973  13.206  10.004 -0.0431 -0.0193 -0.2161
  453loPI   C1A 7239   5.974  12.975   9.491 -0.1332  0.2604 -0.1974
  453loPI   C2A 7240   6.028  13.020   9.116 -0.0709  0.1023 -0.0349
  453loPI   C3A 7241   6.000  13.226   8.732  0.2081 -0.3849 -0.0803
  453loPI   C4A 7242   6.124  13.322   8.295  0.1347  0.1240 -0.2288
  453loPI   C5A 7243   6.261  13.230   7.931 -0.0022  0.1732 -0.2089
  453loPI   C6A 7244   6.026  13.128   7.590 -0.0496 -0.0046 -0.2899
  453loPI   C1B 7245   5.938  13.568   9.727 -0.3680  0.1023  0.0313
  453loPI   C2B 7246   5.819  13.651   9.353  0.1444  0.1085 -0.1370
  453loPI   C3B 7247   5.895  13.709   8.900 -0.1098  0.1984  0.0194
  453loPI   C4B 7248   6.089  13.734   8.536 -0.1515  0.1386  0.2952
  454loPI    C1 7249   2.594  14.605  10.977 -0.2284 -0.2048  0.2741
  454loPI    C2 7250   2.922  14.802  11.093 -0.0571 -0.3941  0.1176
  454loPI    C3 7251   2.562  14.924  11.216  0.0566 -0.0727  0.1406
  454loPI   PO4 7252   2.634  14.577  10.629  0.1620 -0.0298  0.0447
  454loPI   GL1 7253   2.735  14.512  10.229 -0.1579  0.2384  0.2873
  454loPI   GL2 7254   3.001  14.423  10.206 -0.3445  0.1051  0.1580
  454loPI   C1A 7255   2.634  14.514   9.837  0.0003  0.0259 -0.3342
  454loPI   C2A 7256   2.727  14.585   9.458  0.0276 -0.0466 -0.5533
  454loPI   C3A 7257   2.815  14.604   9.078 -0.2196 -0.1727 -0.0043
  454loPI   C4A 7258   2.974  14.635   8.693 -0.0487  0.0755 -0.0059
  454loPI   C5A 7259   2.838  14.680   8.232  0.0226 -0.0954  0.1047
  454loPI   C6A 7260   2.596  14.600   7.917 -0.3945 -0.1267 -0.0559
  454loPI   C1B 7261   3.036  14.218   9.847 -0.0200 -0.1093 -0.0613
  454loPI   C2B 7262   3.074  14.231   9.362  0.1680  0.3733 -0.0532
  454loPI   C3B 7263   3.123  14.222   8.961  0.1165 -0.1191  0.2426
  454loPI   C4B 7264   3.260  14.229   8.555 -0.2338 -0.0594  0.2455
  455loPI    C1 7265   2.147   6.209  10.995  0.0244 -0.1355 -0.0034
  455loPI    C2 7266   2.364   5.885  11.084  0.0083 -0.1440  0.0050
  455loPI    C3 7267   2.015   5.950  11.269 -0.0325 -0.1695 -0.0628
  455loPI   PO4 7268   2.135   6.284  10.688 -0.0096  0.1831  0.2857
  455loPI   GL1 7269   2.209   6.273  10.276 -0.2311 -0.2392  0.1244
  455loPI   GL2 7270   1.916   6.357  10.253  0.0088 -0.3596 -0.0948
  455loPI   C1A 7271   2.075   6.646   9.884 -0.2897  0.1203 -0.1552
  455loPI   C2A 7272   2.059   6.574   9.520  0.0221  0.1936  0.1125
  455loPI   C3A 7273   2.131   6.574   9.011 -0.0096  0.1300 -0.2895
  455loPI   C4A 7274   2.035   6.664   8.612  0.4183  0.0902  0.1673
  455loPI   C5A 7275   1.933   6.714   8.220 -0.0095  0.0496 -0.0352
  455loPI   C6A 7276   1.701   6.494   7.976  0.1181  0.4032  0.0478
  455loPI   C1B 7277   1.753   6.217   9.971 -0.0878  0.0187 -0.0672
  455loPI   C2B 7278   1.660   6.239   9.572 -0.1569 -0.1036 -0.1973
  455loPI   C3B 7279   1.737   6.168   9.130 -0.0489  0.1160  0.2532
  455loPI   C4B 7280   1.807   5.831   8.879  0.1611 -0.0165 -0.0673
  456loPI    C1 7281   3.181   8.752  10.852 -0.1099 -0.0709 -0.1112
  456loPI    C2 7282   3.507   8.593  11.020 -0.0949  0.1757  0.0996
  456loPI    C3 7283   3.148   8.532  11.185 -0.1369  0.0455 -0.0366
  456loPI   PO4 7284   3.232   8.706  10.546  0.0639 -0.0734  0.1745
  456loPI   GL1 7285   3.201   8.943  10.104  0.1998  0.0909 -0.1934
  456loPI   GL2 7286   2.840   8.738  10.119 -0.0952 -0.1093  0.0718
  456loPI   C1A 7287   3.258   8.628   9.903  0.0967 -0.0375 -0.1068
  456loPI   C2A 7288   3.655   8.734   9.689 -0.1797  0.1828 -0.2500
  456loPI   C3A 7289   3.652   8.948   9.332  0.0682  0.0626 -0.5027
  456loPI   C4A 7290   3.481   9.044   8.968 -0.1095  0.0081  0.1116
  456loPI   C5A 7291   3.478   9.390   8.780  0.1304 -0.0203 -0.3943
  456loPI   C6A 7292   3.126   9.698   8.673  0.0359  0.0296 -0.0769
  456loPI   C1B 7293   2.840   8.743   9.668 -0.1243 -0.0125  0.4852
  456loPI   C2B 7294   2.819   8.649   9.179  0.1462 -0.1809 -0.0986
  456loPI   C3B 7295   3.053   8.839   8.878  0.3427 -0.4301 -0.2514
  456loPI   C4B 7296   2.992   9.221   8.557 -0.1349 -0.2801 -0.1810
  457loPI    C1 7297   6.453   6.331  10.644  0.2881 -0.1081 -0.0308
  457loPI    C2 7298   6.354   6.334  11.031 -0.0083  0.2998 -0.1032
  457loPI    C3 7299   6.651   6.100  10.903 -0.2580 -0.2475  0.2789
  457loPI   PO4 7300   6.153   6.395  10.573  0.0644 -0.0057  0.1400
  457loPI   GL1 7301   6.015   6.538  10.157 -0.1039 -0.0804  0.1033
  457loPI   GL2 7302   5.889   6.225  10.047  0.0720  0.1564 -0.0079
  457loPI   C1A 7303   6.035   6.949   9.853  0.0492 -0.2275 -0.1302
  457loPI   C2A 7304   6.286   7.118   9.620  0.1582 -0.0266 -0.3689
  457loPI   C3A 7305   6.479   7.125   9.262 -0.0434  0.0647 -0.0626
  457loPI   C4A 7306   6.626   6.949   8.890  0.0480 -0.3406 -0.2171
  457loPI   C5A 7307   6.791   7.034   8.489  0.1515  0.1495 -0.1070
  457loPI   C6A 7308   6.998   7.107   8.180  0.0367 -0.1138 -0.2039
  457loPI   C1B 7309   5.879   6.292   9.586 -0.0957  0.2248 -0.0243
  457loPI   C2B 7310   5.593   6.639   9.454 -0.1588 -0.1288  0.1261
  457loPI   C3B 7311   5.440   6.877   9.064  0.1430  0.1303  0.0616
  457loPI   C4B 7312   5.309   7.141   8.759 -0.0007 -0.1094 -0.1561
  458loPI    C1 7313  15.448   9.974  11.001 -0.0004 -0.0387  0.0640
  458loPI    C2 7314  15.220   9.667  10.883  0.0978 -0.1314  0.1131
  458loPI    C3 7315  15.109   9.890  11.196  0.0453 -0.1397  0.1005
  458loPI   PO4 7316  15.536  10.065  10.811 -0.5702 -0.0396  0.2863
  458loPI   GL1 7317  15.412  10.034  10.384 -0.0833 -0.0571 -0.0448
  458loPI   GL2 7318  15.510   9.716  10.358 -0.0834  0.2383  0.0077
  458loPI   C1A 7319  15.507   9.992   9.985  0.1517 -0.0288 -0.1207
  458loPI   C2A 7320  15.531  10.121   9.595  0.5344  0.3299 -0.0150
  458loPI   C3A 7321  15.450  10.061   9.185 -0.0191  0.0183  0.0915
  458loPI   C4A 7322  15.427  10.050   8.682 -0.0799  0.2076 -0.3134
  458loPI   C5A 7323  15.203  10.075   8.209  0.0039 -0.1444 -0.0271
  458loPI   C6A 7324  15.117  10.009   7.815  0.2312  0.2427  0.3830
  458loPI   C1B 7325  15.382   9.463   9.933  0.1086  0.0136 -0.0441
  458loPI   C2B 7326  15.387   9.533   9.651  0.0808  0.0329 -0.0937
  458loPI   C3B 7327  15.356   9.568   9.247 -0.1075 -0.1416  0.1869
  458loPI   C4B 7328  15.356   9.616   8.889 -0.1868  0.0227  0.0412
  459loPI    C1 7329  16.978  15.457  11.144 -0.3094  0.1144 -0.0725
  459loPI    C2 7330  16.604  15.563  11.241 -0.2158  0.1580  0.2551
  459loPI    C3 7331  16.880  15.517  11.528  0.0737  0.2869  0.0036
  459loPI   PO4 7332  16.974  15.338  10.987 -0.2287 -0.0124  0.0128
  459loPI   GL1 7333  16.591  15.274  10.731 -0.2578 -0.1240 -0.1214
  459loPI   GL2 7334  16.802  15.086  10.536 -0.0057 -0.2308  0.1595
  459loPI   C1A 7335  16.356  15.191  10.380  0.0317  0.1349  0.0089
  459loPI   C2A 7336  16.158  14.871  10.188 -0.2187  0.0452 -0.0277
  459loPI   C3A 7337  15.959  14.882   9.883  0.0501  0.2184  0.1671
  459loPI   C4A 7338  15.887  14.935   9.466 -0.1845  0.1481 -0.1446
  459loPI   C5A 7339  15.916  14.912   9.003  0.0826  0.0047 -0.0814
  459loPI   C6A 7340  15.696  14.852   8.603 -0.1543 -0.1831 -0.0620
  459loPI   C1B 7341  17.093  14.972  10.186 -0.1718 -0.2644 -0.0773
  459loPI   C2B 7342  17.264  14.737   9.822 -0.0007 -0.0491 -0.0946
  459loPI   C3B 7343  17.230  14.645   9.440 -0.1440 -0.2286  0.1083
  459loPI   C4B 7344  17.193  14.604   9.028  0.0501  0.1183  0.0182
  460loPI    C1 7345   4.442  14.371  10.630 -0.1245 -0.1001  0.1122
  460loPI    C2 7346   4.667  14.686  10.730 -0.0150 -0.1217 -0.0616
  460loPI    C3 7347   4.328  14.611  10.929  0.0316  0.0226  0.0745
  460loPI   PO4 7348   4.352  14.403  10.318 -0.1377  0.0155  0.0390
  460loPI   GL1 7349   4.135  14.528   9.945  0.2644 -0.1487 -0.0881
  460loPI   GL2 7350   3.890  14.614  10.152  0.2287  0.1502  0.0084
  460loPI   C1A 7351   4.121  14.590   9.582 -0.2900 -0.4411 -0.1840
  460loPI   C2A 7352   4.010  14.843   9.356  0.1680 -0.1388  0.1293
  460loPI   C3A 7353   4.035  14.924   8.981 -0.1507 -0.2075  0.1512
  460loPI   C4A 7354   3.853  15.141   8.592  0.0056 -0.2011 -0.0869
  460loPI   C5A 7355   3.859  15.384   8.256  0.2173 -0.2042 -0.1055
  460loPI   C6A 7356   3.809  15.381   7.814  0.1531 -0.4126 -0.0752
  460loPI   C1B 7357   3.749  14.874   9.782  0.1463  0.0134  0.0756
  460loPI   C2B 7358   3.481  14.891   9.404 -0.2158  0.2284 -0.1184
  460loPI   C3B 7359   3.545  14.804   8.955  0.3483  0.1821 -0.1744
  460loPI   C4B 7360   3.415  14.765   8.512 -0.0667  0.2151  0.0375
  461loPI    C1 7361   8.101   9.341  11.534 -0.1812 -0.2575  0.0273
  461loPI    C2 7362   8.387   9.303  11.812  0.1094  0.0129 -0.2255
  461loPI    C3 7363   8.154   9.628  11.808 -0.0951 -0.1301 -0.1207
  461loPI   PO4 7364   8.236   9.291  11.292  0.4444 -0.1235  0.1923
  461loPI   GL1 7365   8.208   9.258  10.924  0.0519 -0.5301  0.3573
  461loPI   GL2 7366   8.120   9.082  10.675  0.0665  0.2203  0.1426
  461loPI   C1A 7367   8.630   9.215  10.610  0.0261  0.0466 -0.2665
  461loPI   C2A 7368   8.720   9.300  10.178 -0.1772  0.0148  0.0071
  461loPI   C3A 7369   8.882   9.713  10.007 -0.0265 -0.3795  0.1467
  461loPI   C4A 7370   8.984   9.797   9.555 -0.2211  0.2827  0.2125
  461loPI   C5A 7371   9.068   9.802   9.134  0.1686  0.3293  0.1659
  461loPI   C6A 7372   9.159   9.837   8.655 -0.1067  0.0759  0.0765
  461loPI   C1B 7373   8.164   9.109  10.199  0.1422 -0.2208 -0.0470
  461loPI   C2B 7374   8.203   9.127   9.719 -0.1481 -0.3568 -0.0390
  461loPI   C3B 7375   8.194   9.185   9.289 -0.0566 -0.0412  0.4050
  461loPI   C4B 7376   8.364   9.262   8.922 -0.1709 -0.0379  0.0282
  462loPI    C1 7377   0.589   6.339  11.209  0.1325  0.0479 -0.0243
  462loPI    C2 7378   0.512   6.488  11.573  0.1411 -0.0825  0.0314
  462loPI    C3 7379   0.887   6.481  11.435  0.1632 -0.2005  0.0956
  462loPI   PO4 7380   0.330   6.211  11.145  0.0271  0.1345 -0.0937
  462loPI   GL1 7381   0.200   6.333  10.722  0.2882  0.2616  0.2054
  462loPI   GL2 7382   0.264   6.537  10.515  0.1321 -0.0855 -0.1939
  462loPI   C1A 7383   0.364   5.998  10.322  0.0056  0.2326  0.1060
  462loPI   C2A 7384   0.357   6.005   9.918 -0.2392  0.2860  0.1845
  462loPI   C3A 7385   0.383   6.104   9.470  0.0604 -0.0252  0.4427
  462loPI   C4A 7386   0.325   6.167   9.079 -0.1297 -0.2801 -0.2020
  462loPI   C5A 7387   0.317   6.238   8.592  0.1767 -0.0763 -0.0575
  462loPI   C6A 7388   0.715   6.279   8.306 -0.1356  0.0498  0.4663
  462loPI   C1B 7389   0.211   6.700  10.079 -0.2669  0.0468  0.2640
  462loPI   C2B 7390   0.097   7.100   9.913 -0.2721 -0.0314  0.1995
  462loPI   C3B 7391  -0.150   7.395   9.718  0.1378  0.2972  0.2565
  462loPI   C4B 7392  -0.252   7.411   9.334  0.0986  0.1922  0.2482
  463loPI    C1 7393  13.543  13.803  10.755  0.2863  0.1293  0.1564
  463loPI    C2 7394  13.622  14.141  10.556  0.1421  0.0832  0.0183
  463loPI    C3 7395  13.405  14.152  10.892 -0.1137  0.0974 -0.1445
  463loPI   PO4 7396  13.406  13.548  10.598  0.1382  0.0618  0.0607
  463loPI   GL1 7397  13.600  13.194  10.248 -0.0958  0.0831 -0.1449
  463loPI   GL2 7398  13.637  12.874  10.267  0.1258  0.2427  0.0370
  463loPI   C1A 7399  13.392  13.345   9.903 -0.2285  0.2840 -0.2727
  463loPI   C2A 7400  13.217  13.191   9.505  0.0173 -0.0751 -0.3418
  463loPI   C3A 7401  13.226  13.296   9.053 -0.1761 -0.0956 -0.3513
  463loPI   C4A 7402  13.063  13.125   8.717  0.0059 -0.0549 -0.0562
  463loPI   C5A 7403  12.807  13.183   8.328  0.1695 -0.3568  0.0388
  463loPI   C6A 7404  12.574  13.272   8.071 -0.0330  0.1559 -0.2338
  463loPI   C1B 7405  13.449  12.836   9.794 -0.1603 -0.1610  0.1743
  463loPI   C2B 7406  13.497  12.828   9.255 -0.0726  0.0581 -0.1263
  463loPI   C3B 7407  13.647  13.084   8.876 -0.2390  0.1474 -0.1863
  463loPI   C4B 7408  13.813  13.163   8.515 -0.0626  0.2150  0.0908
  464loPI    C1 7409   7.654   9.300  11.253  0.1087 -0.3422  0.0026
  464loPI    C2 7410   7.887   9.599  11.127  0.1938 -0.3038  0.2462
  464loPI    C3 7411   7.692   9.630  11.475 -0.0712 -0.3907  0.1082
  464loPI   PO4 7412   7.620   9.209  11.044 -0.1160  0.2594  0.0404
  464loPI   GL1 7413   7.649   9.326  10.668 -0.3227  0.0289  0.2850
  464loPI   GL2 7414   7.863   9.552  10.647  0.0177 -0.0354 -0.1907
  464loPI   C1A 7415   7.657   9.104  10.204  0.0412 -0.2049 -0.0278
  464loPI   C2A 7416   7.691   9.060   9.761 -0.1564 -0.1202 -0.0994
  464loPI   C3A 7417   7.647   9.041   9.360  0.0005 -0.0332  0.2808
  464loPI   C4A 7418   7.784   9.105   8.965 -0.0320 -0.2077  0.0327
  464loPI   C5A 7419   8.002   9.145   8.556  0.0289  0.0175 -0.1839
  464loPI   C6A 7420   8.325   9.328   8.381 -0.1146 -0.1812  0.2640
  464loPI   C1B 7421   7.831   9.573  10.238 -0.2322 -0.0834  0.0636
  464loPI   C2B 7422   7.922   9.528   9.825 -0.2344 -0.0371 -0.1448
  464loPI   C3B 7423   7.853   9.507   9.456 -0.0037 -0.0698  0.0791
  464loPI   C4B 7424   7.934   9.588   9.033  0.2082 -0.0393  0.2592
  465loPI    C1 7425   3.405   6.679  11.068 -0.1974  0.2016  0.0092
  465loPI    C2 7426   3.274   6.831  11.414 -0.0526 -0.2488  0.2700
  465loPI    C3 7427   3.012   6.708  11.137 -0.1695 -0.0055  0.2703
  465loPI   PO4 7428   3.513   6.858  10.836  0.2285  0.4160  0.2804
  465loPI   GL1 7429   3.562   6.851  10.431  0.1114 -0.2840  0.0760
  465loPI   GL2 7430   3.811   6.664  10.453 -0.0190 -0.0246 -0.0159
  465loPI   C1A 7431   3.405   6.700  10.056 -0.2491  0.3334  0.1338
  465loPI   C2A 7432   3.393   6.827   9.609 -0.0353 -0.0564 -0.0389
  465loPI   C3A 7433   3.408   6.797   9.236  0.0263 -0.0750  0.0794
  465loPI   C4A 7434   3.398   6.844   8.913 -0.1305 -0.0708 -0.1656
  465loPI   C5A 7435   3.383   6.787   8.454  0.1168  0.1117  0.2313
  465loPI   C6A 7436   3.309   6.720   7.995  0.2036 -0.4370  0.1800
  465loPI   C1B 7437   3.895   6.604   9.949  0.0524 -0.2521 -0.0307
  465loPI   C2B 7438   3.879   6.740   9.509  0.0497 -0.0156  0.1114
  465loPI   C3B 7439   3.922   6.772   9.186 -0.1280 -0.1070  0.1230
  465loPI   C4B 7440   3.865   6.807   8.724  0.2333  0.4232 -0.2695
  466loPI    C1 7441   9.256   7.406  10.724 -0.2440  0.0347  0.0372
  466loPI    C2 7442   9.234   7.231  11.084 -0.0759 -0.1685 -0.0487
  466loPI    C3 7443   8.948   7.167  10.812 -0.2221  0.0146  0.0598
  466loPI   PO4 7444   9.496   7.256  10.687 -0.0462  0.1421  0.0927
  466loPI   GL1 7445   9.837   7.166  10.366  0.1005 -0.0612  0.1745
  466loPI   GL2 7446   9.666   7.311  10.251  0.2265  0.1531 -0.1193
  466loPI   C1A 7447  10.012   7.142   9.933 -0.0514  0.0287  0.2527
  466loPI   C2A 7448  10.056   7.305   9.571  0.1370  0.0508  0.1234
  466loPI   C3A 7449  10.093   7.276   9.147  0.3674 -0.0834  0.5692
  466loPI   C4A 7450  10.076   7.386   8.745  0.1521 -0.0978 -0.0923
  466loPI   C5A 7451   9.952   7.514   8.389  0.2694 -0.0630  0.1129
  466loPI   C6A 7452   9.553   7.675   8.204 -0.1946  0.0008  0.0257
  466loPI   C1B 7453   9.664   7.578   9.928 -0.0518  0.1398 -0.1069
  466loPI   C2B 7454   9.596   7.647   9.596 -0.1016  0.1769  0.2558
  466loPI   C3B 7455   9.671   7.784   9.249  0.1138 -0.0835 -0.1030
  466loPI   C4B 7456   9.733   7.841   8.789  0.0006  0.1405 -0.4301
  467loPI    C1 7457   7.469   4.714  10.388 -0.1768  0.1792  0.1691
  467loPI    C2 7458   7.417   4.332  10.279  0.1599  0.1985 -0.0734
  467loPI    C3 7459   7.358   4.441  10.659 -0.0321 -0.0746 -0.0221
  467loPI   PO4 7460   7.379   4.825  10.260  0.1237 -0.0609  0.1119
  467loPI   GL1 7461   7.152   5.001   9.983 -0.3401 -0.2133 -0.1986
  467loPI   GL2 7462   7.047   5.213   9.827  0.0457  0.0467 -0.0160
  467loPI   C1A 7463   7.389   4.924   9.586  0.3212  0.0040 -0.0253
  467loPI   C2A 7464   7.587   5.021   9.177 -0.2133  0.0823 -0.0838
  467loPI   C3A 7465   7.582   4.751   8.870  0.2986 -0.0880 -0.2271
  467loPI   C4A 7466   7.308   4.763   8.550 -0.1022  0.3855  0.0694
  467loPI   C5A 7467   7.399   4.944   8.210  0.0669  0.0920  0.0902
  467loPI   C6A 7468   7.631   5.125   7.871 -0.0011 -0.1777  0.1437
  467loPI   C1B 7469   6.981   5.184   9.413 -0.4007  0.0468  0.0034
  467loPI   C2B 7470   7.170   5.170   9.011  0.0900 -0.0990  0.1562
  467loPI   C3B 7471   7.490   5.191   8.720  0.2405 -0.1757 -0.0188
  467loPI   C4B 7472   7.700   5.341   8.336 -0.2132  0.4488 -0.0163
  468loPI    C1 7473  13.060  10.584  11.101  0.2530  0.0933 -0.0150
  468loPI    C2 7474  12.686  10.674  11.209  0.1028 -0.3611 -0.1334
  468loPI    C3 7475  12.976  10.659  11.484  0.0479  0.0337 -0.0474
  468loPI   PO4 7476  13.073  10.334  10.884 -0.3579 -0.1648 -0.0037
  468loPI   GL1 7477  12.945  10.238  10.423  0.1949  0.1544 -0.0073
  468loPI   GL2 7478  12.935   9.930  10.323 -0.3005  0.1120  0.0636
  468loPI   C1A 7479  12.884  10.322   9.912  0.0148 -0.1059 -0.0690
  468loPI   C2A 7480  12.734  10.251   9.440  0.2877 -0.0207  0.1826
  468loPI   C3A 7481  12.748  10.188   8.999 -0.4210 -0.2413  0.1442
  468loPI   C4A 7482  12.661  10.151   8.525 -0.2509 -0.0410 -0.0844
  468loPI   C5A 7483  12.349  10.132   8.204  0.1847  0.3424  0.1586
  468loPI   C6A 7484  12.229   9.914   7.869 -0.2256  0.0384  0.0626
  468loPI   C1B 7485  12.696   9.907  10.057 -0.0806  0.1614 -0.0809
  468loPI   C2B 7486  12.510   9.755   9.702  0.3359 -0.0508 -0.4329
  468loPI   C3B 7487  12.653   9.789   9.268  0.1923  0.2480 -0.1650
  468loPI   C4B 7488  12.559   9.699   8.773 -0.0049 -0.0625 -0.0392
  469loPI    C1 7489   9.030  13.318  10.749 -0.1129  0.0624  0.1068
  469loPI    C2 7490   9.098  13.396  11.136  0.0647 -0.0991  0.1095
  469loPI    C3 7491   8.910  13.059  11.029  0.1159 -0.1087  0.0490
  469loPI   PO4 7492   8.902  13.537  10.653  0.1683  0.0112 -0.3753
  469loPI   GL1 7493   8.633  13.622  10.392 -0.0597 -0.1061  0.0471
  469loPI   GL2 7494   8.617  13.301  10.236  0.0247  0.0943 -0.3606
  469loPI   C1A 7495   8.638  13.846  10.051 -0.2196  0.0088  0.1004
  469loPI   C2A 7496   8.609  13.978   9.538  0.0483 -0.0933 -0.2109
  469loPI   C3A 7497   8.650  13.880   9.095 -0.0716  0.0283 -0.3205
  469loPI   C4A 7498   8.493  13.775   8.677  0.1073 -0.2155 -0.3823
  469loPI   C5A 7499   8.316  13.543   8.350  0.1440  0.0761 -0.1418
  469loPI   C6A 7500   8.146  13.173   8.178 -0.3275  0.3289  0.0350
  469loPI   C1B 7501   8.642  13.405   9.894  0.1443 -0.1992  0.0859
  469loPI   C2B 7502   8.706  13.407   9.438  0.2542  0.0640 -0.4045
  469loPI   C3B 7503   8.597  13.345   9.040 -0.2570 -0.2522  0.0373
  469loPI   C4B 7504   8.438  13.198   8.715  0.0928  0.1151 -0.0302
  470loPI    C1 7505  15.170   4.626  10.656 -0.1282 -0.0371 -0.0749
  470loPI    C2 7506  15.242   4.936  10.414 -0.1980  0.0369 -0.0009
  470loPI    C3 7507  15.509   4.835  10.694 -0.3077  0.2166  0.1721
  470loPI   PO4 7508  14.990   4.484  10.509 -0.1674  0.1279 -0.1497
  470loPI   GL1 7509  14.569   4.521  10.334  0.2803 -0.0388 -0.1279
  470loPI   GL2 7510  14.381   4.787  10.381 -0.0781  0.2137  0.1091
  470loPI   C1A 7511  14.533   4.544   9.933 -0.1159  0.1688 -0.0679
  470loPI   C2A 7512  14.513   4.730   9.507  0.0236  0.0974  0.5036
  470loPI   C3A 7513  14.504   4.702   9.058  0.0701  0.1016  0.1953
  470loPI   C4A 7514  14.341   4.673   8.596  0.0595 -0.1270  0.2605
  470loPI   C5A 7515  14.364   4.936   8.284 -0.1043 -0.1587  0.1335
  470loPI   C6A 7516  14.366   4.937   7.918 -0.1799 -0.0533  0.0993
  470loPI   C1B 7517  14.094   4.918   9.935 -0.1476  0.0030 -0.0379
  470loPI   C2B 7518  14.073   5.047   9.510 -0.2429 -0.0045  0.0896
  470loPI   C3B 7519  14.017   5.115   9.064 -0.2493  0.1544  0.1753
  470loPI   C4B 7520  14.047   5.141   8.607 -0.0950  0.0988  0.1374
  471loPI    C1 7521  17.464  17.034  10.892  0.0287 -0.0702 -0.0381
  471loPI    C2 7522  17.661  17.220  10.598 -0.0998  0.2403  0.0681
  471loPI    C3 7523  17.853  17.119  10.934  0.0057  0.0434 -0.0496
  471loPI   PO4 7524  17.346  16.844  10.730  0.0668  0.1909  0.1600
  471loPI   GL1 7525  17.367  16.577  10.327  0.2292 -0.2772  0.2409
  471loPI   GL2 7526  17.390  16.942  10.160 -0.2555  0.0168  0.0376
  471loPI   C1A 7527  17.404  16.452   9.917 -0.0637 -0.1332  0.2656
  471loPI   C2A 7528  17.379  16.455   9.447  0.1388  0.0780  0.2859
  471loPI   C3A 7529  17.466  16.632   9.024  0.3912 -0.0342  0.1319
  471loPI   C4A 7530  17.507  16.591   8.595  0.0971  0.0956  0.0218
  471loPI   C5A 7531  17.686  16.937   8.285 -0.0490 -0.2722  0.0648
  471loPI   C6A 7532  18.074  17.195   8.251  0.1329  0.0923  0.0238
  471loPI   C1B 7533  17.111  16.863   9.865 -0.0019 -0.3215  0.2127
  471loPI   C2B 7534  16.996  16.944   9.392  0.1752  0.1212  0.0318
  471loPI   C3B 7535  17.041  17.029   8.990  0.1217 -0.1724  0.1120
  471loPI   C4B 7536  17.194  16.929   8.466 -0.0670  0.0084 -0.3011
  472loPI    C1 7537   4.352   3.932  10.931  0.1409 -0.0508 -0.3613
  472loPI    C2 7538   4.309   3.613  10.694 -0.0238 -0.1993 -0.1367
  472loPI    C3 7539   4.038   3.687  10.979  0.1420  0.0073 -0.0305
  472loPI   PO4 7540   4.503   4.109  10.732  0.1083  0.1820 -0.6295
  472loPI   GL1 7541   4.513   4.355  10.335  0.0841 -0.0064  0.3678
  472loPI   GL2 7542   4.403   4.106  10.183 -0.0715  0.0162 -0.2112
  472loPI   C1A 7543   4.420   4.528   9.844 -0.0231  0.2230 -0.0972
  472loPI   C2A 7544   4.451   4.488   9.392 -0.1024  0.2191  0.0160
  472loPI   C3A 7545   4.221   4.481   9.040 -0.2393 -0.1409 -0.2006
  472loPI   C4A 7546   4.259   4.461   8.559 -0.1777  0.4090 -0.0739
  472loPI   C5A 7547   4.479   4.501   8.161  0.3869  0.1871 -0.0274
  472loPI   C6A 7548   4.696   4.377   7.826 -0.1293 -0.0382 -0.1794
  472loPI   C1B 7549   4.181   4.058   9.748 -0.1682  0.2543  0.3426
  472loPI   C2B 7550   4.032   4.022   9.255 -0.1556 -0.0304  0.0772
  472loPI   C3B 7551   3.995   4.066   8.802 -0.1364 -0.0243  0.0664
  472loPI   C4B 7552   3.960   4.037   8.387 -0.0790  0.1004  0.0223
  473loPI    C1 7553   4.852  13.748  10.605 -0.0072  0.0546  0.1170
  473loPI    C2 7554   4.467  13.798  10.509  0.0046 -0.1439 -0.0414
  473loPI    C3 7555   4.568  13.679  10.878 -0.0728  0.0991  0.0601
  473loPI   PO4 7556   4.950  13.873  10.482  0.2184 -0.0145  0.4363
  473loPI   GL1 7557   5.070  13.763  10.087  0.0691 -0.1822 -0.0497
  473loPI   GL2 7558   5.184  14.059  10.057 -0.1973 -0.0576  0.0459
  473loPI   C1A 7559   4.892  13.852   9.729 -0.0450  0.0480  0.0834
  473loPI   C2A 7560   4.990  14.070   9.369 -0.0444  0.1442 -0.0036
  473loPI   C3A 7561   5.036  14.132   8.920  0.2202 -0.1325 -0.0074
  473loPI   C4A 7562   5.033  14.234   8.520 -0.1123  0.1799 -0.2806
  473loPI   C5A 7563   5.014  14.414   8.198 -0.1348 -0.0150  0.0116
  473loPI   C6A 7564   4.750  14.496   7.840  0.1884  0.0868  0.0869
  473loPI   C1B 7565   5.298  14.222   9.722 -0.1871 -0.0802 -0.1538
  473loPI   C2B 7566   5.381  14.435   9.329 -0.1390  0.0374  0.2427
  473loPI   C3B 7567   5.470  14.476   8.879 -0.1012 -0.1530 -0.0043
  473loPI   C4B 7568   5.598  14.494   8.552 -0.0664 -0.0280 -0.0643
  474loPI    C1 7569   7.515   5.734  10.584 -0.1895 -0.1201  0.0094
  474loPI    C2 7570   7.645   6.055  10.384 -0.0868 -0.1043  0.1009
  474loPI    C3 7571   7.799   5.967  10.742 -0.1260 -0.2468  0.0832
  474loPI   PO4 7572   7.241   5.699  10.445  0.0397  0.1720 -0.0074
  474loPI   GL1 7573   6.948   5.618  10.075  0.1243  0.2002  0.0163
  474loPI   GL2 7574   6.637   5.698  10.131  0.1046  0.0664  0.1962
  474loPI   C1A 7575   7.081   5.743   9.619  0.0769 -0.1724 -0.1252
  474loPI   C2A 7576   6.961   5.680   9.257  0.0701  0.3442 -0.0545
  474loPI   C3A 7577   6.715   5.393   9.005  0.1892  0.2882  0.1314
  474loPI   C4A 7578   6.541   5.412   8.597  0.0265  0.0776  0.1635
  474loPI   C5A 7579   6.458   4.980   8.410  0.0747  0.1641  0.3403
  474loPI   C6A 7580   6.461   4.856   7.920 -0.0328  0.1699 -0.2071
  474loPI   C1B 7581   6.603   5.549   9.713  0.1687 -0.0034 -0.0844
  474loPI   C2B 7582   6.471   5.620   9.374  0.1840  0.0411  0.0391
  474loPI   C3B 7583   6.233   5.566   9.076  0.1796  0.1475  0.1344
  474loPI   C4B 7584   5.889   5.575   8.944  0.1798 -0.0565 -0.0480
  475loPI    C1 7585   6.922   2.531  10.884  0.0985 -0.2245  0.1283
  475loPI    C2 7586   7.259   2.711  10.765  0.0004 -0.2667 -0.2244
  475loPI    C3 7587   7.148   2.728  11.149  0.2178  0.0518 -0.1716
  475loPI   PO4 7588   6.754   2.608  10.642  0.1538 -0.2616  0.2455
  475loPI   GL1 7589   6.458   2.619  10.230  0.0614  0.0240 -0.1671
  475loPI   GL2 7590   6.163   2.661  10.140 -0.2473  0.0118  0.1909
  475loPI   C1A 7591   6.525   2.887   9.907  0.3016 -0.0300  0.0220
  475loPI   C2A 7592   6.410   2.831   9.507 -0.0220 -0.0384 -0.0583
  475loPI   C3A 7593   6.339   2.781   9.028  0.2164 -0.0474  0.0165
  475loPI   C4A 7594   6.264   2.588   8.626 -0.0539  0.1956  0.2085
  475loPI   C5A 7595   6.232   2.471   8.112 -0.5760  0.3207 -0.2842
  475loPI   C6A 7596   6.081   2.474   7.739 -0.0165 -0.0846  0.1192
  475loPI   C1B 7597   6.164   2.476   9.714  0.1364  0.0899  0.2474
  475loPI   C2B 7598   6.070   2.306   9.277 -0.0220 -0.1602  0.0503
  475loPI   C3B 7599   6.036   2.183   8.848 -0.0278 -0.3263 -0.1502
  475loPI   C4B 7600   6.045   2.123   8.433  0.0474  0.0009  0.2105
  476loPI    C1 7601  16.928  10.272  11.344 -0.1124 -0.0660 -0.1766
  476loPI    C2 7602  16.640  10.288  11.621 -0.0227 -0.0673 -0.0832
  476loPI    C3 7603  16.871  10.608  11.553 -0.0873 -0.0458 -0.2021
  476loPI   PO4 7604  16.752  10.162  11.068  0.1369  0.3053  0.1173
  476loPI   GL1 7605  16.661  10.201  10.599 -0.3416  0.1142 -0.3797
  476loPI   GL2 7606  16.926  10.396  10.474 -0.0505 -0.1440  0.2177
  476loPI   C1A 7607  16.511  10.134  10.210  0.0232  0.0210  0.0371
  476loPI   C2A 7608  16.491  10.198   9.839 -0.0773  0.0349 -0.1801
  476loPI   C3A 7609  16.504  10.340   9.490 -0.2027  0.1374  0.1506
  476loPI   C4A 7610  16.459  10.296   9.105  0.1414  0.0602  0.2212
  476loPI   C5A 7611  16.412  10.307   8.589  0.2905 -0.0304 -0.2771
  476loPI   C6A 7612  16.387  10.589   8.289  0.2958  0.2306  0.1667
  476loPI   C1B 7613  16.925  10.387  10.018 -0.3255  0.1041 -0.1036
  476loPI   C2B 7614  16.991  10.457   9.605  0.0135  0.1677 -0.1228
  476loPI   C3B 7615  16.885  10.473   9.135 -0.1259  0.1032 -0.0893
  476loPI   C4B 7616  16.926  10.404   8.689 -0.0045 -0.2080  0.1277
  477loPI    C1 7617   1.578  12.236  11.312 -0.0481 -0.3861  0.0069
  477loPI    C2 7618   1.945  12.121  11.420  0.0476 -0.0368  0.0645
  477loPI    C3 7619   1.702  12.291  11.688 -0.1326 -0.2037  0.0088
  477loPI   PO4 7620   1.510  12.278  11.079 -0.0415 -0.0624  0.0156
  477loPI   GL1 7621   1.442  12.307  10.641  0.0832 -0.2184 -0.0904
  477loPI   GL2 7622   1.565  12.457  10.384  0.1198  0.0283  0.0726
  477loPI   C1A 7623   1.375  11.982  10.262 -0.1593 -0.1020 -0.0117
  477loPI   C2A 7624   1.454  12.131   9.916 -0.0172  0.0062  0.2291
  477loPI   C3A 7625   1.517  12.107   9.526 -0.1724 -0.0254 -0.3477
  477loPI   C4A 7626   1.522  12.060   9.116  0.0139  0.0157  0.1455
  477loPI   C5A 7627   1.682  11.967   8.721 -0.1681  0.2211  0.1333
  477loPI   C6A 7628   1.908  11.651   8.384  0.3213 -0.0187  0.2594
  477loPI   C1B 7629   1.565  12.576   9.998  0.2218 -0.2300 -0.0647
  477loPI   C2B 7630   1.505  12.562   9.599 -0.1755 -0.0831 -0.0689
  477loPI   C3B 7631   1.762  12.610   9.182 -0.0131 -0.1491 -0.2755
  477loPI   C4B 7632   1.638  12.473   8.726  0.2415  0.1788 -0.0253
  478loPI    C1 7633   6.734  11.007  10.530 -0.1080 -0.0297 -0.0400
  478loPI    C2 7634   6.429  11.265  10.557 -0.1143 -0.0481  0.0718
  478loPI    C3 7635   6.456  10.959  10.814  0.0181 -0.0259  0.0855
  478loPI   PO4 7636   6.878  11.170  10.376 -0.0047 -0.2431 -0.4899
  478loPI   GL1 7637   7.018  11.365  10.081 -0.0174 -0.1088 -0.0215
  478loPI   GL2 7638   6.740  11.468   9.944 -0.0048  0.1789 -0.0456
  478loPI   C1A 7639   7.121  11.480   9.615 -0.1080 -0.0201  0.0216
  478loPI   C2A 7640   7.021  11.956   9.416 -0.3447 -0.0990  0.2084
  478loPI   C3A 7641   6.960  12.084   9.005  0.2007  0.0955  0.0948
  478loPI   C4A 7642   7.109  12.287   8.672 -0.0652  0.0581 -0.3106
  478loPI   C5A 7643   7.314  12.459   8.257  0.2331  0.0331  0.0487
  478loPI   C6A 7644   7.504  12.479   7.886  0.3623  0.0820  0.0879
  478loPI   C1B 7645   6.557  11.729   9.624  0.1636  0.0239  0.1472
  478loPI   C2B 7646   6.556  11.825   9.184 -0.0594  0.1010  0.3517
  478loPI   C3B 7647   6.590  11.940   8.731 -0.1290 -0.0025 -0.2236
  478loPI   C4B 7648   6.589  11.914   8.289  0.3987 -0.2764 -0.0554
  479loPI    C1 7649   9.838   5.133  10.683 -0.1365 -0.1458 -0.0333
  479loPI    C2 7650   9.749   4.958  11.032 -0.0677  0.1185  0.1195
  479loPI    C3 7651   9.846   5.346  11.021 -0.2315  0.1539 -0.2158
  479loPI   PO4 7652  10.036   4.982  10.595 -0.1352  0.2190  0.1003
  479loPI   GL1 7653  10.387   5.038  10.379  0.2224 -0.1602 -0.0266
  479loPI   GL2 7654  10.264   4.727  10.230 -0.1667  0.2281  0.0643
  479loPI   C1A 7655  10.311   5.110   9.974  0.1899  0.1475 -0.1521
  479loPI   C2A 7656  10.244   5.189   9.558 -0.0018  0.0095 -0.2049
  479loPI   C3A 7657  10.165   5.048   9.124  0.0876  0.0185  0.0772
  479loPI   C4A 7658  10.016   5.111   8.793 -0.0210  0.1370 -0.1299
  479loPI   C5A 7659  10.093   5.157   8.355  0.1620  0.0844 -0.2573
  479loPI   C6A 7660  10.373   5.087   7.995 -0.1000 -0.2215 -0.0920
  479loPI   C1B 7661  10.573   4.697   9.892  0.1523  0.0460  0.2396
  479loPI   C2B 7662  10.459   4.657   9.481  0.1980 -0.2239  0.0653
  479loPI   C3B 7663  10.181   4.523   9.079 -0.2632  0.2830 -0.2317
  479loPI   C4B 7664   9.979   4.324   8.769 -0.0146  0.3597  0.3224
  480loPI    C1 7665   7.725  11.816  10.849  0.1553  0.0419  0.0243
  480loPI    C2 7666   7.889  11.641  11.169  0.1426 -0.0567 -0.0227
  480loPI    C3 7667   7.494  11.707  11.156  0.1323 -0.1220 -0.0501
  480loPI   PO4 7668   7.864  11.738  10.614  0.0759 -0.3692 -0.3421
  480loPI   GL1 7669   7.828  11.370  10.328 -0.2902 -0.2162 -0.1284
  480loPI   GL2 7670   8.166  11.503  10.273 -0.1408  0.0958 -0.1921
  480loPI   C1A 7671   7.542  11.337   9.918 -0.1843  0.1625 -0.0641
  480loPI   C2A 7672   7.669  11.317   9.467 -0.0523 -0.0339 -0.0762
  480loPI   C3A 7673   7.639  11.111   9.164 -0.0138  0.2067 -0.0113
  480loPI   C4A 7674   7.665  11.008   8.642 -0.0779 -0.0069 -0.2818
  480loPI   C5A 7675   7.898  10.670   8.304  0.2242 -0.2994 -0.0387
  480loPI   C6A 7676   8.056  10.147   8.313  0.2168 -0.2421  0.0977
  480loPI   C1B 7677   8.019  11.316   9.838 -0.3816  0.2372  0.2354
  480loPI   C2B 7678   8.112  11.315   9.404  0.0791 -0.1032 -0.1728
  480loPI   C3B 7679   8.065  11.364   8.913 -0.2848  0.0413  0.0413
  480loPI   C4B 7680   8.093  11.532   8.419  0.1167  0.0526 -0.0584
  481loPI    C1 7681  11.904  17.117  11.076  0.0252 -0.0613 -0.0215
  481loPI    C2 7682  12.116  17.222  11.399 -0.1724  0.2623  0.0082
  481loPI    C3 7683  11.921  16.873  11.392  0.1186  0.0942  0.0954
  481loPI   PO4 7684  12.074  17.194  10.832 -0.0071 -0.0558 -0.0351
  481loPI   GL1 7685  11.991  17.222  10.540  0.1564 -0.2861  0.2307
  481loPI   GL2 7686  12.169  16.881  10.394 -0.0921  0.3590 -0.2163
  481loPI   C1A 7687  12.031  17.252  10.085 -0.1966  0.1182 -0.1136
  481loPI   C2A 7688  12.001  17.208   9.612 -0.0206 -0.1959 -0.1221
  481loPI   C3A 7689  11.994  17.135   9.159  0.1405 -0.0782  0.0177
  481loPI   C4A 7690  12.114  17.087   8.819  0.0231  0.0824 -0.0110
  481loPI   C5A 7691  12.155  16.688   8.610  0.1013  0.2034  0.1541
  481loPI   C6A 7692  12.028  16.318   8.384 -0.2508  0.1519 -0.0261
  481loPI   C1B 7693  12.120  16.744   9.999 -0.1191 -0.1080 -0.1972
  481loPI   C2B 7694  12.422  16.579   9.682 -0.0293 -0.2013  0.0019
  481loPI   C3B 7695  12.607  16.382   9.301  0.1343  0.2393 -0.0051
  481loPI   C4B 7696  12.565  16.490   8.774 -0.2203 -0.2304  0.4166
  482loPI    C1 7697   6.762  12.075  10.826  0.0839 -0.1066 -0.2696
  482loPI    C2 7698   6.957  11.834  11.079 -0.1190 -0.0169 -0.0236
  482loPI    C3 7699   6.563  11.789  11.024 -0.1087  0.0835 -0.1838
  482loPI   PO4 7700   6.955  12.100  10.668 -0.1279  0.0655 -0.2783
  482loPI   GL1 7701   6.992  12.205  10.241  0.2459 -0.1524  0.1044
  482loPI   GL2 7702   6.758  11.989  10.113 -0.1079  0.0525 -0.0145
  482loPI   C1A 7703   7.139  12.232   9.812  0.0416 -0.0623  0.0001
  482loPI   C2A 7704   6.989  12.493   9.543  0.3812  0.1186 -0.1985
  482loPI   C3A 7705   6.978  12.694   9.246 -0.0477 -0.1211  0.1256
  482loPI   C4A 7706   7.091  12.801   8.865  0.1957 -0.0991  0.1681
  482loPI   C5A 7707   6.969  12.821   8.428  0.2413  0.0668 -0.0661
  482loPI   C6A 7708   6.755  12.517   8.153  0.0584  0.0542 -0.3688
  482loPI   C1B 7709   6.610  12.237   9.856 -0.0273 -0.3891 -0.6021
  482loPI   C2B 7710   6.576  12.223   9.538  0.2356  0.2119 -0.1201
  482loPI   C3B 7711   6.543  12.337   9.135  0.1815 -0.0092 -0.1858
  482loPI   C4B 7712   6.624  12.428   8.689  0.1041 -0.3214 -0.0537
  483loPI    C1 7713   7.207  14.421  10.880 -0.0995  0.2059 -0.0928
  483loPI    C2 7714   7.300  14.154  11.163  0.2008  0.1295 -0.2588
  483loPI    C3 7715   7.011  14.423  11.228 -0.0081 -0.1441 -0.0358
  483loPI   PO4 7716   7.505  14.371  10.729  0.2170  0.1607 -0.1527
  483loPI   GL1 7717   7.634  14.160  10.365  0.1437  0.0743  0.1719
  483loPI   GL2 7718   7.724  13.849  10.302  0.1011 -0.1838  0.1569
  483loPI   C1A 7719   7.672  14.323   9.877  0.0409  0.1029 -0.3068
  483loPI   C2A 7720   7.679  14.344   9.438  0.0333 -0.0175  0.0904
  483loPI   C3A 7721   7.671  14.385   9.003  0.5452  0.0942  0.1637
  483loPI   C4A 7722   7.647  14.161   8.605  0.1562 -0.3031 -0.2255
  483loPI   C5A 7723   7.895  13.810   8.508 -0.1848 -0.2893  0.2488
  483loPI   C6A 7724   7.957  13.377   8.617  0.1601 -0.1069 -0.0235
  483loPI   C1B 7725   7.719  13.840   9.818  0.0937  0.0943 -0.1372
  483loPI   C2B 7726   7.770  13.833   9.351 -0.0257  0.1263 -0.0657
  483loPI   C3B 7727   7.718  13.875   8.987 -0.2560  0.1243 -0.3657
  483loPI   C4B 7728   7.443  13.719   8.544  0.1022  0.0812  0.2398
  484loPI    C1 7729  18.063  10.811  11.220  0.0600 -0.1572  0.0269
  484loPI    C2 7730  17.758  10.595  11.362 -0.2439  0.1539 -0.1389
  484loPI    C3 7731  17.818  10.967  11.494  0.0266  0.1189 -0.1568
  484loPI   PO4 7732  18.085  10.835  11.002 -0.0171  0.1774  0.0369
  484loPI   GL1 7733  17.981  11.082  10.747 -0.2061  0.1091  0.1431
  484loPI   GL2 7734  17.651  11.031  10.547  0.2130  0.0075  0.1518
  484loPI   C1A 7735  17.976  11.126  10.234 -0.1433 -0.3294  0.1607
  484loPI   C2A 7736  17.959  11.138   9.821 -0.0865 -0.1412  0.2907
  484loPI   C3A 7737  18.021  11.151   9.489 -0.0343  0.2529  0.1787
  484loPI   C4A 7738  18.097  11.183   9.004 -0.3825  0.0061 -0.0415
  484loPI   C5A 7739  18.170  11.172   8.524  0.2689  0.0150 -0.0202
  484loPI   C6A 7740  18.228  11.260   8.040 -0.0145  0.4106 -0.0622
  484loPI   C1B 7741  17.510  11.032  10.079  0.2118 -0.1179 -0.0553
  484loPI   C2B 7742  17.501  11.062   9.689  0.0928 -0.2043  0.1943
  484loPI   C3B 7743  17.612  11.090   9.231 -0.1740  0.0016 -0.0652
  484loPI   C4B 7744  17.643  11.040   8.777 -0.0761  0.1815  0.1761
  485loPI    C1 7745   5.872   1.290  10.520  0.0682 -0.0725  0.1155
  485loPI    C2 7746   5.514   1.449  10.599  0.1601  0.1304  0.1324
  485loPI    C3 7747   5.710   1.246  10.883 -0.0094 -0.1175  0.0755
  485loPI   PO4 7748   5.814   1.138  10.298  0.0977 -0.1478 -0.0976
  485loPI   GL1 7749   5.927   0.929   9.826  0.1867 -0.0797 -0.1047
  485loPI   GL2 7750   5.624   0.938   9.838  0.0390 -0.0056 -0.0478
  485loPI   C1A 7751   6.066   1.060   9.416 -0.0096 -0.0325  0.0039
  485loPI   C2A 7752   6.127   1.120   9.027 -0.0672  0.1404 -0.1468
  485loPI   C3A 7753   6.177   1.050   8.571 -0.1206 -0.0674  0.3039
  485loPI   C4A 7754   6.221   0.877   8.189 -0.1701 -0.0047 -0.1628
  485loPI   C5A 7755   6.054   0.870   7.761 -0.2005  0.4583 -0.3672
  485loPI   C6A 7756   6.129   0.907   7.403 -0.2424 -0.1452  0.1406
  485loPI   C1B 7757   5.568   0.973   9.471  0.0897 -0.3058 -0.1143
  485loPI   C2B 7758   5.605   0.923   9.110  0.0042 -0.0171 -0.0946
  485loPI   C3B 7759   5.743   0.803   8.646 -0.3148  0.1014 -0.0866
  485loPI   C4B 7760   5.679   0.935   8.116 -0.0691  0.1081  0.0666
  486loPI    C1 7761  17.252   5.345  11.220  0.0193  0.2003 -0.0876
  486loPI    C2 7762  17.060   5.005  11.306  0.2936  0.0519 -0.0515
  486loPI    C3 7763  17.130   5.274  11.594  0.2616  0.0433 -0.0357
  486loPI   PO4 7764  17.286   5.266  10.928  0.3441 -0.2983 -0.1293
  486loPI   GL1 7765  17.181   5.453  10.537 -0.0997 -0.0725  0.1287
  486loPI   GL2 7766  17.478   5.364  10.370 -0.4018  0.1923  0.0362
  486loPI   C1A 7767  17.083   5.673  10.153  0.0425  0.2323  0.1379
  486loPI   C2A 7768  17.083   5.878   9.672  0.0149  0.3018 -0.3897
  486loPI   C3A 7769  17.022   5.897   9.190 -0.2846  0.1361 -0.0952
  486loPI   C4A 7770  16.994   5.807   8.810 -0.2822  0.2285  0.0316
  486loPI   C5A 7771  16.997   5.482   8.401 -0.0504  0.0443  0.1956
  486loPI   C6A 7772  17.410   5.457   8.116 -0.0001 -0.0431 -0.1997
  486loPI   C1B 7773  17.733   5.089   9.982 -0.2570  0.0152 -0.1374
  486loPI   C2B 7774  18.032   4.852   9.837  0.0365  0.2056  0.0122
  486loPI   C3B 7775  18.118   4.750   9.443 -0.2011 -0.0274  0.2755
  486loPI   C4B 7776  18.133   4.503   9.016  0.1486  0.0596 -0.0442
  487loPI    C1 7777   5.690   4.668  10.581 -0.4442 -0.2063 -0.2060
  487loPI    C2 7778   5.657   4.786  10.962  0.3194  0.0854 -0.2126
  487loPI    C3 7779   5.846   4.445  10.874 -0.0952 -0.1226 -0.3234
  487loPI   PO4 7780   5.364   4.746  10.453  0.1608 -0.0860  0.0024
  487loPI   GL1 7781   5.169   4.650  10.082  0.0187 -0.0812  0.0434
  487loPI   GL2 7782   4.999   4.419   9.970  0.0487  0.0683 -0.0876
  487loPI   C1A 7783   5.297   4.775   9.667 -0.1979  0.0919  0.0664
  487loPI   C2A 7784   5.154   4.767   9.127  0.6737  0.1636 -0.1444
  487loPI   C3A 7785   5.210   4.728   8.751 -0.1773 -0.0047  0.0016
  487loPI   C4A 7786   5.298   4.896   8.371  0.0993  0.3147 -0.0883
  487loPI   C5A 7787   5.530   5.283   8.232 -0.1012  0.1519 -0.0684
  487loPI   C6A 7788   5.648   5.626   8.493  0.1279 -0.1237 -0.1294
  487loPI   C1B 7789   4.971   4.393   9.556  0.0111  0.4109 -0.0850
  487loPI   C2B 7790   4.957   4.280   9.154 -0.0682  0.0153  0.1101
  487loPI   C3B 7791   4.787   4.372   8.778  0.0830  0.0497 -0.0448
  487loPI   C4B 7792   4.912   4.481   8.366  0.0504  0.1630 -0.0296
  488loPI    C1 7793  14.137  13.827  11.075 -0.1507  0.1106  0.2353
  488loPI    C2 7794  13.825  13.577  11.083 -0.1799  0.1419  0.1046
  488loPI    C3 7795  13.780  13.957  11.201 -0.1900  0.1451  0.0903
  488loPI   PO4 7796  14.269  13.930  10.945  0.0603 -0.1503  0.1544
  488loPI   GL1 7797  14.426  14.082  10.601  0.0195  0.0936 -0.0606
  488loPI   GL2 7798  14.556  14.341  10.439 -0.0705 -0.0863  0.2522
  488loPI   C1A 7799  14.409  13.867  10.204  0.1115 -0.4559 -0.2665
  488loPI   C2A 7800  14.246  13.898   9.743  0.0400 -0.1473 -0.2143
  488loPI   C3A 7801  14.155  13.985   9.313  0.1295  0.2242 -0.0861
  488loPI   C4A 7802  13.929  14.069   8.912 -0.1844 -0.0057  0.0052
  488loPI   C5A 7803  13.617  14.238   8.841  0.0856  0.2955 -0.1288
  488loPI   C6A 7804  13.357  14.477   8.544  0.2254 -0.0662  0.0749
  488loPI   C1B 7805  14.404  14.326  10.015  0.1692  0.2150 -0.3137
  488loPI   C2B 7806  14.630  14.226   9.636 -0.0689 -0.1231 -0.1048
  488loPI   C3B 7807  14.779  14.338   9.275  0.0055 -0.0432 -0.1587
  488loPI   C4B 7808  14.901  14.699   9.094  0.2553 -0.2093  0.1341
  489loPI    C1 7809  12.813  12.290  10.934  0.1338 -0.0440 -0.0517
  489loPI    C2 7810  12.665  12.109  11.259  0.2547 -0.0046  0.0257
  489loPI    C3 7811  12.968  12.368  11.294  0.0230  0.2848 -0.0719
  489loPI   PO4 7812  12.760  12.052  10.776  0.2268  0.0539 -0.1660
  489loPI   GL1 7813  12.803  12.018  10.358 -0.0871  0.0335  0.0699
  489loPI   GL2 7814  12.689  11.695  10.203 -0.2155  0.0941 -0.0904
  489loPI   C1A 7815  12.903  12.120   9.859  0.2035 -0.3956  0.0406
  489loPI   C2A 7816  12.919  12.180   9.402 -0.0543  0.0600  0.2058
  489loPI   C3A 7817  12.821  12.183   8.975 -0.1598  0.2335 -0.1511
  489loPI   C4A 7818  12.524  12.384   8.724 -0.1483  0.1227 -0.0509
  489loPI   C5A 7819  12.082  12.400   8.740 -0.0325 -0.0109 -0.1998
  489loPI   C6A 7820  11.847  12.788   8.717 -0.1938  0.1452 -0.0263
  489loPI   C1B 7821  13.027  11.454   9.977  0.0867  0.0474  0.0262
  489loPI   C2B 7822  13.084  11.265   9.565 -0.1745 -0.0084  0.1372
  489loPI   C3B 7823  13.018  11.193   9.143 -0.0466  0.2152 -0.2859
  489loPI   C4B 7824  13.145  11.283   8.737  0.0338 -0.2232 -0.1015
  490loPI    C1 7825   5.101  13.314  10.446  0.1226 -0.0225 -0.0470
  490loPI    C2 7826   4.974  13.344  10.824 -0.0077  0.0038 -0.0924
  490loPI    C3 7827   5.296  13.549  10.704 -0.0177  0.0634 -0.0182
  490loPI   PO4 7828   4.943  13.340  10.289  0.1728  0.1432 -0.0147
  490loPI   GL1 7829   4.545  13.179  10.027  0.0575 -0.0036 -0.0936
  490loPI   GL2 7830   4.554  13.537  10.009 -0.0070 -0.0727  0.1488
  490loPI   C1A 7831   4.672  13.025   9.673  0.1316  0.3933 -0.0687
  490loPI   C2A 7832   4.636  13.155   9.205  0.1377  0.0221  0.1520
  490loPI   C3A 7833   4.675  13.133   8.791  0.0469 -0.3266  0.1290
  490loPI   C4A 7834   4.798  13.332   8.349 -0.1741 -0.3115 -0.0378
  490loPI   C5A 7835   5.066  13.477   8.030 -0.0536  0.0005 -0.1090
  490loPI   C6A 7836   5.237  13.689   7.684  0.0035 -0.3095  0.0103
  490loPI   C1B 7837   4.294  13.418   9.639 -0.3119 -0.2245 -0.1200
  490loPI   C2B 7838   4.264  13.455   9.237 -0.0008  0.0634 -0.1099
  490loPI   C3B 7839   4.282  13.436   8.818 -0.1740 -0.0190 -0.1142
  490loPI   C4B 7840   4.282  13.260   8.497  0.3298 -0.0168  0.1756
  491loPI    C1 7841   8.923   3.285  10.716  0.1709  0.0054  0.3843
  491loPI    C2 7842   8.913   3.667  10.597 -0.1397 -0.0722  0.1463
  491loPI    C3 7843   8.650   3.534  10.868  0.0621 -0.0851  0.3389
  491loPI   PO4 7844   8.984   3.166  10.458  0.3463 -0.1946 -0.0223
  491loPI   GL1 7845   8.919   3.345  10.054 -0.1072 -0.0777  0.0615
  491loPI   GL2 7846   8.884   3.656  10.074 -0.1784 -0.0326 -0.0092
  491loPI   C1A 7847   8.876   3.050   9.773 -0.1502 -0.4189 -0.1049
  491loPI   C2A 7848   8.776   2.759   9.481  0.0739 -0.2635 -0.3163
  491loPI   C3A 7849   8.535   2.585   9.243  0.0546  0.1832  0.3237
  491loPI   C4A 7850   8.526   2.373   8.794 -0.1380 -0.1361  0.4313
  491loPI   C5A 7851   8.375   2.312   8.395 -0.0011 -0.0135 -0.2845
  491loPI   C6A 7852   8.303   2.153   7.996 -0.0949 -0.1657  0.2034
  491loPI   C1B 7853   8.897   3.547   9.620 -0.1315  0.1236 -0.3783
  491loPI   C2B 7854   8.873   3.441   9.209 -0.0736  0.1148 -0.3917
  491loPI   C3B 7855   8.825   3.738   8.803  0.2067  0.2619 -0.0442
  491loPI   C4B 7856   8.932   3.708   8.369  0.1266  0.2243  0.0869
  492loPI    C1 7857   9.739  17.402  10.817  0.0141 -0.1879  0.1517
  492loPI    C2 7858   9.608  17.276  11.173 -0.0398 -0.0092  0.1962
  492loPI    C3 7859   9.824  17.612  11.147 -0.2147  0.0932  0.0374
  492loPI   PO4 7860   9.849  17.252  10.688 -0.0774  0.0425  0.0281
  492loPI   GL1 7861  10.073  17.222  10.406  0.0149 -0.1670  0.0034
  492loPI   GL2 7862  10.216  17.101  10.225 -0.4456  0.0016 -0.0521
  492loPI   C1A 7863   9.875  17.397  10.025  0.0862 -0.2240 -0.1233
  492loPI   C2A 7864   9.770  17.365   9.595 -0.0255 -0.2186 -0.0935
  492loPI   C3A 7865   9.723  17.353   9.153 -0.1724 -0.0705 -0.0389
  492loPI   C4A 7866   9.779  17.312   8.736  0.0041 -0.0929 -0.0490
  492loPI   C5A 7867   9.740  17.484   8.270 -0.2568 -0.1130 -0.1669
  492loPI   C6A 7868   9.509  17.789   8.132  0.1409  0.1172 -0.1276
  492loPI   C1B 7869  10.286  17.090   9.801 -0.0316  0.0387  0.0922
  492loPI   C2B 7870  10.129  17.163   9.270 -0.4475  0.1982  0.0975
  492loPI   C3B 7871  10.135  17.070   8.921  0.2810  0.1355 -0.1436
  492loPI   C4B 7872  10.401  16.948   8.588  0.2861 -0.0786  0.2882
  493loPI    C1 7873   8.404  15.436  10.772 -0.1485 -0.0623 -0.0731
  493loPI    C2 7874   8.071  15.487  10.555 -0.1848 -0.0194 -0.0072
  493loPI    C3 7875   8.155  15.737  10.856  0.0104  0.0926 -0.1524
  493loPI   PO4 7876   8.609  15.333  10.523  0.0163 -0.1788 -0.2994
  493loPI   GL1 7877   8.423  15.204  10.170 -0.1094  0.1471  0.1670
  493loPI   GL2 7878   8.381  15.574  10.127  0.1298 -0.1212 -0.2151
  493loPI   C1A 7879   8.075  15.133   9.757 -0.0262  0.2139  0.1009
  493loPI   C2A 7880   8.006  15.198   9.426  0.1447  0.1049 -0.0570
  493loPI   C3A 7881   8.075  15.138   9.037 -0.0404 -0.2623 -0.0432
  493loPI   C4A 7882   8.072  15.102   8.594 -0.2035  0.0815  0.0233
  493loPI   C5A 7883   8.326  15.034   8.219  0.0419  0.1270 -0.0341
  493loPI   C6A 7884   8.178  15.139   7.791  0.1035  0.0675 -0.0047
  493loPI   C1B 7885   8.421  15.447   9.639  0.2032  0.2916  0.2820
  493loPI   C2B 7886   8.538  15.447   9.194 -0.1514  0.0728  0.1439
  493loPI   C3B 7887   8.551  15.459   8.775 -0.0777  0.1651  0.0756
  493loPI   C4B 7888   8.558  15.450   8.303  0.2665  0.0586 -0.1201
  494loPI    C1 7889   9.322  17.909  10.911 -0.2138  0.1375 -0.1134
  494loPI    C2 7890   9.471  17.882  11.281 -0.1789 -0.1137 -0.1436
  494loPI    C3 7891   9.380  18.240  11.128  0.1078  0.0193 -0.0123
  494loPI   PO4 7892   9.354  17.663  10.809  0.1373  0.0576 -0.1765
  494loPI   GL1 7893   9.391  17.474  10.394 -0.2139 -0.1045 -0.3772
  494loPI   GL2 7894   9.341  17.765  10.275  0.0192  0.1008  0.1558
  494loPI   C1A 7895   9.037  17.327  10.106 -0.2494 -0.0091 -0.0877
  494loPI   C2A 7896   8.962  17.250   9.708  0.3821  0.0125 -0.1236
  494loPI   C3A 7897   8.842  17.298   9.285  0.2585 -0.0200 -0.1844
  494loPI   C4A 7898   8.863  17.229   8.953 -0.0077 -0.0138  0.0258
  494loPI   C5A 7899   8.774  17.228   8.551 -0.2582 -0.0916 -0.1458
  494loPI   C6A 7900   8.449  17.519   8.330 -0.0105 -0.1615 -0.3060
  494loPI   C1B 7901   9.424  17.559   9.867  0.2661  0.2143  0.0240
  494loPI   C2B 7902   9.317  17.534   9.377 -0.0111  0.1674 -0.3216
  494loPI   C3B 7903   9.264  17.608   8.912 -0.2362  0.2281  0.1014
  494loPI   C4B 7904   9.339  17.471   8.484  0.2349  0.0191  0.0161
  495loPI    C1 7905  11.873  16.466  10.951  0.0661 -0.0608  0.0175
  495loPI    C2 7906  11.799  16.770  10.701  0.1383 -0.1646 -0.1309
  495loPI    C3 7907  12.168  16.715  10.847  0.0777 -0.0537  0.0670
  495loPI   PO4 7908  11.718  16.285  10.861 -0.1766  0.0949  0.0494
  495loPI   GL1 7909  11.557  16.155  10.435 -0.2558 -0.2156 -0.1011
  495loPI   GL2 7910  11.482  16.474  10.425  0.0020  0.1638 -0.0282
  495loPI   C1A 7911  11.668  15.953   9.979  0.0754  0.0269  0.2969
  495loPI   C2A 7912  11.567  15.935   9.594  0.1266  0.1334  0.2289
  495loPI   C3A 7913  11.630  15.813   9.167 -0.1032 -0.0118 -0.2512
  495loPI   C4A 7914  11.690  15.753   8.688 -0.1147 -0.0726 -0.1006
  495loPI   C5A 7915  11.741  15.929   8.327  0.1855  0.1132  0.1894
  495loPI   C6A 7916  11.982  16.122   7.943  0.2310  0.1857 -0.0252
  495loPI   C1B 7917  11.255  16.209  10.010 -0.0963  0.0428 -0.2388
  495loPI   C2B 7918  11.073  16.091   9.561  0.1456 -0.1561 -0.1036
  495loPI   C3B 7919  11.224  16.033   9.101  0.1181 -0.1379 -0.1497
  495loPI   C4B 7920  11.177  15.915   8.632  0.0164 -0.1333  0.1390
  496loPI    C1 7921   7.644  13.335  11.291 -0.1568  0.0829  0.0543
  496loPI    C2 7922   7.962  13.165  11.462 -0.2345 -0.0037  0.1136
  496loPI    C3 7923   7.753  13.442  11.661 -0.1927  0.0581  0.0721
  496loPI   PO4 7924   7.712  13.411  11.070  0.1013  0.1559  0.2177
  496loPI   GL1 7925   7.909  13.507  10.735 -0.0706 -0.0363  0.0085
  496loPI   GL2 7926   8.126  13.579  10.628  0.1422 -0.1217  0.1110
  496loPI   C1A 7927   7.750  13.341  10.271 -0.2717  0.0473  0.2129
  496loPI   C2A 7928   7.735  13.325   9.936  0.2110 -0.0273 -0.1683
  496loPI   C3A 7929   7.863  13.401   9.530  0.0504  0.1356 -0.2238
  496loPI   C4A 7930   7.650  13.373   9.088  0.0882 -0.2084 -0.1693
  496loPI   C5A 7931   7.473  13.286   8.806 -0.1412 -0.2712  0.1076
  496loPI   C6A 7932   7.450  13.023   8.414  0.0385  0.2477  0.3683
  496loPI   C1B 7933   8.163  13.637  10.213 -0.0399 -0.1202 -0.2796
  496loPI   C2B 7934   8.256  13.645   9.820  0.3039 -0.0419  0.0581
  496loPI   C3B 7935   8.229  13.660   9.359 -0.3438 -0.2394  0.0410
  496loPI   C4B 7936   8.128  13.531   9.029  0.0660  0.0750  0.0733
  497loPI    C1 7937   0.490  15.905  10.940 -0.2283  0.2122 -0.2044
  497loPI    C2 7938   0.828  15.854  10.732 -0.1923 -0.0825 -0.0779
  497loPI    C3 7939   0.844  15.960  11.118 -0.2515  0.1481 -0.1376
  497loPI   PO4 7940   0.284  15.756  10.792 -0.3181 -0.0662 -0.2380
  497loPI   GL1 7941   0.133  15.458  10.531  0.4538 -0.1680 -0.0011
  497loPI   GL2 7942   0.253  15.224  10.472 -0.0332 -0.1121 -0.1960
  497loPI   C1A 7943  -0.094  15.435  10.138  0.1620  0.0195  0.1270
  497loPI   C2A 7944  -0.302  15.308   9.807 -0.1249 -0.4113  0.1098
  497loPI   C3A 7945  -0.251  15.297   9.392 -0.1104 -0.2596 -0.2957
  497loPI   C4A 7946  -0.309  15.201   8.934 -0.2043 -0.0685 -0.0882
  497loPI   C5A 7947  -0.323  15.116   8.450 -0.0646 -0.1558  0.1058
  497loPI   C6A 7948  -0.513  14.728   8.292  0.0464  0.1903  0.3214
  497loPI   C1B 7949   0.124  15.000  10.036 -0.3615 -0.1941 -0.1236
  497loPI   C2B 7950  -0.017  14.941   9.573  0.1402  0.1097 -0.1757
  497loPI   C3B 7951   0.025  14.902   9.195 -0.0173  0.0671 -0.3967
  497loPI   C4B 7952   0.007  14.833   8.722  0.3829  0.1187 -0.2888
  498loPI    C1 7953  15.550  16.144  10.826 -0.2570  0.0929  0.0608
  498loPI    C2 7954  15.753  15.815  10.929  0.3269  0.4027 -0.0536
  498loPI    C3 7955  15.569  16.033  11.210 -0.1722 -0.0765  0.0088
  498loPI   PO4 7956  15.743  16.237  10.688 -0.2698 -0.0854 -0.1212
  498loPI   GL1 7957  15.781  16.472  10.391  0.0367 -0.3159 -0.0396
  498loPI   GL2 7958  15.520  16.458  10.231  0.0212 -0.2749  0.0230
  498loPI   C1A 7959  15.921  16.252  10.025  0.1464 -0.1491 -0.2105
  498loPI   C2A 7960  15.978  16.182   9.595  0.2250 -0.0590  0.1358
  498loPI   C3A 7961  15.873  16.316   9.139  0.0530  0.0291  0.1226
  498loPI   C4A 7962  16.011  16.209   8.716  0.1565 -0.2225  0.1968
  498loPI   C5A 7963  16.058  16.189   8.226  0.2117  0.0098  0.0264
  498loPI   C6A 7964  16.260  15.898   7.988  0.2574 -0.1466 -0.0306
  498loPI   C1B 7965  15.566  16.691   9.810  0.0856  0.0347 -0.0224
  498loPI   C2B 7966  15.531  16.636   9.413 -0.2189 -0.1100  0.1469
  498loPI   C3B 7967  15.565  16.737   8.908 -0.0241  0.0927  0.1930
  498loPI   C4B 7968  15.221  16.731   8.437 -0.0525  0.4158 -0.0881
  499loPI    C1 7969  15.251  13.976  11.163 -0.0737  0.2416  0.0073
  499loPI    C2 7970  15.603  13.853  11.309 -0.0633 -0.0508 -0.2525
  499loPI    C3 7971  15.331  14.015  11.553  0.1341 -0.0980  0.0037
  499loPI   PO4 7972  15.238  14.158  11.031  0.1807  0.1344  0.1902
  499loPI   GL1 7973  15.295  14.430  10.770  0.0437 -0.0820  0.0213
  499loPI   GL2 7974  14.954  14.596  10.676  0.0328 -0.0029 -0.0714
  499loPI   C1A 7975  15.311  14.223  10.310  0.1379  0.2225  0.1689
  499loPI   C2A 7976  15.321  14.170   9.883 -0.1507  0.1324 -0.1765
  499loPI   C3A 7977  15.118  13.979   9.529 -0.0138  0.1004  0.1166
  499loPI   C4A 7978  15.051  13.937   9.128  0.0653 -0.0728  0.1101
  499loPI   C5A 7979  14.909  13.776   8.770  0.1439  0.2542  0.1568
  499loPI   C6A 7980  14.556  13.609   8.507 -0.1678  0.2440 -0.0690
  499loPI   C1B 7981  14.878  14.909  10.271 -0.1759 -0.1246 -0.0733
  499loPI   C2B 7982  14.640  14.889   9.972 -0.2171 -0.1937  0.0589
  499loPI   C3B 7983  14.559  14.843   9.497 -0.2632  0.1644  0.1481
  499loPI   C4B 7984  14.533  15.043   9.106  0.0205 -0.0607  0.0102
  500loPI    C1 7985   5.249   0.123  10.530 -0.0844  0.0878 -0.0129
  500loPI    C2 7986   5.356  -0.214  10.717 -0.3393  0.0333  0.0374
  500loPI    C3 7987   5.308   0.124  10.925 -0.0315  0.1156 -0.0208
  500loPI   PO4 7988   5.373   0.041  10.291 -0.0425 -0.0721 -0.0148
  500loPI   GL1 7989   5.314  -0.179   9.966  0.0163 -0.0018 -0.3238
  500loPI   GL2 7990   5.344   0.191   9.822 -0.1104 -0.2488 -0.0007
  500loPI   C1A 7991   5.202  -0.291   9.603 -0.2352  0.0086 -0.0746
  500loPI   C2A 7992   5.193  -0.479   9.179 -0.3405  0.1426  0.2830
  500loPI   C3A 7993   5.232  -0.543   8.685 -0.1022 -0.1919  0.2883
  500loPI   C4A 7994   5.187  -0.536   8.309  0.1240  0.2075  0.2642
  500loPI   C5A 7995   4.977  -0.299   8.084  0.0246 -0.2413  0.2342
  500loPI   C6A 7996   4.691  -0.434   7.693 -0.3358  0.4344  0.1160
  500loPI   C1B 7997   5.436   0.043   9.410 -0.0323  0.0621  0.0329
  500loPI   C2B 7998   5.295   0.016   8.996 -0.2313  0.2110 -0.1688
  500loPI   C3B 7999   5.134  -0.044   8.557  0.1005  0.3031  0.3636
  500loPI   C4B 8000   5.040   0.172   8.202  0.1128 -0.0270 -0.1323
  501loPI    C1 8001  16.084  11.195  10.939 -0.0126  0.0596 -0.2349
  501loPI    C2 8002  15.739  11.166  10.740 -0.0846 -0.0946 -0.0899
  501loPI    C3 8003  16.002  10.864  10.729  0.0314  0.0087 -0.1726
  501loPI   PO4 8004  16.293  11.370  10.891  0.2291  0.0009  0.3042
  501loPI   GL1 8005  16.406  11.475  10.553  0.2198  0.0461 -0.2462
  501loPI   GL2 8006  16.006  11.427  10.414  0.1155  0.0382 -0.2153
  501loPI   C1A 8007  16.413  11.589  10.131 -0.0227  0.0797  0.0870
  501loPI   C2A 8008  16.353  11.596   9.702 -0.0010 -0.0467 -0.0995
  501loPI   C3A 8009  16.351  11.732   9.247  0.0752  0.0459  0.1650
  501loPI   C4A 8010  16.287  11.708   8.783 -0.1949  0.2194  0.0925
  501loPI   C5A 8011  16.106  11.643   8.368 -0.4029 -0.2043  0.1584
  501loPI   C6A 8012  15.909  11.248   8.358 -0.1136 -0.1909  0.0948
  501loPI   C1B 8013  15.875  11.568   9.968  0.1005  0.0338  0.2987
  501loPI   C2B 8014  15.834  11.614   9.551 -0.1417  0.0244  0.1085
  501loPI   C3B 8015  15.884  11.576   9.210  0.0195  0.2283 -0.0182
  501loPI   C4B 8016  15.755  11.562   8.722  0.0596 -0.2371  0.0728
  502loPI    C1 8017  15.417  17.139  10.912 -0.1692 -0.2932 -0.3339
  502loPI    C2 8018  15.428  16.868  11.206 -0.0551 -0.0835 -0.1416
  502loPI    C3 8019  15.760  16.956  11.002 -0.0636  0.0028 -0.1188
  502loPI   PO4 8020  15.217  17.078  10.735 -0.2013 -0.0407  0.0094
  502loPI   GL1 8021  15.174  16.977  10.344 -0.0604  0.2250  0.3379
  502loPI   GL2 8022  15.105  16.596  10.349  0.2754 -0.0876 -0.1307
  502loPI   C1A 8023  14.987  17.279  10.003 -0.1086  0.0620 -0.1252
  502loPI   C2A 8024  15.054  17.486   9.596  0.1350  0.1753 -0.2087
  502loPI   C3A 8025  14.830  17.513   9.235 -0.1591 -0.0825 -0.2581
  502loPI   C4A 8026  14.529  17.706   8.887  0.1558 -0.1571  0.1161
  502loPI   C5A 8027  14.229  17.702   8.654 -0.3048 -0.1269  0.2027
  502loPI   C6A 8028  13.903  17.370   8.433  0.2057 -0.1269 -0.2787
  502loPI   C1B 8029  15.113  16.697   9.904 -0.0854 -0.2401 -0.2554
  502loPI   C2B 8030  15.232  17.018   9.639  0.0309  0.1731 -0.2696
  502loPI   C3B 8031  15.260  17.178   9.231 -0.0542 -0.0788  0.3371
  502loPI   C4B 8032  15.291  17.173   8.776 -0.0399 -0.1204 -0.0276
  503loPI    C1 8033   0.740   1.825  10.330 -0.0510 -0.0119  0.0054
  503loPI    C2 8034   0.580   2.086  10.587  0.1434  0.2018 -0.0868
  503loPI    C3 8035   0.957   1.963  10.637  0.1322  0.1266 -0.1841
  503loPI   PO4 8036   0.543   1.633  10.310  0.0104  0.0905  0.0755
  503loPI   GL1 8037   0.212   1.477   9.991 -0.3546 -0.1230  0.2547
  503loPI   GL2 8038   0.038   1.659  10.148  0.0877  0.3191 -0.0825
  503loPI   C1A 8039   0.032   1.659   9.497  0.0252 -0.2037  0.1448
  503loPI   C2A 8040   0.021   1.747   9.056  0.0002 -0.0655  0.0655
  503loPI   C3A 8041   0.091   1.766   8.655 -0.1902  0.0903  0.0044
  503loPI   C4A 8042   0.529   1.637   8.498  0.0421 -0.0877  0.2102
  503loPI   C5A 8043   0.796   1.672   8.074  0.2426  0.1371  0.0609
  503loPI   C6A 8044   0.837   1.657   7.668 -0.2619 -0.2483  0.0082
  503loPI   C1B 8045  -0.255   1.542   9.876 -0.0645 -0.0873  0.1314
  503loPI   C2B 8046  -0.500   1.590   9.541 -0.1875  0.1707  0.4339
  503loPI   C3B 8047  -0.516   1.675   9.091  0.0188  0.0377 -0.0210
  503loPI   C4B 8048  -0.534   1.647   8.603 -0.1975  0.0514 -0.3544
  504loPI    C1 8049   9.951  13.110  11.265  0.0897  0.0018  0.1233
  504loPI    C2 8050   9.993  12.796  11.509  0.0178 -0.1046  0.0004
  504loPI    C3 8051   9.690  13.051  11.562  0.0885 -0.0429  0.1134
  504loPI   PO4 8052  10.009  13.008  11.060 -0.1165  0.0671  0.4310
  504loPI   GL1 8053   9.839  13.017  10.575 -0.2182 -0.3229 -0.0125
  504loPI   GL2 8054   9.655  12.819  10.327  0.1660  0.0524  0.1783
  504loPI   C1A 8055  10.108  13.026  10.191 -0.2210 -0.0661  0.0307
  504loPI   C2A 8056  10.035  12.976   9.709  0.1285 -0.1733 -0.0867
  504loPI   C3A 8057  10.021  13.173   9.289  0.0968 -0.0079  0.1554
  504loPI   C4A 8058   9.842  13.051   8.979  0.0127 -0.0146  0.1371
  504loPI   C5A 8059   9.906  13.166   8.480  0.2999  0.0761  0.1034
  504loPI   C6A 8060   9.575  13.025   8.167  0.0620 -0.0651  0.3720
  504loPI   C1B 8061   9.585  13.181   9.903 -0.2072  0.0739  0.1462
  504loPI   C2B 8062   9.542  13.389   9.502 -0.1423  0.1918 -0.0584
  504loPI   C3B 8063   9.482  13.365   9.087 -0.0830  0.2143 -0.0822
  504loPI   C4B 8064   9.456  13.293   8.665  0.2283 -0.1133 -0.0899
  505loPI    C1 8065  14.732   5.499  10.834  0.1244  0.0691  0.0679
  505loPI    C2 8066  14.817   5.385  11.208  0.0752  0.1786  0.1129
  505loPI    C3 8067  14.458   5.541  11.122  0.0216 -0.0129 -0.0173
  505loPI   PO4 8068  14.978   5.683  10.728  0.0584 -0.1905  0.0184
  505loPI   GL1 8069  15.092   5.734  10.318  0.0067  0.3931 -0.0396
  505loPI   GL2 8070  15.040   5.407  10.322  0.1399 -0.1860  0.2726
  505loPI   C1A 8071  15.137   5.769   9.887 -0.0027 -0.0604 -0.0430
  505loPI   C2A 8072  15.238   5.813   9.432  0.0582 -0.0447  0.0056
  505loPI   C3A 8073  15.147   5.745   9.020  0.4790 -0.1450 -0.0352
  505loPI   C4A 8074  15.169   5.906   8.744  0.1572 -0.0204  0.4214
  505loPI   C5A 8075  15.193   5.788   8.344 -0.0689  0.1857  0.2931
  505loPI   C6A 8076  15.063   5.578   7.985  0.1310 -0.0208 -0.1425
  505loPI   C1B 8077  15.156   5.192   9.896 -0.1978  0.0094 -0.0086
  505loPI   C2B 8078  15.011   5.360   9.516 -0.1798  0.2065 -0.0988
  505loPI   C3B 8079  15.064   5.295   9.008  0.1059  0.3790  0.0346
  505loPI   C4B 8080  15.065   5.395   8.591  0.2372 -0.3093  0.1909
  506loPI    C1 8081  12.203   1.436  11.128 -0.0578  0.1273  0.2601
  506loPI    C2 8082  11.987   1.773  11.118 -0.0039  0.1580  0.1077
  506loPI    C3 8083  11.904   1.490  11.389 -0.1580  0.2207  0.1273
  506loPI   PO4 8084  12.260   1.417  10.874 -0.0625  0.0817 -0.3159
  506loPI   GL1 8085  12.160   1.244  10.559  0.3637  0.1416 -0.3086
  506loPI   GL2 8086  12.243   1.047  10.340  0.3030 -0.2944 -0.0834
  506loPI   C1A 8087  12.150   1.507  10.201  0.3016  0.0584  0.1744
  506loPI   C2A 8088  12.237   1.458   9.789  0.0907  0.2470  0.1251
  506loPI   C3A 8089  12.245   1.408   9.272 -0.2394 -0.0168  0.1560
  506loPI   C4A 8090  12.266   1.222   8.759  0.3182 -0.0761 -0.0580
  506loPI   C5A 8091  12.212   1.505   8.448 -0.1747  0.1108 -0.2603
  506loPI   C6A 8092  12.266   1.443   8.034 -0.3241  0.0165 -0.0698
  506loPI   C1B 8093  12.391   0.926  10.047 -0.2067 -0.0172  0.1832
  506loPI   C2B 8094  12.401   0.899   9.589 -0.3171 -0.2351  0.0708
  506loPI   C3B 8095  12.244   0.902   9.171 -0.2666  0.0290  0.0174
  506loPI   C4B 8096  12.450   0.694   8.764  0.0053 -0.2589 -0.1876
  507loPI    C1 8097  10.531   7.433  10.757  0.1758  0.0089  0.1145
  507loPI    C2 8098  10.135   7.427  10.813  0.1126  0.0750 -0.2951
  507loPI    C3 8099  10.360   7.125  10.947 -0.0568  0.0970  0.0514
  507loPI   PO4 8100  10.604   7.457  10.606 -0.0523  0.0746 -0.0895
  507loPI   GL1 8101  10.533   7.385  10.240  0.3269 -0.0798 -0.0600
  507loPI   GL2 8102  10.148   7.511  10.323 -0.0988  0.0110  0.0088
  507loPI   C1A 8103  10.533   7.330   9.804  0.0973 -0.0165  0.0683
  507loPI   C2A 8104  10.567   7.357   9.322 -0.2027 -0.0577 -0.1006
  507loPI   C3A 8105  10.562   7.415   8.909 -0.2158 -0.1470  0.1215
  507loPI   C4A 8106  10.521   7.408   8.462 -0.2291  0.2813 -0.0187
  507loPI   C5A 8107  10.394   7.431   8.227  0.0132  0.1105  0.1499
  507loPI   C6A 8108  10.124   7.568   7.836  0.1642  0.4145  0.1023
  507loPI   C1B 8109  10.140   7.690   9.910  0.2933  0.3108  0.0321
  507loPI   C2B 8110  10.108   7.805   9.484  0.0446  0.0855 -0.0369
  507loPI   C3B 8111  10.152   7.770   9.071  0.0220  0.1111 -0.1145
  507loPI   C4B 8112  10.213   7.903   8.548  0.1996 -0.0168 -0.1220
  508loPI    C1 8113   0.452  12.858  10.928 -0.0760  0.1607 -0.0509
  508loPI    C2 8114   0.275  13.102  11.191 -0.0490  0.0650  0.0567
  508loPI    C3 8115   0.662  13.010  11.233 -0.1149 -0.1784  0.1500
  508loPI   PO4 8116   0.457  12.993  10.718 -0.0282  0.1152 -0.0135
  508loPI   GL1 8117   0.336  13.153  10.366 -0.1435  0.3408  0.2872
  508loPI   GL2 8118   0.075  12.980  10.267 -0.0539  0.2623 -0.1177
  508loPI   C1A 8119   0.451  13.140   9.939 -0.2105 -0.0188  0.2883
  508loPI   C2A 8120   0.438  13.156   9.523  0.0323 -0.1972 -0.1470
  508loPI   C3A 8121   0.412  13.081   9.061  0.0835  0.0301 -0.0059
  508loPI   C4A 8122   0.463  13.154   8.751  0.1814  0.3158  0.0505
  508loPI   C5A 8123   0.344  13.015   8.285 -0.0074  0.3519 -0.3391
  508loPI   C6A 8124  -0.054  12.948   8.046  0.0605  0.1601 -0.0025
  508loPI   C1B 8125   0.003  13.029   9.811  0.2087  0.4646 -0.1757
  508loPI   C2B 8126  -0.090  12.971   9.284  0.3543  0.0411 -0.1358
  508loPI   C3B 8127  -0.072  13.099   8.876 -0.0931  0.0711  0.1732
  508loPI   C4B 8128  -0.181  12.994   8.511  0.1578  0.2071 -0.2843
  509loPI    C1 8129   7.457  10.952  10.914 -0.0496 -0.0169 -0.0196
  509loPI    C2 8130   7.664  11.278  10.810 -0.0116 -0.0302  0.0138
  509loPI    C3 8131   7.599  11.198  11.196  0.0317 -0.0946  0.0079
  509loPI   PO4 8132   7.615  10.720  10.861 -0.0222 -0.2654  0.4197
  509loPI   GL1 8133   7.799  10.464  10.606 -0.1690 -0.2566 -0.1468
  509loPI   GL2 8134   7.544  10.420  10.463 -0.0461  0.2662  0.3704
  509loPI   C1A 8135   8.121  10.465  10.290 -0.3801  0.1668  0.0260
  509loPI   C2A 8136   8.182  10.437   9.834 -0.0410  0.1922  0.1519
  509loPI   C3A 8137   8.326  10.433   9.507  0.1075 -0.1059  0.2686
  509loPI   C4A 8138   8.332  10.418   9.118 -0.1069  0.2197  0.1761
  509loPI   C5A 8139   8.176  10.172   8.797  0.0109 -0.0102  0.0809
  509loPI   C6A 8140   7.712  10.001   8.803 -0.3526  0.3349 -0.2302
  509loPI   C1B 8141   7.672  10.372  10.078  0.2292  0.1938 -0.1311
  509loPI   C2B 8142   7.667  10.378   9.655  0.1042 -0.0877 -0.0913
  509loPI   C3B 8143   7.839  10.331   9.155 -0.1501  0.1592  0.0202
  509loPI   C4B 8144   7.659  10.497   8.695 -0.2033 -0.0556  0.2104
  510loPI    C1 8145   6.048   0.710  10.352  0.0861 -0.1745  0.1998
  510loPI    C2 8146   6.020   0.848  10.727 -0.0460 -0.0770  0.1544
  510loPI    C3 8147   6.282   1.012  10.472 -0.3034  0.1933  0.0572
  510loPI   PO4 8148   5.879   0.616  10.294 -0.1935  0.1704 -0.1563
  510loPI   GL1 8149   5.776   0.445   9.942  0.0370  0.0173  0.0133
  510loPI   GL2 8150   6.161   0.423   9.939  0.0312  0.0346 -0.0071
  510loPI   C1A 8151   5.654   0.498   9.565  0.0101 -0.1944  0.0740
  510loPI   C2A 8152   5.608   0.413   9.137  0.1706 -0.1006 -0.3277
  510loPI   C3A 8153   5.688   0.311   8.741 -0.1922 -0.2805 -0.1576
  510loPI   C4A 8154   5.746   0.356   8.383  0.2476 -0.0983  0.1768
  510loPI   C5A 8155   5.842   0.421   7.987  0.0951 -0.1329  0.0423
  510loPI   C6A 8156   5.878   0.467   7.586 -0.2337 -0.0151 -0.2301
  510loPI   C1B 8157   6.206   0.549   9.506  0.1704  0.0640 -0.0598
  510loPI   C2B 8158   6.101   0.580   9.043 -0.1193  0.2816  0.1987
  510loPI   C3B 8159   6.190   0.533   8.614 -0.3230  0.4853 -0.0118
  510loPI   C4B 8160   6.259   0.405   8.198  0.1160 -0.0642  0.0119
  511loPI    C1 8161  14.608   9.821  11.073  0.0683  0.0085 -0.0803
  511loPI    C2 8162  14.313   9.633  11.267  0.1284  0.0331  0.0354
  511loPI    C3 8163  14.361  10.028  11.309  0.2848  0.0024  0.1554
  511loPI   PO4 8164  14.623   9.711  10.883  0.0841  0.0128 -0.0052
  511loPI   GL1 8165  14.701   9.706  10.456  0.2417 -0.1577  0.2583
  511loPI   GL2 8166  14.364   9.730  10.310 -0.3621  0.3786  0.2455
  511loPI   C1A 8167  15.004   9.817  10.209 -0.0425 -0.1605 -0.0734
  511loPI   C2A 8168  14.932   9.844   9.871  0.2805 -0.3541 -0.2221
  511loPI   C3A 8169  15.031   9.925   9.452 -0.0251  0.0812  0.1944
  511loPI   C4A 8170  14.931   9.941   9.030 -0.0864  0.0893  0.2496
  511loPI   C5A 8171  14.913  10.101   8.661 -0.2797 -0.0275  0.2021
  511loPI   C6A 8172  14.939  10.461   8.404 -0.1117  0.0902  0.0545
  511loPI   C1B 8173  14.475   9.639   9.881 -0.1123  0.1450  0.0093
  511loPI   C2B 8174  14.538   9.755   9.495 -0.0040 -0.0333 -0.1431
  511loPI   C3B 8175  14.501   9.776   9.055 -0.1496  0.1499  0.0105
  511loPI   C4B 8176  14.542   9.803   8.568 -0.0405  0.0325 -0.0267
  512loPI    C1 8177   1.960   4.099  10.731  0.1674 -0.0411  0.0850
  512loPI    C2 8178   2.264   4.272  10.536 -0.0276  0.2508  0.0332
  512loPI    C3 8179   2.272   4.244  10.935  0.1942  0.0009  0.0145
  512loPI   PO4 8180   1.956   3.863  10.501 -0.2455  0.2566  0.0144
  512loPI   GL1 8181   1.868   3.714  10.043 -0.1880  0.1708 -0.1786
  512loPI   GL2 8182   1.636   3.367   9.919 -0.0927 -0.3737  0.1916
  512loPI   C1A 8183   2.079   3.915   9.637  0.1113  0.0657  0.0887
  512loPI   C2A 8184   2.121   3.991   9.242 -0.2409  0.0600  0.2068
  512loPI   C3A 8185   2.176   4.032   8.790 -0.0461 -0.0631 -0.0114
  512loPI   C4A 8186   2.009   4.066   8.432 -0.0273 -0.1472  0.2356
  512loPI   C5A 8187   2.206   3.784   8.134  0.1953  0.1964 -0.2145
  512loPI   C6A 8188   2.537   3.898   7.826  0.0080 -0.0238  0.0291
  512loPI   C1B 8189   1.754   3.453   9.573 -0.1133 -0.1569 -0.0163
  512loPI   C2B 8190   1.729   3.631   9.192 -0.2587  0.0516  0.0792
  512loPI   C3B 8191   1.831   3.600   8.739  0.1083 -0.0400 -0.1646
  512loPI   C4B 8192   1.868   3.393   8.269 -0.0575 -0.1175 -0.1324
  513loPI    C1 8193   9.460  12.224  11.133  0.3707 -0.1857  0.1969
  513loPI    C2 8194   9.232  12.427  11.391  0.0787  0.0288 -0.2184
  513loPI    C3 8195   9.323  12.044  11.463 -0.1338  0.0369  0.1178
  513loPI   PO4 8196   9.319  12.158  10.868 -0.1485  0.0827 -0.1051
  513loPI   GL1 8197   9.166  12.487  10.514  0.0272 -0.1796 -0.0492
  513loPI   GL2 8198   9.078  12.191  10.387 -0.1644  0.1729 -0.1302
  513loPI   C1A 8199   9.267  12.543  10.075  0.0817 -0.1324 -0.1308
  513loPI   C2A 8200   9.499  12.735   9.732  0.0786 -0.0841  0.1644
  513loPI   C3A 8201   9.572  12.928   9.336  0.2499 -0.0007 -0.1194
  513loPI   C4A 8202   9.479  12.735   8.788  0.0774 -0.1498 -0.1354
  513loPI   C5A 8203   9.287  12.633   8.350  0.3318 -0.2957 -0.1896
  513loPI   C6A 8204   9.151  12.817   7.990  0.1088  0.1483 -0.0109
  513loPI   C1B 8205   9.174  12.071  10.008 -0.0273 -0.0640 -0.2098
  513loPI   C2B 8206   9.123  12.045   9.585 -0.1023  0.0519 -0.1448
  513loPI   C3B 8207   9.132  12.053   9.176 -0.0472  0.0011 -0.4045
  513loPI   C4B 8208   9.399  12.152   8.874 -0.0237  0.1541 -0.0195
  514loPI    C1 8209   2.490  13.729  11.066  0.3310 -0.2022 -0.2409
  514loPI    C2 8210   2.473  13.487  11.385  0.0115 -0.0655 -0.1504
  514loPI    C3 8211   2.747  13.778  11.369 -0.0969  0.0519  0.0917
  514loPI   PO4 8212   2.343  13.601  10.862 -0.3048 -0.2591  0.0549
  514loPI   GL1 8213   2.368  13.530  10.504 -0.1245  0.4295 -0.1669
  514loPI   GL2 8214   2.267  13.300  10.328 -0.0863 -0.0780 -0.0929
  514loPI   C1A 8215   2.184  13.855  10.169  0.2065  0.1235 -0.0111
  514loPI   C2A 8216   2.111  13.973   9.745  0.3203 -0.1136  0.1773
  514loPI   C3A 8217   2.186  14.053   9.230  0.3120 -0.2565 -0.3046
  514loPI   C4A 8218   2.072  14.097   8.837 -0.3518  0.0346 -0.0876
  514loPI   C5A 8219   2.287  14.066   8.478  0.0219 -0.2712 -0.3339
  514loPI   C6A 8220   2.628  13.725   8.475 -0.3453 -0.2693 -0.0578
  514loPI   C1B 8221   2.520  13.424  10.070  0.0116  0.0884 -0.0398
  514loPI   C2B 8222   2.520  13.448   9.650 -0.4993 -0.0433  0.2775
  514loPI   C3B 8223   2.514  13.657   9.250  0.2258 -0.2483  0.0721
  514loPI   C4B 8224   2.438  13.730   8.927 -0.0117 -0.0658  0.1689
  515loPI    C1 8225  15.867  18.144  10.999  0.2509  0.1745  0.0096
  515loPI    C2 8226  15.683  18.461  11.158 -0.0170  0.0227  0.0074
  515loPI    C3 8227  16.031  18.335  11.309 -0.1198  0.0612  0.2823
  515loPI   PO4 8228  15.756  18.128  10.714 -0.4222  0.0997  0.1277
  515loPI   GL1 8229  15.998  17.758  10.448 -0.4927 -0.1921 -0.2661
  515loPI   GL2 8230  15.730  17.921  10.238 -0.3859 -0.1690 -0.1596
  515loPI   C1A 8231  16.009  17.526  10.018  0.0799  0.0089  0.1326
  515loPI   C2A 8232  15.964  17.707   9.588 -0.0195  0.1701  0.4831
  515loPI   C3A 8233  15.903  17.577   9.202  0.0333 -0.2870  0.2042
  515loPI   C4A 8234  15.919  17.679   8.780  0.1806 -0.1896 -0.0755
  515loPI   C5A 8235  15.636  17.927   8.530  0.0166 -0.0226  0.2147
  515loPI   C6A 8236  15.733  17.970   8.089 -0.1259  0.0349 -0.1287
  515loPI   C1B 8237  15.676  18.036   9.842  0.0910  0.0891  0.0233
  515loPI   C2B 8238  15.677  18.057   9.320 -0.1754  0.0876  0.3239
  515loPI   C3B 8239  15.517  18.202   8.996  0.1400  0.2533 -0.0710
  515loPI   C4B 8240  15.091  18.183   8.665  0.1074 -0.2658 -0.0310
  516loPI    C1 8241   0.906  16.419  10.907 -0.0002 -0.2623  0.3612
  516loPI    C2 8242   0.516  16.370  10.985 -0.0575 -0.1070  0.1792
  516loPI    C3 8243   0.728  16.643  11.187 -0.1377  0.0889  0.0026
  516loPI   PO4 8244   0.946  16.380  10.600 -0.1935 -0.0877 -0.1765
  516loPI   GL1 8245   0.848  16.417  10.156 -0.2254 -0.2430 -0.0917
  516loPI   GL2 8246   0.552  16.632  10.218  0.4913 -0.0291  0.1030
  516loPI   C1A 8247   0.724  16.267   9.724 -0.1156 -0.1550 -0.2077
  516loPI   C2A 8248   0.573  16.315   9.324 -0.0166  0.0299 -0.3115
  516loPI   C3A 8249   0.583  16.287   8.908 -0.1313 -0.2279  0.2084
  516loPI   C4A 8250   0.466  16.350   8.486  0.0222 -0.1210 -0.2787
  516loPI   C5A 8251   0.358  16.461   8.062 -0.0251  0.1066 -0.2456
  516loPI   C6A 8252   0.451  16.978   7.943  0.2164  0.0331 -0.1635
  516loPI   C1B 8253   0.436  16.657   9.824  0.0299 -0.0437  0.2882
  516loPI   C2B 8254   0.123  16.723   9.447  0.0552 -0.0186  0.1292
  516loPI   C3B 8255   0.184  16.765   8.899  0.2157 -0.1849 -0.2001
  516loPI   C4B 8256   0.219  16.795   8.424  0.0278 -0.1927  0.0653
  517loPI    C1 8257  17.099   9.752  10.701 -0.1205 -0.4445 -0.2866
  517loPI    C2 8258  16.985   9.476  10.968 -0.2173 -0.2055 -0.0769
  517loPI    C3 8259  16.713   9.718  10.801 -0.0979 -0.0478 -0.0448
  517loPI   PO4 8260  17.255   9.595  10.556 -0.0568  0.0232 -0.0420
  517loPI   GL1 8261  17.572   9.691  10.241  0.3048  0.0436  0.0202
  517loPI   GL2 8262  17.322   9.954  10.185 -0.1891 -0.1366 -0.2573
  517loPI   C1A 8263  17.575   9.738   9.726 -0.3123 -0.0027  0.3298
  517loPI   C2A 8264  17.638   9.810   9.245 -0.2946  0.0503 -0.1508
  517loPI   C3A 8265  17.791  10.183   8.970  0.1929  0.0325  0.0625
  517loPI   C4A 8266  17.951  10.196   8.562  0.1333 -0.2836 -0.0466
  517loPI   C5A 8267  18.262  10.181   8.187 -0.1819 -0.0557 -0.0795
  517loPI   C6A 8268  18.362  10.420   7.858  0.0080 -0.0715 -0.3050
  517loPI   C1B 8269  17.182   9.987   9.727  0.0873 -0.1010 -0.0993
  517loPI   C2B 8270  16.829   9.980   9.365  0.0585 -0.0261  0.1763
  517loPI   C3B 8271  16.807   9.950   8.966 -0.1617 -0.0447 -0.0496
  517loPI   C4B 8272  16.946   9.871   8.619 -0.0124 -0.2304  0.1259
  518loPI    C1 8273  10.655  10.029  11.050 -0.1151 -0.1418 -0.0122
  518loPI    C2 8274  10.969   9.991  10.805  0.0332 -0.0901  0.1676
  518loPI    C3 8275  11.019   9.965  11.201 -0.2128 -0.2260  0.1922
  518loPI   PO4 8276  10.495   9.798  10.802  0.0750  0.2990  0.0712
  518loPI   GL1 8277  10.655   9.631  10.516  0.0739 -0.2616 -0.3415
  518loPI   GL2 8278  10.878   9.390  10.606 -0.3042 -0.1003 -0.1272
  518loPI   C1A 8279  10.711   9.781  10.087 -0.1530  0.1181 -0.3139
  518loPI   C2A 8280  10.745   9.763   9.689 -0.1833  0.1453 -0.0014
  518loPI   C3A 8281  10.786   9.773   9.270  0.0653  0.2377  0.3902
  518loPI   C4A 8282  10.845   9.711   8.768 -0.0010 -0.0620  0.1318
  518loPI   C5A 8283  10.956   9.365   8.424  0.2286 -0.1184 -0.0062
  518loPI   C6A 8284  10.618   8.937   8.346 -0.3088  0.0883 -0.2435
  518loPI   C1B 8285  11.014   9.274  10.186  0.3071 -0.0923 -0.0333
  518loPI   C2B 8286  11.083   9.334   9.729  0.2776 -0.0546  0.0964
  518loPI   C3B 8287  11.159   9.396   9.237  0.0382  0.1169  0.0687
  518loPI   C4B 8288  11.190   9.397   8.923  0.0064 -0.1581  0.2132
  519loPI    C1 8289  17.175   4.192  11.065  0.1095  0.0737  0.0053
  519loPI    C2 8290  17.277   4.479  11.325 -0.1815  0.1128  0.0795
  519loPI    C3 8291  17.163   4.119  11.458 -0.0632  0.0431 -0.0049
  519loPI   PO4 8292  17.327   4.300  10.870  0.0287 -0.0229 -0.0559
  519loPI   GL1 8293  17.143   4.553  10.432 -0.0743  0.1260  0.0691
  519loPI   GL2 8294  17.263   4.907  10.378 -0.0633 -0.1204 -0.0548
  519loPI   C1A 8295  17.174   4.369  10.000 -0.1783  0.1168  0.0341
  519loPI   C2A 8296  17.245   4.221   9.594  0.1892 -0.0425  0.1451
  519loPI   C3A 8297  17.200   4.475   9.247 -0.1522  0.0190 -0.0563
  519loPI   C4A 8298  17.123   4.444   8.803  0.0368 -0.0141 -0.0448
  519loPI   C5A 8299  16.836   4.328   8.424  0.0370  0.3054 -0.1204
  519loPI   C6A 8300  16.618   4.088   8.256  0.0061  0.0964 -0.0123
  519loPI   C1B 8301  17.265   5.102   9.986  0.0115  0.0817 -0.1503
  519loPI   C2B 8302  17.465   5.507   9.824 -0.0164  0.1156 -0.3128
  519loPI   C3B 8303  17.629   5.815   9.465  0.1833  0.1612  0.3322
  519loPI   C4B 8304  17.476   5.931   9.098 -0.0618  0.1751  0.1992
  520loPI    C1 8305  16.940  17.809  11.004 -0.1467 -0.0896  0.0449
  520loPI    C2 8306  16.849  17.745  11.388 -0.1327 -0.0260  0.0590
  520loPI    C3 8307  17.224  17.838  11.284 -0.1726  0.1284  0.0505
  520loPI   PO4 8308  16.700  17.562  10.801 -0.0891  0.0225 -0.1603
  520loPI   GL1 8309  16.392  17.473  10.441 -0.1055 -0.2587 -0.1779
  520loPI   GL2 8310  16.370  17.192  10.164  0.0307 -0.1726  0.0640
  520loPI   C1A 8311  16.489  17.766  10.240 -0.2199 -0.0454  0.3469
  520loPI   C2A 8312  16.474  17.737   9.767 -0.4538 -0.2931 -0.0406
  520loPI   C3A 8313  16.448  17.788   9.270 -0.0043  0.0658 -0.1917
  520loPI   C4A 8314  16.395  17.815   8.816 -0.0357 -0.2600  0.0915
  520loPI   C5A 8315  16.274  17.824   8.331 -0.1216 -0.1043  0.0537
  520loPI   C6A 8316  16.214  17.680   7.967  0.0380  0.2525 -0.0841
  520loPI   C1B 8317  16.335  17.254   9.618 -0.1829  0.1226  0.0070
  520loPI   C2B 8318  16.279  17.236   9.238  0.1644  0.1066 -0.5399
  520loPI   C3B 8319  16.204  17.287   8.732  0.0778  0.1037  0.0557
  520loPI   C4B 8320  16.099  17.319   8.288 -0.1411  0.0372  0.0709
  521loPI    C1 8321   8.052   1.032  10.736  0.2432 -0.1360  0.1064
  521loPI    C2 8322   7.715   0.848  10.847  0.1009  0.0486 -0.0113
  521loPI    C3 8323   7.985   0.955  11.122  0.2014 -0.3585  0.0562
  521loPI   PO4 8324   7.979   1.214  10.536 -0.0914  0.1036 -0.0796
  521loPI   GL1 8325   8.183   1.367  10.197  0.1325  0.0197  0.3350
  521loPI   GL2 8326   8.478   1.179  10.057  0.1179  0.4432 -0.1776
  521loPI   C1A 8327   8.207   1.523   9.707 -0.1246  0.1873 -0.1192
  521loPI   C2A 8328   8.339   1.354   9.360  0.3218 -0.1547 -0.0820
  521loPI   C3A 8329   8.225   1.423   8.875 -0.0249 -0.2186  0.0138
  521loPI   C4A 8330   7.981   1.459   8.556  0.1730 -0.3479  0.4861
  521loPI   C5A 8331   7.828   1.268   8.185  0.1224  0.2622 -0.1634
  521loPI   C6A 8332   7.790   0.881   8.097 -0.1915  0.2141  0.0218
  521loPI   C1B 8333   8.713   1.202   9.702 -0.6250  0.4733 -0.2633
  521loPI   C2B 8334   8.792   1.163   9.255  0.1371  0.1747 -0.1754
  521loPI   C3B 8335   8.793   1.210   8.874 -0.0031  0.2271 -0.1137
  521loPI   C4B 8336   8.809   1.288   8.535 -0.1344 -0.1302 -0.1059
  522loPI    C1 8337  17.026  12.714  11.053 -0.3454 -0.2412 -0.2598
  522loPI    C2 8338  16.820  13.017  11.212 -0.0510 -0.0876 -0.1655
  522loPI    C3 8339  17.022  12.766  11.449  0.2116  0.0134 -0.2781
  522loPI   PO4 8340  17.132  12.859  10.833 -0.0935 -0.1174 -0.3659
  522loPI   GL1 8341  16.977  12.921  10.442 -0.1692  0.3105 -0.2089
  522loPI   GL2 8342  17.148  12.625  10.376  0.0665  0.1789  0.2089
  522loPI   C1A 8343  16.884  13.235  10.155  0.2417  0.2176  0.1859
  522loPI   C2A 8344  16.784  13.203   9.704 -0.4271 -0.3662 -0.0885
  522loPI   C3A 8345  16.716  13.216   9.282 -0.1850 -0.0252 -0.0595
  522loPI   C4A 8346  16.762  13.199   8.828  0.2728 -0.1155 -0.1409
  522loPI   C5A 8347  16.615  13.386   8.511 -0.2576 -0.2010 -0.0510
  522loPI   C6A 8348  16.533  13.443   8.105  0.1604  0.1731  0.1749
  522loPI   C1B 8349  17.134  12.809   9.959 -0.0872  0.2022 -0.2378
  522loPI   C2B 8350  17.075  12.832   9.512 -0.0685  0.0126 -0.0531
  522loPI   C3B 8351  17.058  12.844   9.082  0.0126 -0.1466  0.0420
  522loPI   C4B 8352  17.060  12.800   8.654  0.1622 -0.3005 -0.1723
  523loPI    C1 8353   4.277  13.309  10.981 -0.0191 -0.0156 -0.0792
  523loPI    C2 8354   4.083  13.529  10.708 -0.0950  0.0251  0.0071
  523loPI    C3 8355   4.002  13.575  11.097  0.1488  0.1030  0.0506
  523loPI   PO4 8356   4.254  13.035  10.845  0.2050 -0.0764  0.0773
  523loPI   GL1 8357   4.152  12.971  10.451  0.1101  0.1615  0.2204
  523loPI   GL2 8358   3.997  13.184  10.336  0.0349 -0.1680  0.0345
  523loPI   C1A 8359   4.211  12.810  10.073  0.0426  0.2897  0.2446
  523loPI   C2A 8360   4.214  12.800   9.664 -0.3029 -0.0483  0.1602
  523loPI   C3A 8361   4.256  12.852   9.322  0.2435 -0.0374  0.3538
  523loPI   C4A 8362   4.366  12.657   8.860  0.1432  0.0081 -0.0933
  523loPI   C5A 8363   4.428  12.814   8.491  0.2452 -0.1590 -0.3590
  523loPI   C6A 8364   4.774  12.796   8.324 -0.1480  0.0216  0.1366
  523loPI   C1B 8365   3.941  13.185   9.937  0.0906  0.2235 -0.0030
  523loPI   C2B 8366   3.864  13.194   9.551  0.1823  0.0966  0.0537
  523loPI   C3B 8367   3.760  13.044   9.274 -0.0933  0.1871  0.1655
  523loPI   C4B 8368   4.035  13.006   8.886  0.2152 -0.0890  0.0422
  524loPI    C1 8369   8.334   1.870  10.374 -0.0666  0.0490  0.1799
  524loPI    C2 8370   8.020   2.105  10.455 -0.0022  0.0338  0.4856
  524loPI    C3 8371   8.000   1.712  10.529 -0.0663 -0.0422  0.0887
  524loPI   PO4 8372   8.478   2.090  10.284  0.3060 -0.0739  0.0588
  524loPI   GL1 8373   8.760   2.231  10.042 -0.0695 -0.1694 -0.1375
  524loPI   GL2 8374   9.064   2.044  10.096 -0.0927 -0.0968  0.0921
  524loPI   C1A 8375   8.684   2.234   9.578 -0.0425  0.0928 -0.0523
  524loPI   C2A 8376   8.594   2.044   9.265  0.0494  0.2396  0.0135
  524loPI   C3A 8377   8.297   1.962   8.882 -0.1858  0.1594 -0.0223
  524loPI   C4A 8378   8.037   1.984   8.450 -0.3252  0.0794 -0.0200
  524loPI   C5A 8379   7.865   1.742   8.149 -0.0599 -0.2610 -0.3457
  524loPI   C6A 8380   7.479   1.736   8.046  0.2061  0.0560  0.0431
  524loPI   C1B 8381   9.111   1.981   9.637  0.1043  0.0843  0.0524
  524loPI   C2B 8382   9.105   1.916   9.121 -0.0071  0.0486  0.0678
  524loPI   C3B 8383   9.124   1.811   8.773  0.2004 -0.1089 -0.0643
  524loPI   C4B 8384   9.417   2.064   8.460 -0.0509 -0.1693  0.0870
  525loPI    C1 8385   8.498  14.441  10.959 -0.2884 -0.0015 -0.0801
  525loPI    C2 8386   8.635  14.637  11.281  0.0676  0.1908 -0.3407
  525loPI    C3 8387   8.252  14.523  11.263  0.1348 -0.1884  0.3262
  525loPI   PO4 8388   8.499  14.658  10.716 -0.1724 -0.1250 -0.3193
  525loPI   GL1 8389   8.316  14.382  10.358  0.1808 -0.2237 -0.1237
  525loPI   GL2 8390   8.207  14.124  10.441 -0.2202 -0.1909 -0.2881
  525loPI   C1A 8391   8.483  14.365   9.932 -0.1630 -0.0680  0.1153
  525loPI   C2A 8392   8.495  14.419   9.431  0.0809 -0.1798  0.0184
  525loPI   C3A 8393   8.592  14.362   9.115  0.0084  0.3093 -0.1225
  525loPI   C4A 8394   8.548  14.375   8.625 -0.0989 -0.0124 -0.1121
  525loPI   C5A 8395   8.539  14.551   8.224 -0.0168 -0.1109 -0.0644
  525loPI   C6A 8396   8.530  14.774   7.823 -0.1078  0.1082  0.1343
  525loPI   C1B 8397   8.072  14.145   9.986 -0.1645 -0.0458  0.2636
  525loPI   C2B 8398   8.119  14.115   9.597  0.2164 -0.2814 -0.1566
  525loPI   C3B 8399   8.160  14.161   9.199  0.3635  0.2630 -0.0641
  525loPI   C4B 8400   8.126  14.115   8.812  0.0834 -0.0724  0.0341
  526loPI    C1 8401   3.246  15.115  10.776  0.2471 -0.0126  0.0851
  526loPI    C2 8402   2.998  15.427  10.742  0.2575 -0.0072  0.0585
  526loPI    C3 8403   3.092  15.285  11.104  0.2247 -0.0020  0.0691
  526loPI   PO4 8404   3.142  14.968  10.634  0.1476  0.0918  0.3152
  526loPI   GL1 8405   2.844  15.148  10.302  0.1770 -0.1878 -0.1039
  526loPI   GL2 8406   2.993  15.261  10.125  0.2823  0.0386  0.2545
  526loPI   C1A 8407   2.605  14.962  10.011 -0.1759  0.1512  0.0172
  526loPI   C2A 8408   2.402  14.911   9.649 -0.1095 -0.1537  0.2795
  526loPI   C3A 8409   2.406  14.950   9.226 -0.4780 -0.0349  0.1513
  526loPI   C4A 8410   2.509  14.970   8.784  0.0393  0.2169 -0.0719
  526loPI   C5A 8411   2.500  15.055   8.349 -0.1606  0.0931 -0.1826
  526loPI   C6A 8412   2.225  14.952   7.990 -0.2012  0.1725 -0.0657
  526loPI   C1B 8413   2.708  15.372   9.749 -0.2182 -0.0252  0.3499
  526loPI   C2B 8414   2.617  15.391   9.266 -0.3623 -0.1625 -0.0558
  526loPI   C3B 8415   2.601  15.458   8.866  0.0763 -0.0923  0.0722
  526loPI   C4B 8416   2.445  15.671   8.496 -0.0621 -0.1479 -0.0742
  527loPI    C1 8417   9.996  11.523  11.192 -0.1458 -0.1181 -0.0848
  527loPI    C2 8418  10.029  11.819  11.458  0.1253 -0.0859 -0.1513
  527loPI    C3 8419   9.683  11.760  11.267 -0.0282 -0.0194  0.1010
  527loPI   PO4 8420  10.154  11.523  11.030  0.1596  0.1772 -0.1454
  527loPI   GL1 8421  10.389  11.498  10.737 -0.0922 -0.1299  0.2409
  527loPI   GL2 8422  10.323  11.841  10.675 -0.1963 -0.2877 -0.0945
  527loPI   C1A 8423  10.329  11.451  10.237 -0.2772 -0.1155  0.1283
  527loPI   C2A 8424  10.229  11.607   9.845 -0.4660 -0.1438  0.2715
  527loPI   C3A 8425  10.367  11.651   9.373  0.2441  0.2777 -0.0365
  527loPI   C4A 8426  10.386  11.479   8.911  0.1461  0.0317  0.1331
  527loPI   C5A 8427  10.390  11.391   8.466  0.2802  0.0023 -0.4206
  527loPI   C6A 8428  10.256  11.057   8.148  0.1712 -0.1898  0.0841
  527loPI   C1B 8429  10.433  11.994  10.268 -0.0048  0.0250  0.1485
  527loPI   C2B 8430  10.355  12.100   9.773  0.3243 -0.0183 -0.0170
  527loPI   C3B 8431  10.376  12.200   9.287  0.0906  0.0069 -0.0554
  527loPI   C4B 8432  10.569  12.457   8.911 -0.0631 -0.1323  0.2701
  528loPI    C1 8433  13.508  17.887  11.095 -0.1949 -0.0943 -0.2159
  528loPI    C2 8434  13.733  17.583  10.965  0.0772 -0.0437  0.1220
  528loPI    C3 8435  13.555  17.561  11.323 -0.2021  0.0477 -0.0084
  528loPI   PO4 8436  13.608  18.092  11.030  0.2693  0.2727 -0.2440
  528loPI   GL1 8437  13.589  18.364  10.742 -0.1250  0.0663  0.1355
  528loPI   GL2 8438  13.686  18.652  10.669 -0.2363 -0.2779  0.0883
  528loPI   C1A 8439  13.402  18.166  10.269  0.2796 -0.2407 -0.0912
  528loPI   C2A 8440  13.316  18.226   9.877 -0.1110  0.3365  0.2655
  528loPI   C3A 8441  13.233  18.054   9.498  0.2133  0.0748 -0.1951
  528loPI   C4A 8442  13.326  17.979   9.065 -0.2824 -0.0230  0.0712
  528loPI   C5A 8443  13.402  18.091   8.665 -0.0416  0.2219 -0.1287
  528loPI   C6A 8444  13.565  18.373   8.339 -0.0037 -0.1976  0.2264
  528loPI   C1B 8445  13.858  18.408  10.316  0.1368 -0.1970  0.1045
  528loPI   C2B 8446  13.947  18.079  10.084 -0.1279 -0.1154  0.2137
  528loPI   C3B 8447  13.727  17.965   9.775 -0.0372  0.1588  0.2905
  528loPI   C4B 8448  13.711  17.829   9.387 -0.1806 -0.0148  0.1772
  529loPI    C1 8449  10.899   8.430  10.908 -0.0793 -0.1765  0.0800
  529loPI    C2 8450  10.659   8.578  11.191  0.2052  0.0106  0.2285
  529loPI    C3 8451  10.987   8.374  11.294  0.1573 -0.1705  0.0284
  529loPI   PO4 8452  10.728   8.479  10.663  0.1878 -0.1563 -0.0604
  529loPI   GL1 8453  10.844   8.468  10.283  0.0219  0.1843  0.0706
  529loPI   GL2 8454  10.837   8.783  10.222  0.2256 -0.2467  0.0164
  529loPI   C1A 8455  10.653   8.281   9.879  0.0371  0.0715  0.0699
  529loPI   C2A 8456  10.811   8.372   9.473  0.0603 -0.3519 -0.1486
  529loPI   C3A 8457  10.841   8.396   9.026  0.1472 -0.3931 -0.1401
  529loPI   C4A 8458  10.936   8.447   8.585  0.2265  0.0846 -0.0265
  529loPI   C5A 8459  10.781   8.482   8.194  0.1308  0.0887  0.1725
  529loPI   C6A 8460  10.349   8.418   7.948  0.3715  0.1557  0.0114
  529loPI   C1B 8461  10.923   8.839   9.814  0.1016  0.1270  0.2305
  529loPI   C2B 8462  10.948   8.936   9.336 -0.1674 -0.1724  0.0362
  529loPI   C3B 8463  11.001   8.881   8.973  0.2306  0.0523  0.0137
  529loPI   C4B 8464  11.144   8.942   8.605  0.2319 -0.1163  0.2324
  530loPI    C1 8465   4.888  11.152  10.697 -0.0675 -0.1589 -0.1810
  530loPI    C2 8466   5.023  10.803  10.838 -0.1030 -0.0544  0.1193
  530loPI    C3 8467   4.631  10.882  10.841 -0.0830  0.0448  0.1864
  530loPI   PO4 8468   4.921  11.168  10.474 -0.2068 -0.2116  0.3187
  530loPI   GL1 8469   5.023  11.585  10.094 -0.0546 -0.1751 -0.0179
  530loPI   GL2 8470   4.690  11.481  10.101  0.1663  0.0383  0.4322
  530loPI   C1A 8471   5.241  11.812   9.634 -0.0772  0.0760  0.0881
  530loPI   C2A 8472   5.210  11.891   9.220 -0.1904 -0.3344  0.2412
  530loPI   C3A 8473   5.298  11.863   8.674 -0.1882 -0.1693 -0.0725
  530loPI   C4A 8474   5.395  12.073   8.264  0.3035 -0.3150 -0.2991
  530loPI   C5A 8475   5.475  12.166   7.868  0.0810 -0.1912 -0.1366
  530loPI   C6A 8476   5.489  11.987   7.544  0.1259  0.0119 -0.1762
  530loPI   C1B 8477   4.827  11.536   9.683  0.1004  0.1216 -0.1390
  530loPI   C2B 8478   4.745  11.618   9.275 -0.2163 -0.0788 -0.3085
  530loPI   C3B 8479   4.403  11.613   8.947  0.0578 -0.0543 -0.0651
  530loPI   C4B 8480   4.063  11.585   8.671 -0.0020  0.1796  0.1145
  531loPI    C1 8481  13.829   2.545  10.963  0.1252 -0.2064 -0.0194
  531loPI    C2 8482  13.610   2.387  11.258 -0.0848  0.2851  0.0980
  531loPI    C3 8483  13.795   2.738  11.312  0.1388  0.2255 -0.2500
  531loPI   PO4 8484  13.705   2.622  10.755 -0.1322  0.0863  0.0483
  531loPI   GL1 8485  13.748   2.758  10.337 -0.1030 -0.2184 -0.0432
  531loPI   GL2 8486  13.452   2.809  10.104  0.2899 -0.0525 -0.3311
  531loPI   C1A 8487  13.982   3.068  10.098 -0.0704 -0.0941 -0.1130
  531loPI   C2A 8488  14.188   3.019   9.706  0.0107 -0.0429 -0.3167
  531loPI   C3A 8489  14.087   3.048   9.321 -0.2707 -0.2898  0.1319
  531loPI   C4A 8490  14.007   2.859   8.925 -0.0738 -0.1499  0.1678
  531loPI   C5A 8491  14.025   2.599   8.542  0.2593 -0.2104  0.1705
  531loPI   C6A 8492  14.184   2.390   8.192 -0.0744 -0.2422 -0.1157
  531loPI   C1B 8493  13.650   2.735   9.760 -0.0166 -0.1051  0.0402
  531loPI   C2B 8494  13.664   2.735   9.335  0.2161  0.1352 -0.0604
  531loPI   C3B 8495  13.521   2.818   9.020 -0.0300  0.1053  0.1655
  531loPI   C4B 8496  13.352   3.124   8.770  0.1056  0.1695  0.0033
  532loPI    C1 8497   0.342  14.868  11.110  0.1609 -0.1582  0.1993
  532loPI    C2 8498   0.584  14.738  11.400  0.1390 -0.0789  0.2535
  532loPI    C3 8499   0.231  14.560  11.339  0.1765 -0.1442  0.2257
  532loPI   PO4 8500   0.562  14.936  10.897  0.2236  0.0556  0.2588
  532loPI   GL1 8501   0.620  14.864  10.462  0.0037  0.3133 -0.1903
  532loPI   GL2 8502   0.642  15.066  10.254  0.1296 -0.1227 -0.0413
  532loPI   C1A 8503   0.405  14.563  10.156  0.0075  0.0830  0.1334
  532loPI   C2A 8504   0.351  14.567   9.727  0.1557  0.0702  0.0013
  532loPI   C3A 8505   0.399  14.565   9.375  0.0184 -0.1709 -0.3082
  532loPI   C4A 8506   0.363  14.452   8.995 -0.0093  0.0676  0.1041
  532loPI   C5A 8507   0.343  14.488   8.490  0.1260 -0.0168  0.1948
  532loPI   C6A 8508   0.762  14.590   8.161  0.0609 -0.2981  0.1214
  532loPI   C1B 8509   0.543  15.067   9.808 -0.0146  0.1342 -0.2338
  532loPI   C2B 8510   0.533  15.047   9.324  0.0216  0.0855  0.0666
  532loPI   C3B 8511   0.435  14.957   8.887 -0.0442 -0.1505  0.1526
  532loPI   C4B 8512   0.539  14.989   8.459  0.1397 -0.2024  0.1849
  533loPI    C1 8513  18.055  14.923  11.391  0.1760  0.1634 -0.2994
  533loPI    C2 8514  18.016  15.322  11.389  0.3291  0.1865  0.1176
  533loPI    C3 8515  17.973  15.119  11.731 -0.0366 -0.1908 -0.1413
  533loPI   PO4 8516  18.040  14.900  11.124  0.0917  0.1662 -0.2136
  533loPI   GL1 8517  18.088  14.854  10.610 -0.1281 -0.1011  0.1813
  533loPI   GL2 8518  17.925  15.100  10.489 -0.0209 -0.0502 -0.2635
  533loPI   C1A 8519  18.079  14.639  10.300  0.0621  0.0179 -0.1897
  533loPI   C2A 8520  18.078  14.436   9.798 -0.0234  0.1514 -0.2365
  533loPI   C3A 8521  18.035  14.419   9.371 -0.1924 -0.1330  0.1912
  533loPI   C4A 8522  18.029  14.394   8.963  0.0257  0.3550  0.1253
  533loPI   C5A 8523  18.084  14.392   8.554  0.1805 -0.0789  0.4780
  533loPI   C6A 8524  18.027  14.352   8.123 -0.0275  0.2171 -0.1257
  533loPI   C1B 8525  17.724  14.964  10.165 -0.0803  0.0094  0.1558
  533loPI   C2B 8526  17.717  14.802   9.756 -0.1230 -0.3544 -0.0759
  533loPI   C3B 8527  17.719  14.791   9.290 -0.0873 -0.1642  0.1579
  533loPI   C4B 8528  17.691  14.765   8.845 -0.4611 -0.1691 -0.1236
  534loPI    C1 8529   2.712   4.122  10.676  0.1371  0.1151 -0.1194
  534loPI    C2 8530   3.059   4.143  10.874  0.0277 -0.0155  0.0903
  534loPI    C3 8531   2.714   4.132  11.076 -0.0949  0.0158 -0.1143
  534loPI   PO4 8532   2.789   4.040  10.435  0.3618 -0.0576 -0.0089
  534loPI   GL1 8533   2.923   4.162  10.046 -0.1187 -0.0615  0.2381
  534loPI   GL2 8534   3.080   4.406  10.203  0.0219  0.0185  0.0298
  534loPI   C1A 8535   3.068   4.148   9.634 -0.1066  0.0093  0.0708
  534loPI   C2A 8536   3.010   4.247   9.221 -0.2009  0.0923 -0.0797
  534loPI   C3A 8537   3.055   4.292   8.768 -0.0390 -0.0847 -0.1928
  534loPI   C4A 8538   2.851   4.355   8.417 -0.2496 -0.0221 -0.0199
  534loPI   C5A 8539   2.725   4.368   7.985 -0.1405  0.0597  0.0764
  534loPI   C6A 8540   2.998   4.345   7.659 -0.1356 -0.1466  0.0256
  534loPI   C1B 8541   3.374   4.533   9.898  0.2627  0.2221 -0.0467
  534loPI   C2B 8542   3.374   4.605   9.458  0.1055 -0.1892  0.3257
  534loPI   C3B 8543   3.304   4.627   9.033 -0.0499 -0.0858  0.0824
  534loPI   C4B 8544   3.268   4.622   8.524 -0.2473 -0.0525 -0.1468
  535loPI    C1 8545   9.044  10.643  11.111  0.0728 -0.1786 -0.0490
  535loPI    C2 8546   8.867  10.567  11.462 -0.1869 -0.4649 -0.2380
  535loPI    C3 8547   9.266  10.587  11.440 -0.1787 -0.0554  0.1453
  535loPI   PO4 8548   8.893  10.587  10.938  0.2217  0.0341 -0.1455
  535loPI   GL1 8549   8.918  10.731  10.519 -0.0703 -0.0004  0.2289
  535loPI   GL2 8550   8.685  10.719  10.250  0.0054  0.0097 -0.3352
  535loPI   C1A 8551   9.163  10.766  10.148  0.1042  0.0839 -0.2306
  535loPI   C2A 8552   9.245  10.813   9.665  0.2106 -0.0181 -0.1017
  535loPI   C3A 8553   9.322  10.823   9.136 -0.1892  0.0113  0.0884
  535loPI   C4A 8554   9.210  10.866   8.720  0.0257  0.1136 -0.0266
  535loPI   C5A 8555   9.466  10.842   8.350 -0.0491  0.1050  0.0215
  535loPI   C6A 8556   9.793  11.062   8.400 -0.0573 -0.1084  0.2962
  535loPI   C1B 8557   8.671  10.599   9.816 -0.0266 -0.0772  0.0634
  535loPI   C2B 8558   8.751  10.641   9.348 -0.1712  0.0061  0.2583
  535loPI   C3B 8559   8.809  10.677   8.963  0.0998  0.0264 -0.1351
  535loPI   C4B 8560   8.837  10.626   8.537  0.0062  0.2174  0.2874
  536loPI    C1 8561  12.146   2.335  11.053 -0.1830 -0.3048 -0.0847
  536loPI    C2 8562  11.856   2.225  11.306 -0.3473  0.0829 -0.0972
  536loPI    C3 8563  11.979   2.605  11.297  0.0236 -0.0360 -0.2359
  536loPI   PO4 8564  12.101   2.198  10.819  0.2602  0.0395 -0.2097
  536loPI   GL1 8565  12.098   2.211  10.388 -0.2620  0.2676  0.1970
  536loPI   GL2 8566  12.340   2.443  10.267 -0.0624 -0.1182 -0.3240
  536loPI   C1A 8567  12.084   1.963  10.056 -0.2255  0.0494 -0.3054
  536loPI   C2A 8568  12.269   1.942   9.650  0.3203 -0.1290  0.1412
  536loPI   C3A 8569  12.340   1.912   9.235  0.3808 -0.1261 -0.0688
  536loPI   C4A 8570  12.268   1.897   8.795  0.3083  0.0002 -0.1306
  536loPI   C5A 8571  12.171   2.169   8.400 -0.0403  0.2577 -0.0868
  536loPI   C6A 8572  12.171   2.546   8.327 -0.1713 -0.1473  0.3157
  536loPI   C1B 8573  12.247   2.412   9.890 -0.0158 -0.1658  0.0826
  536loPI   C2B 8574  12.340   2.444   9.486  0.1708 -0.0441  0.2779
  536loPI   C3B 8575  12.317   2.454   9.053  0.2348 -0.1893  0.0154
  536loPI   C4B 8576  12.637   2.633   8.758  0.0083 -0.2048  0.2638
  537loPI    C1 8577   2.737  10.980  10.849 -0.0548  0.1536  0.1897
  537loPI    C2 8578   2.998  11.018  11.151  0.1913 -0.0914  0.0122
  537loPI    C3 8579   2.650  10.828  11.209  0.0945  0.1454  0.2230
  537loPI   PO4 8580   2.911  11.170  10.661  0.2899 -0.1069  0.0884
  537loPI   GL1 8581   2.960  11.229  10.276  0.0054  0.0533 -0.0824
  537loPI   GL2 8582   3.337  11.346  10.284  0.0102 -0.4077  0.0541
  537loPI   C1A 8583   2.793  11.134   9.903  0.0842 -0.0475  0.1794
  537loPI   C2A 8584   2.955  11.148   9.365  0.1696  0.0134  0.2220
  537loPI   C3A 8585   3.081  11.223   8.974 -0.0907 -0.1356 -0.1824
  537loPI   C4A 8586   2.805  11.154   8.519  0.0185  0.0266 -0.0573
  537loPI   C5A 8587   3.006  11.037   8.174  0.1624  0.1497 -0.2409
  537loPI   C6A 8588   3.453  11.072   8.075 -0.0719  0.1214  0.0271
  537loPI   C1B 8589   3.145  11.510   9.907 -0.2040  0.3205 -0.0364
  537loPI   C2B 8590   3.241  11.826   9.601  0.1569  0.3215  0.1168
  537loPI   C3B 8591   3.016  12.036   9.275  0.4279 -0.0237  0.0580
  537loPI   C4B 8592   2.892  12.112   8.807  0.2533  0.0411 -0.2472
  538loPI    C1 8593   2.063  15.112  11.100 -0.1948  0.0322 -0.0561
  538loPI    C2 8594   2.154  15.252  11.464  0.0351 -0.1277 -0.0497
  538loPI    C3 8595   1.785  15.117  11.387 -0.1568  0.3629 -0.0218
  538loPI   PO4 8596   2.175  15.308  10.864  0.1214 -0.4374 -0.0600
  538loPI   GL1 8597   2.200  15.162  10.472  0.1036 -0.2337  0.2074
  538loPI   GL2 8598   2.207  14.863  10.316  0.0030 -0.0069  0.0998
  538loPI   C1A 8599   2.246  15.345  10.074  0.0693 -0.0542  0.2324
  538loPI   C2A 8600   2.193  15.339   9.603  0.2779 -0.3452  0.1708
  538loPI   C3A 8601   2.082  15.288   9.133  0.0555  0.2236  0.0678
  538loPI   C4A 8602   2.122  15.329   8.703  0.1202 -0.0147  0.0907
  538loPI   C5A 8603   1.974  15.341   8.229  0.3083 -0.3838  0.0281
  538loPI   C6A 8604   2.017  15.482   7.783  0.0317  0.0172  0.0699
  538loPI   C1B 8605   1.963  14.827   9.883 -0.1374  0.0029 -0.0675
  538loPI   C2B 8606   1.940  14.869   9.444 -0.2917  0.0825 -0.0249
  538loPI   C3B 8607   1.907  14.811   9.032  0.1216  0.0016  0.3165
  538loPI   C4B 8608   2.045  14.841   8.602 -0.0796 -0.2782 -0.0241
  539loPI    C1 8609   1.812   5.836  10.842 -0.0108  0.0171 -0.0200
  539loPI    C2 8610   1.503   5.629  10.695  0.0022 -0.0754  0.0826
  539loPI    C3 8611   1.503   5.744  11.078 -0.0811  0.2591 -0.0150
  539loPI   PO4 8612   1.957   5.839  10.704 -0.3429 -0.1902 -0.1532
  539loPI   GL1 8613   2.096   5.694  10.357  0.1357 -0.2013 -0.1138
  539loPI   GL2 8614   1.797   5.819  10.239 -0.0780 -0.0543 -0.0813
  539loPI   C1A 8615   2.323   5.843   9.991  0.0787 -0.3079 -0.1975
  539loPI   C2A 8616   2.216   6.116   9.658 -0.4066  0.3969 -0.5340
  539loPI   C3A 8617   2.248   6.121   9.167 -0.1068  0.1014 -0.2272
  539loPI   C4A 8618   2.225   6.070   8.771 -0.1147 -0.2662  0.1800
  539loPI   C5A 8619   2.017   5.990   8.453  0.1777  0.1620 -0.0921
  539loPI   C6A 8620   1.729   5.997   8.145  0.1176  0.0292  0.0372
  539loPI   C1B 8621   1.844   5.725   9.874  0.1132 -0.1743 -0.1505
  539loPI   C2B 8622   1.917   5.779   9.380 -0.0518  0.0282 -0.0727
  539loPI   C3B 8623   2.043   5.451   9.103 -0.0890  0.1012 -0.2868
  539loPI   C4B 8624   1.920   5.298   8.736 -0.2707  0.0432  0.0784
  540loPI    C1 8625   0.446   9.944  11.114  0.0710 -0.1422 -0.1771
  540loPI    C2 8626   0.713  10.212  10.984  0.0975 -0.1601 -0.1598
  540loPI    C3 8627   0.837   9.861  11.132  0.0633 -0.1775 -0.1722
  540loPI   PO4 8628   0.293   9.944  10.888  0.0473  0.2232 -0.1791
  540loPI   GL1 8629   0.275  10.249  10.500 -0.0907  0.2687  0.2543
  540loPI   GL2 8630   0.550  10.124  10.483  0.0747 -0.1614  0.2835
  540loPI   C1A 8631   0.142  10.334  10.137  0.3235  0.1075 -0.2431
  540loPI   C2A 8632  -0.030  10.285   9.736  0.3240 -0.1870  0.3398
  540loPI   C3A 8633  -0.022  10.309   9.328  0.1763 -0.1022  0.2631
  540loPI   C4A 8634   0.179  10.294   8.904  0.0469  0.1020  0.1656
  540loPI   C5A 8635   0.205  10.518   8.496  0.1392  0.0053  0.1714
  540loPI   C6A 8636  -0.121  10.767   8.235 -0.1446  0.1889  0.1379
  540loPI   C1B 8637   0.636  10.374  10.119 -0.0860  0.2164 -0.2699
  540loPI   C2B 8638   0.512  10.395   9.676 -0.0105 -0.0079  0.1057
  540loPI   C3B 8639   0.576  10.463   9.264 -0.2681 -0.0030  0.0661
  540loPI   C4B 8640   0.685  10.495   8.878 -0.1027  0.2377  0.0512
  541loPI    C1 8641   3.336   6.368  10.709 -0.0071 -0.0911 -0.0004
  541loPI    C2 8642   3.577   6.082  10.568  0.1104 -0.0068  0.0287
  541loPI    C3 8643   3.700   6.318  10.867  0.0791  0.1832 -0.1072
  541loPI   PO4 8644   3.041   6.429  10.692  0.3278  0.0824 -0.1215
  541loPI   GL1 8645   2.829   6.285  10.352  0.3900 -0.0025  0.2350
  541loPI   GL2 8646   3.122   6.370  10.232 -0.2635  0.1435  0.0407
  541loPI   C1A 8647   2.611   6.319  10.028  0.0518 -0.0719 -0.2850
  541loPI   C2A 8648   2.562   6.569   9.690 -0.0310 -0.0079 -0.1399
  541loPI   C3A 8649   2.620   6.583   9.199  0.1001  0.0088 -0.0660
  541loPI   C4A 8650   2.621   6.555   8.823 -0.0218 -0.3285  0.2326
  541loPI   C5A 8651   2.466   6.366   8.352 -0.1608 -0.1290 -0.4694
  541loPI   C6A 8652   2.188   6.329   8.007  0.0002 -0.2568  0.1997
  541loPI   C1B 8653   3.031   6.380   9.751  0.1281  0.0427 -0.0812
  541loPI   C2B 8654   3.101   6.456   9.395 -0.1383  0.1714  0.1390
  541loPI   C3B 8655   3.139   6.430   8.939 -0.2257 -0.1970 -0.2166
  541loPI   C4B 8656   3.056   6.441   8.454  0.0227 -0.0081 -0.0018
  542loPI    C1 8657   9.120   4.908  10.572  0.0872 -0.1008 -0.0408
  542loPI    C2 8658   9.042   4.536  10.698  0.0077 -0.1290 -0.1716
  542loPI    C3 8659   8.926   4.850  10.917  0.1663 -0.1816 -0.0093
  542loPI   PO4 8660   9.048   4.845  10.314 -0.1202 -0.3890 -0.5334
  542loPI   GL1 8661   9.079   4.573   9.978 -0.0848 -0.2896 -0.1275
  542loPI   GL2 8662   9.369   4.613   9.915 -0.1189  0.0616 -0.1461
  542loPI   C1A 8663   9.023   4.581   9.519 -0.0437  0.0560 -0.2701
  542loPI   C2A 8664   9.098   4.747   9.143  0.0444  0.2060 -0.2923
  542loPI   C3A 8665   9.259   4.719   8.702  0.3150 -0.0647  0.0034
  542loPI   C4A 8666   9.306   4.640   8.337  0.1102 -0.1592 -0.2033
  542loPI   C5A 8667   9.319   4.779   8.033 -0.0300  0.0806  0.0884
  542loPI   C6A 8668   9.265   4.852   7.609  0.1329 -0.2830  0.2322
  542loPI   C1B 8669   9.487   4.492   9.633 -0.1616  0.2049 -0.0786
  542loPI   C2B 8670   9.468   4.413   9.211  0.2387 -0.0438  0.2227
  542loPI   C3B 8671   9.552   4.185   8.893  0.0693 -0.0452 -0.0125
  542loPI   C4B 8672   9.571   4.248   8.521  0.0213  0.1594  0.1900
  543loPI    C1 8673   1.962  17.002  10.702  0.0146  0.1523 -0.2181
  543loPI    C2 8674   1.655  17.243  10.791  0.0985  0.1747  0.0181
  543loPI    C3 8675   1.597  16.849  10.757  0.0596  0.1679  0.1547
  543loPI   PO4 8676   2.105  17.027  10.524 -0.0728 -0.0807  0.0114
  543loPI   GL1 8677   2.352  17.133  10.066 -0.0863  0.1831 -0.3389
  543loPI   GL2 8678   2.636  17.151  10.129  0.1490 -0.0089 -0.0077
  543loPI   C1A 8679   2.382  17.170   9.578  0.1204  0.1274 -0.0179
  543loPI   C2A 8680   2.357  17.141   9.189  0.0103 -0.1011  0.0986
  543loPI   C3A 8681   2.546  17.332   8.850  0.0785  0.0945 -0.0755
  543loPI   C4A 8682   2.764  17.421   8.482 -0.0539 -0.2392 -0.2510
  543loPI   C5A 8683   2.940  17.331   8.091  0.2362  0.1736 -0.1007
  543loPI   C6A 8684   3.146  17.529   7.726 -0.1428  0.0520 -0.1663
  543loPI   C1B 8685   2.749  16.869   9.764 -0.1909  0.0284  0.0627
  543loPI   C2B 8686   2.641  16.777   9.360  0.1729  0.2054  0.1824
  543loPI   C3B 8687   2.588  16.829   8.903 -0.3520 -0.2690  0.2156
  543loPI   C4B 8688   2.561  16.963   8.462  0.0972  0.1434 -0.3222
  544loPI    C1 8689   6.738  15.670  11.067 -0.0355 -0.0174 -0.0650
  544loPI    C2 8690   6.860  15.822  11.417  0.2406 -0.1167 -0.1152
  544loPI    C3 8691   6.875  15.427  11.354 -0.1048 -0.1312 -0.1275
  544loPI   PO4 8692   6.849  15.728  10.907  0.3854  0.3149  0.1926
  544loPI   GL1 8693   6.769  15.596  10.443 -0.1540  0.1347  0.1688
  544loPI   GL2 8694   6.842  15.971  10.359 -0.1366  0.2024  0.1286
  544loPI   C1A 8695   6.974  15.587  10.060  0.1115  0.2710 -0.1192
  544loPI   C2A 8696   7.100  15.596   9.647 -0.0574  0.0447 -0.0362
  544loPI   C3A 8697   7.107  15.629   9.139  0.1239 -0.4610 -0.0188
  544loPI   C4A 8698   7.277  15.491   8.728  0.0326 -0.2090  0.3353
  544loPI   C5A 8699   7.622  15.372   8.595 -0.1203  0.0633 -0.0810
  544loPI   C6A 8700   7.829  15.314   8.196 -0.0593 -0.0604 -0.0831
  544loPI   C1B 8701   7.130  16.060   9.975 -0.1751 -0.2805 -0.0299
  544loPI   C2B 8702   7.092  16.106   9.470  0.0887  0.0928  0.1251
  544loPI   C3B 8703   7.031  16.181   9.036  0.0939 -0.1565 -0.1604
  544loPI   C4B 8704   7.158  15.969   8.702 -0.2012 -0.2948 -0.1574
  545loPI    C1 8705   8.862   9.363  11.604 -0.0350  0.0774  0.0104
  545loPI    C2 8706   9.091   9.691  11.592  0.3060 -0.1549  0.0329
  545loPI    C3 8707   9.249   9.341  11.706  0.0252 -0.3928 -0.2895
  545loPI   PO4 8708   8.752   9.365  11.411 -0.0400 -0.2904 -0.2555
  545loPI   GL1 8709   8.895   9.684  11.081 -0.0543 -0.0620  0.0884
  545loPI   GL2 8710   8.539   9.608  10.999  0.0565 -0.0002  0.0727
  545loPI   C1A 8711   8.918   9.631  10.575  0.2866  0.1221  0.2089
  545loPI   C2A 8712   9.288   9.792  10.274  0.2369  0.0064 -0.1439
  545loPI   C3A 8713   9.371   9.996   9.859  0.1196 -0.2030  0.2258
  545loPI   C4A 8714   9.476   9.842   9.461  0.0225  0.0104  0.0625
  545loPI   C5A 8715   9.536   9.929   8.952  0.0886 -0.0637 -0.0614
  545loPI   C6A 8716   9.550  10.107   8.575 -0.2112  0.2121 -0.2043
  545loPI   C1B 8717   8.338   9.619  10.563 -0.2209  0.0067  0.1582
  545loPI   C2B 8718   8.342   9.591  10.096 -0.1137 -0.0866 -0.1514
  545loPI   C3B 8719   8.477   9.593   9.703  0.0206  0.0636  0.1928
  545loPI   C4B 8720   8.695   9.265   9.496  0.2623 -0.1341 -0.3451
  546loPI    C1 8721   5.000  10.125  10.836  0.1301  0.1432  0.1207
  546loPI    C2 8722   4.732  10.407  10.928  0.0495  0.1235 -0.0502
  546loPI    C3 8723   5.064  10.368  11.147  0.0261  0.3026  0.0188
  546loPI   PO4 8724   4.991  10.094  10.627  0.1258 -0.0471  0.1257
  546loPI   GL1 8725   5.111  10.084  10.222  0.1958 -0.2069  0.0095
  546loPI   GL2 8726   5.188  10.355  10.187 -0.2872  0.2072 -0.1491
  546loPI   C1A 8727   5.068   9.946   9.801  0.0032 -0.0663 -0.2435
  546loPI   C2A 8728   5.164   9.709   9.529 -0.1237  0.1571 -0.0070
  546loPI   C3A 8729   5.429   9.385   9.195 -0.1277 -0.3616 -0.1133
  546loPI   C4A 8730   5.689   9.379   8.812 -0.2375  0.0192 -0.0259
  546loPI   C5A 8731   5.939   9.288   8.447 -0.1736 -0.0817 -0.1832
  546loPI   C6A 8732   6.247   9.238   8.249  0.2823  0.2790  0.3517
  546loPI   C1B 8733   5.560  10.226   9.902  0.0158 -0.1403  0.0230
  546loPI   C2B 8734   5.566  10.102   9.530  0.0636 -0.1161  0.2362
  546loPI   C3B 8735   5.343   9.979   9.082 -0.2485 -0.1158 -0.2502
  546loPI   C4B 8736   4.995   9.922   8.869 -0.2524 -0.0666  0.2749
  547loPI    C1 8737  12.843  12.814  10.810 -0.0034 -0.1304  0.0417
  547loPI    C2 8738  12.687  13.098  11.044  0.1450  0.0029 -0.0195
  547loPI    C3 8739  12.999  12.883  11.171 -0.1201 -0.3030  0.1264
  547loPI   PO4 8740  12.833  12.937  10.568 -0.0090  0.4091  0.0192
  547loPI   GL1 8741  12.572  12.940  10.313 -0.0158  0.2628 -0.0138
  547loPI   GL2 8742  12.239  12.917  10.276  0.1381  0.1565  0.0419
  547loPI   C1A 8743  12.622  12.884   9.825 -0.0110  0.1651  0.0751
  547loPI   C2A 8744  12.718  13.056   9.350 -0.2347 -0.3151 -0.3948
  547loPI   C3A 8745  12.517  13.297   9.016  0.0463  0.1586 -0.2925
  547loPI   C4A 8746  12.351  13.554   8.703 -0.0122  0.2635 -0.0103
  547loPI   C5A 8747  12.190  13.515   8.369  0.0992 -0.2370 -0.0820
  547loPI   C6A 8748  11.958  13.261   8.040 -0.1004  0.1043 -0.1783
  547loPI   C1B 8749  12.104  12.764   9.861  0.0472 -0.1505 -0.0798
  547loPI   C2B 8750  11.855  12.508   9.624 -0.3187  0.1103  0.1188
  547loPI   C3B 8751  11.918  12.257   9.222  0.1629  0.0765 -0.0050
  547loPI   C4B 8752  11.919  11.849   9.055 -0.3044  0.1092  0.0160
  548loPI    C1 8753  10.025  12.135  11.009  0.1832  0.0811 -0.1348
  548loPI    C2 8754   9.912  12.340  11.333 -0.0154 -0.0100 -0.1452
  548loPI    C3 8755  10.106  12.526  11.036  0.0668  0.0980 -0.0251
  548loPI   PO4 8756   9.813  12.024  10.865  0.0196 -0.3318  0.0958
  548loPI   GL1 8757   9.820  11.991  10.520  0.1926  0.1099  0.1410
  548loPI   GL2 8758   9.569  12.155  10.355  0.0289 -0.0371 -0.1296
  548loPI   C1A 8759   9.974  11.921  10.089 -0.3123 -0.5126  0.3469
  548loPI   C2A 8760   9.925  11.963   9.580  0.0502 -0.3518  0.1905
  548loPI   C3A 8761   9.982  11.874   9.118 -0.2824 -0.0589 -0.0537
  548loPI   C4A 8762  10.089  12.171   8.808  0.0472 -0.0160  0.0037
  548loPI   C5A 8763   9.944  12.261   8.430  0.0200  0.0027 -0.0914
  548loPI   C6A 8764   9.988  12.684   8.208  0.1122 -0.1931 -0.1789
  548loPI   C1B 8765   9.611  12.213   9.869 -0.1057 -0.1983  0.0559
  548loPI   C2B 8766   9.489  12.304   9.388  0.0873  0.1604 -0.0903
  548loPI   C3B 8767   9.234  12.575   9.157  0.1429  0.0947  0.1160
  548loPI   C4B 8768   8.919  12.444   8.890 -0.1100 -0.1191  0.0730
  549loPI    C1 8769   9.726  10.575  11.190 -0.0129  0.1587  0.0696
  549loPI    C2 8770  10.060  10.539  11.407 -0.0976 -0.1742  0.1509
  549loPI    C3 8771   9.719  10.376  11.537 -0.2820  0.1154  0.0412
  549loPI   PO4 8772   9.823  10.606  10.971  0.0645 -0.0573 -0.0174
  549loPI   GL1 8773   9.866  10.672  10.599 -0.3792 -0.2328 -0.0225
  549loPI   GL2 8774  10.012  10.512  10.347  0.0863 -0.1335  0.0110
  549loPI   C1A 8775   9.692  10.898  10.197 -0.0122  0.2965  0.0628
  549loPI   C2A 8776   9.747  10.917   9.751  0.2516  0.0188 -0.1664
  549loPI   C3A 8777   9.752  10.959   9.306  0.1598 -0.0228  0.1848
  549loPI   C4A 8778   9.729  10.927   8.875 -0.2145  0.0522  0.2751
  549loPI   C5A 8779   9.862  10.580   8.507 -0.3316  0.0320  0.3651
  549loPI   C6A 8780   9.857  10.606   8.077  0.0494 -0.0712 -0.3105
  549loPI   C1B 8781  10.074  10.471   9.842 -0.0963  0.0176  0.2137
  549loPI   C2B 8782  10.102  10.574   9.400 -0.2419  0.0780 -0.0238
  549loPI   C3B 8783  10.104  10.561   8.968 -0.1930  0.0018 -0.0369
  549loPI   C4B 8784  10.211  10.928   8.690 -0.3015 -0.0565  0.0965
  550loPI    C1 8785  10.220   8.928  11.026 -0.0871  0.0707  0.0423
  550loPI    C2 8786  10.484   9.018  11.312  0.0186  0.0476 -0.0476
  550loPI    C3 8787  10.404   9.283  11.023  0.1821 -0.0674 -0.2002
  550loPI   PO4 8788  10.327   8.728  10.855 -0.1545 -0.0227 -0.0519
  550loPI   GL1 8789  10.395   8.789  10.450 -0.0756 -0.1076  0.4044
  550loPI   GL2 8790  10.511   9.058  10.513 -0.1084  0.0250  0.1723
  550loPI   C1A 8791  10.370   8.684  10.008  0.0090 -0.1570 -0.3370
  550loPI   C2A 8792  10.405   8.706   9.628 -0.3554  0.0176 -0.0579
  550loPI   C3A 8793  10.468   8.802   9.188 -0.0994 -0.2217 -0.0976
  550loPI   C4A 8794  10.435   8.770   8.766 -0.0877  0.4284  0.0097
  550loPI   C5A 8795  10.164   8.818   8.364  0.1368 -0.3427 -0.0169
  550loPI   C6A 8796  10.145   8.907   7.938 -0.0911  0.3180  0.2752
  550loPI   C1B 8797  10.598   9.189   9.995 -0.0819  0.0464  0.0632
  550loPI   C2B 8798  10.600   9.254   9.581  0.0488  0.0307 -0.0721
  550loPI   C3B 8799  10.665   9.299   9.170 -0.0522 -0.0437  0.0168
  550loPI   C4B 8800  10.637   9.248   8.768  0.0852 -0.1392 -0.1540
  551loPI    C1 8801   0.194  17.218  10.800 -0.0677 -0.1899  0.0450
  551loPI    C2 8802   0.284  16.947  11.080  0.1201  0.0664  0.2389
  551loPI    C3 8803   0.113  17.293  11.185 -0.2035 -0.0102 -0.0171
  551loPI   PO4 8804   0.098  16.952  10.568  0.1326  0.0891  0.0949
  551loPI   GL1 8805   0.029  16.703  10.187 -0.2795  0.1112 -0.1421
  551loPI   GL2 8806  -0.260  16.971  10.156  0.0609  0.3503 -0.1426
  551loPI   C1A 8807  -0.186  16.634   9.834 -0.0401 -0.2571 -0.0549
  551loPI   C2A 8808  -0.608  16.812   9.688 -0.0118 -0.1883  0.2462
  551loPI   C3A 8809  -0.882  17.255   9.693 -0.2166  0.2311  0.1624
  551loPI   C4A 8810  -0.962  17.484   9.309 -0.0733 -0.1779 -0.1506
  551loPI   C5A 8811  -0.980  17.556   8.942 -0.1409 -0.1765  0.3774
  551loPI   C6A 8812  -1.016  17.470   8.508  0.0832  0.0635 -0.0925
  551loPI   C1B 8813  -0.391  17.250   9.951  0.1629 -0.0967  0.0200
  551loPI   C2B 8814  -0.489  17.524   9.564  0.0988 -0.2440 -0.2501
  551loPI   C3B 8815  -0.506  17.582   9.144 -0.3391  0.2271 -0.3240
  551loPI   C4B 8816  -0.357  17.489   8.666  0.0169 -0.2957 -0.3464
  552loPI    C1 8817  11.771  13.743  11.053  0.2799 -0.1292  0.0379
  552loPI    C2 8818  12.000  14.071  11.052  0.1117 -0.0101 -0.1070
  552loPI    C3 8819  11.688  14.046  11.300  0.1804 -0.1019 -0.0287
  552loPI   PO4 8820  11.838  13.747  10.701  0.1947  0.2195 -0.1988
  552loPI   GL1 8821  11.587  13.747  10.352  0.0995  0.0829 -0.0654
  552loPI   GL2 8822  11.723  13.619  10.116 -0.1498 -0.1820  0.0671
  552loPI   C1A 8823  11.419  14.030  10.035 -0.1511 -0.0014 -0.4825
  552loPI   C2A 8824  11.372  14.042   9.576  0.1794  0.1675 -0.3552
  552loPI   C3A 8825  11.236  13.983   9.212  0.1332  0.1642  0.3647
  552loPI   C4A 8826  11.290  14.088   8.816 -0.0634  0.1452  0.0411
  552loPI   C5A 8827  11.454  13.969   8.563  0.0821 -0.2221 -0.2369
  552loPI   C6A 8828  11.560  13.664   8.236 -0.2824  0.2566 -0.0064
  552loPI   C1B 8829  11.427  13.518   9.798  0.0338  0.0514 -0.1055
  552loPI   C2B 8830  11.436  13.435   9.322 -0.3325 -0.1056 -0.1087
  552loPI   C3B 8831  11.356  13.571   8.921  0.2496  0.0280 -0.0821
  552loPI   C4B 8832  11.250  13.512   8.567 -0.1278 -0.1391  0.1172
  553loPI    C1 8833   7.637  15.724  10.890 -0.1620 -0.1609  0.0508
  553loPI    C2 8834   7.467  16.079  10.961  0.0476 -0.0689  0.0994
  553loPI    C3 8835   7.314  15.748  11.124  0.0149  0.0343  0.2805
  553loPI   PO4 8836   7.765  15.861  10.606  0.1549 -0.0208  0.3611
  553loPI   GL1 8837   7.528  15.817  10.204  0.2196 -0.0863 -0.1303
  553loPI   GL2 8838   7.647  16.180  10.259 -0.1511 -0.0837 -0.0486
  553loPI   C1A 8839   7.536  15.889   9.702  0.1678 -0.1926  0.3141
  553loPI   C2A 8840   7.594  15.925   9.233 -0.0603  0.0706 -0.3132
  553loPI   C3A 8841   7.617  15.832   8.823 -0.3707  0.4252  0.0944
  553loPI   C4A 8842   7.567  15.950   8.420 -0.4159  0.0062  0.1156
  553loPI   C5A 8843   7.625  15.741   8.075 -0.1384 -0.0177  0.0995
  553loPI   C6A 8844   7.801  15.625   7.640  0.2432 -0.2896  0.1526
  553loPI   C1B 8845   7.590  16.380   9.777  0.3068  0.0717  0.2401
  553loPI   C2B 8846   7.522  16.396   9.238  0.1742 -0.0464  0.0181
  553loPI   C3B 8847   7.507  16.333   8.833  0.2770  0.0558 -0.0734
  553loPI   C4B 8848   7.217  16.398   8.504 -0.1982  0.0487 -0.0243
  554loPI    C1 8849   6.158   4.119  10.354  0.0218 -0.0496  0.0289
  554loPI    C2 8850   6.476   4.331  10.237 -0.1178 -0.0121 -0.2942
  554loPI    C3 8851   6.437   3.950  10.122  0.0595 -0.1769  0.1649
  554loPI   PO4 8852   5.963   4.289  10.214 -0.0298  0.0104  0.1719
  554loPI   GL1 8853   6.002   4.294   9.766 -0.1651 -0.0341 -0.1642
  554loPI   GL2 8854   6.239   4.524   9.832  0.1560 -0.0809 -0.2597
  554loPI   C1A 8855   5.894   4.304   9.398 -0.0852  0.1125 -0.0819
  554loPI   C2A 8856   5.832   4.156   9.002 -0.1584 -0.2152  0.3097
  554loPI   C3A 8857   5.928   4.131   8.538  0.3191 -0.1690  0.2194
  554loPI   C4A 8858   5.887   4.299   8.083 -0.1187  0.0288  0.1627
  554loPI   C5A 8859   6.104   4.244   7.731 -0.2589  0.4065 -0.0495
  554loPI   C6A 8860   6.378   3.856   7.569  0.3010 -0.0015  0.1172
  554loPI   C1B 8861   6.194   4.689   9.422 -0.3041  0.2194 -0.0809
  554loPI   C2B 8862   6.161   4.625   9.005  0.0433 -0.1975 -0.0959
  554loPI   C3B 8863   6.143   4.540   8.603 -0.0408 -0.1163  0.2340
  554loPI   C4B 8864   6.317   4.409   8.283 -0.0618 -0.0157  0.3172
  555loPI    C1 8865  11.907   4.159  11.144  0.2660  0.0336  0.1396
  555loPI    C2 8866  11.641   3.871  11.226  0.1313  0.0141 -0.3343
  555loPI    C3 8867  11.791   4.095  11.522 -0.0955 -0.2487 -0.0123
  555loPI   PO4 8868  12.058   4.006  11.010  0.1008  0.1063  0.0597
  555loPI   GL1 8869  12.219   3.915  10.607  0.1417 -0.3072 -0.0167
  555loPI   GL2 8870  11.926   3.811  10.549  0.2945 -0.1558  0.1648
  555loPI   C1A 8871  12.308   4.139  10.292  0.1519  0.1662 -0.0096
  555loPI   C2A 8872  12.554   4.302   9.843  0.1036  0.1635  0.2569
  555loPI   C3A 8873  12.657   4.536   9.435  0.0981  0.1892  0.1563
  555loPI   C4A 8874  12.647   4.663   9.085  0.2432  0.1533 -0.0900
  555loPI   C5A 8875  12.799   4.552   8.718 -0.2896 -0.2195 -0.0073
  555loPI   C6A 8876  12.862   4.477   8.285  0.0851 -0.5119 -0.1885
  555loPI   C1B 8877  12.070   3.730  10.151  0.0485  0.1298  0.0750
  555loPI   C2B 8878  12.196   3.556   9.821 -0.1377  0.1013  0.1802
  555loPI   C3B 8879  12.148   3.588   9.412  0.0156  0.1512  0.2996
  555loPI   C4B 8880  12.102   3.776   8.967  0.0319  0.3164 -0.1809
  556loPI    C1 8881  15.014  11.011  11.120 -0.0308  0.0766 -0.2182
  556loPI    C2 8882  14.830  10.789  11.398 -0.1195  0.1450 -0.2221
  556loPI    C3 8883  15.203  10.918  11.460 -0.1151  0.1040 -0.1634
  556loPI   PO4 8884  14.934  10.935  10.892 -0.2977  0.0405  0.2680
  556loPI   GL1 8885  14.665  11.150  10.572  0.1661 -0.0806  0.2762
  556loPI   GL2 8886  14.505  11.424  10.348 -0.1377  0.1363 -0.2701
  556loPI   C1A 8887  14.823  11.019  10.192  0.5998  0.3627 -0.0752
  556loPI   C2A 8888  14.787  11.079   9.725 -0.3911  0.1308  0.2238
  556loPI   C3A 8889  14.734  10.788   9.393 -0.2736  0.1385  0.0639
  556loPI   C4A 8890  14.817  10.841   8.961  0.1315 -0.0843 -0.2716
  556loPI   C5A 8891  14.559  10.774   8.563 -0.0420 -0.0224  0.1203
  556loPI   C6A 8892  14.165  10.857   8.459 -0.0023 -0.2665  0.1192
  556loPI   C1B 8893  14.342  11.167  10.024  0.1671 -0.1537  0.1238
  556loPI   C2B 8894  14.257  11.018   9.636  0.3113 -0.0485  0.0776
  556loPI   C3B 8895  14.398  11.096   9.209  0.1300 -0.1372  0.1017
  556loPI   C4B 8896  14.499  11.216   8.794  0.0909 -0.2193 -0.4694
  557loPI    C1 8897  11.339  13.505  10.898  0.0327 -0.0530 -0.1880
  557loPI    C2 8898  11.047  13.401  11.151  0.1008 -0.0214 -0.0961
  557loPI    C3 8899  11.398  13.533  11.293  0.2073 -0.1855 -0.2036
  557loPI   PO4 8900  11.193  13.624  10.655 -0.1031 -0.3012  0.0610
  557loPI   GL1 8901  11.116  13.496  10.216 -0.2294 -0.0336 -0.3046
  557loPI   GL2 8902  11.168  13.135  10.185  0.2136 -0.1372  0.2071
  557loPI   C1A 8903  10.906  13.570   9.809 -0.2497 -0.2347 -0.3756
  557loPI   C2A 8904  10.947  13.667   9.468  0.0676  0.0577 -0.0763
  557loPI   C3A 8905  10.850  13.678   9.061 -0.0044  0.0325  0.1147
  557loPI   C4A 8906  10.774  13.660   8.633  0.1054  0.2042 -0.2643
  557loPI   C5A 8907  10.812  13.388   8.276  0.0427  0.3428 -0.1718
  557loPI   C6A 8908  10.296  13.199   8.183 -0.0543 -0.2713  0.0247
  557loPI   C1B 8909  11.090  13.153   9.721 -0.1204  0.0721 -0.0272
  557loPI   C2B 8910  10.926  13.211   9.291  0.0316 -0.1420 -0.0857
  557loPI   C3B 8911  10.906  13.178   8.782  0.2545  0.0783  0.2241
  557loPI   C4B 8912  11.164  13.019   8.503  0.1698 -0.1644  0.1021
  558loPI    C1 8913   3.717   1.228  10.851  0.0316  0.0530 -0.1071
  558loPI    C2 8914   3.381   1.424  10.946 -0.0437 -0.1217 -0.0087
  558loPI    C3 8915   3.735   1.559  11.076 -0.0766  0.0515 -0.0958
  558loPI   PO4 8916   3.769   1.213  10.628 -0.1405 -0.0444  0.1249
  558loPI   GL1 8917   3.748   1.363  10.117 -0.1705 -0.0388 -0.1598
  558loPI   GL2 8918   3.503   1.049  10.107  0.1342  0.2471 -0.0528
  558loPI   C1A 8919   3.543   1.397   9.758  0.1106 -0.1100 -0.1171
  558loPI   C2A 8920   3.459   1.202   9.403 -0.1491  0.1538  0.1030
  558loPI   C3A 8921   3.224   1.378   9.115  0.0543 -0.1078 -0.2618
  558loPI   C4A 8922   2.973   1.382   8.769  0.0455 -0.2480  0.2471
  558loPI   C5A 8923   2.846   1.413   8.330  0.0375 -0.2273  0.0476
  558loPI   C6A 8924   2.634   1.674   8.020 -0.1543 -0.1084  0.0086
  558loPI   C1B 8925   3.719   0.882   9.729  0.1268 -0.0352  0.0421
  558loPI   C2B 8926   3.717   0.731   9.384 -0.3449  0.0679 -0.2695
  558loPI   C3B 8927   3.647   0.981   8.931  0.0371  0.0803  0.2051
  558loPI   C4B 8928   3.446   1.078   8.547 -0.0339  0.1808 -0.0801
  559loPI    C1 8929   7.168  11.372  10.767  0.1618 -0.0931  0.0977
  559loPI    C2 8930   7.135  11.349  11.165 -0.1559 -0.0280  0.0785
  559loPI    C3 8931   6.808  11.330  10.937  0.0136  0.0497 -0.1753
  559loPI   PO4 8932   7.288  11.652  10.636 -0.0343  0.1307 -0.0027
  559loPI   GL1 8933   7.467  11.714  10.245 -0.2600  0.2875  0.0765
  559loPI   GL2 8934   7.271  11.784   9.986 -0.0587 -0.3399  0.1586
  559loPI   C1A 8935   7.814  11.793   9.993 -0.0971  0.1515 -0.1588
  559loPI   C2A 8936   7.981  11.719   9.576  0.0796 -0.0180  0.0962
  559loPI   C3A 8937   7.752  11.725   9.122  0.2742  0.5714 -0.0067
  559loPI   C4A 8938   7.621  11.567   8.712 -0.1991  0.1184 -0.1264
  559loPI   C5A 8939   7.544  11.471   8.342 -0.1355  0.1806 -0.0090
  559loPI   C6A 8940   7.744  11.524   7.953 -0.0023 -0.0148 -0.0329
  559loPI   C1B 8941   7.466  11.803   9.541  0.0036 -0.2376 -0.0617
  559loPI   C2B 8942   7.729  12.110   9.389  0.0580 -0.1276 -0.3578
  559loPI   C3B 8943   7.819  12.333   9.026  0.0392  0.0195  0.2269
  559loPI   C4B 8944   8.023  12.405   8.674 -0.2904  0.1718  0.1400
  560loPI    C1 8945   3.089   1.833  11.056  0.0046  0.1586 -0.0317
  560loPI    C2 8946   3.237   1.615  11.356  0.0677  0.2896  0.0334
  560loPI    C3 8947   2.843   1.619  11.287  0.0758  0.0753 -0.0327
  560loPI   PO4 8948   3.169   1.904  10.805  0.1411  0.0518  0.0398
  560loPI   GL1 8949   3.032   1.929  10.397 -0.0439 -0.5187  0.1511
  560loPI   GL2 8950   2.935   2.226  10.317  0.1968  0.1458 -0.0718
  560loPI   C1A 8951   2.921   1.937   9.920 -0.0022 -0.0821  0.0846
  560loPI   C2A 8952   2.816   2.032   9.559  0.0468  0.2016 -0.1710
  560loPI   C3A 8953   2.890   1.897   9.120 -0.0546 -0.1148 -0.0320
  560loPI   C4A 8954   2.781   1.927   8.765  0.1488 -0.1588 -0.0703
  560loPI   C5A 8955   2.822   2.092   8.311  0.1211  0.0327  0.0794
  560loPI   C6A 8956   2.510   2.397   8.082 -0.0300  0.1282  0.3515
  560loPI   C1B 8957   3.178   2.363   9.936 -0.1005 -0.1095  0.0093
  560loPI   C2B 8958   3.261   2.335   9.514 -0.0321 -0.1279  0.0663
  560loPI   C3B 8959   3.095   2.453   9.110 -0.2060  0.3329  0.0676
  560loPI   C4B 8960   3.066   2.303   8.657 -0.0140  0.2820 -0.0483
  561loPI    C1 8961   1.933  10.006  10.621 -0.0790  0.0637  0.0131
  561loPI    C2 8962   1.817  10.235  10.927 -0.1314 -0.1046  0.1209
  561loPI    C3 8963   2.119   9.977  10.974  0.0672  0.0907 -0.0611
  561loPI   PO4 8964   1.997  10.092  10.351  0.1146  0.0665 -0.3476
  561loPI   GL1 8965   2.127   9.799  10.043 -0.1598 -0.1108  0.1556
  561loPI   GL2 8966   2.379   9.998   9.942  0.1472 -0.0837 -0.0598
  561loPI   C1A 8967   1.945   9.486   9.648  0.0687 -0.1155 -0.0304
  561loPI   C2A 8968   1.743   9.494   9.230  0.2348  0.0095 -0.0449
  561loPI   C3A 8969   1.626   9.394   8.796  0.0743 -0.1256  0.0291
  561loPI   C4A 8970   1.829   9.435   8.330  0.3864  0.0194 -0.2678
  561loPI   C5A 8971   1.875   9.818   8.151 -0.2224 -0.3447  0.2525
  561loPI   C6A 8972   1.831  10.221   7.981 -0.0508 -0.1847 -0.0028
  561loPI   C1B 8973   2.312  10.226   9.601  0.0246 -0.2885 -0.1770
  561loPI   C2B 8974   2.431  10.312   9.095 -0.0428 -0.0009 -0.3680
  561loPI   C3B 8975   2.595  10.341   8.628 -0.0307 -0.2099  0.1591
  561loPI   C4B 8976   2.718  10.668   8.394  0.1738  0.0363  0.0152
  562loPI    C1 8977   7.520   0.541  10.420  0.0654 -0.0488  0.1048
  562loPI    C2 8978   7.223   0.792  10.326  0.0520 -0.0842  0.0520
  562loPI    C3 8979   7.595   0.931  10.378  0.0239 -0.0379  0.1311
  562loPI   PO4 8980   7.514   0.316  10.298  0.0135 -0.2094 -0.4658
  562loPI   GL1 8981   7.245   0.322   9.989 -0.1949 -0.2024  0.0832
  562loPI   GL2 8982   7.429  -0.005   9.973 -0.2985  0.3516  0.0085
  562loPI   C1A 8983   7.336   0.340   9.594  0.1222 -0.0446  0.0987
  562loPI   C2A 8984   7.319   0.322   9.117  0.2546  0.3143  0.2736
  562loPI   C3A 8985   7.406   0.196   8.702  0.1890 -0.0793 -0.1483
  562loPI   C4A 8986   7.521  -0.127   8.371 -0.0886  0.1822 -0.0058
  562loPI   C5A 8987   7.401  -0.436   8.040 -0.3452  0.0897  0.0759
  562loPI   C6A 8988   7.370  -0.582   7.667 -0.1410 -0.1153  0.2815
  562loPI   C1B 8989   7.742  -0.286   9.885  0.1402  0.0526 -0.2181
  562loPI   C2B 8990   7.851  -0.466   9.534 -0.3217  0.0277 -0.2823
  562loPI   C3B 8991   7.889  -0.519   9.064  0.0039 -0.0578  0.1503
  562loPI   C4B 8992   7.842  -0.155   8.809 -0.0928  0.0692 -0.0483
  563loPI    C1 8993  11.430  10.968  11.199 -0.0711 -0.0204  0.0983
  563loPI    C2 8994  11.803  11.108  11.234 -0.0133 -0.0922 -0.1977
  563loPI    C3 8995  11.690  10.784  11.440  0.0382  0.0229  0.0141
  563loPI   PO4 8996  11.355  10.906  10.942  0.0768 -0.2212  0.0575
  563loPI   GL1 8997  11.082  10.740  10.627 -0.0047 -0.3206 -0.0784
  563loPI   GL2 8998  11.400  10.737  10.466  0.0455 -0.1432 -0.0642
  563loPI   C1A 8999  10.993  10.754  10.220  0.2544 -0.0385  0.0803
  563loPI   C2A 9000  11.140  10.680   9.828  0.1052  0.0227 -0.1530
  563loPI   C3A 9001  11.116  10.638   9.328  0.1078 -0.1521  0.1462
  563loPI   C4A 9002  11.089  10.775   8.850 -0.1586 -0.0622  0.2025
  563loPI   C5A 9003  10.953  10.638   8.462 -0.0891 -0.1500 -0.2910
  563loPI   C6A 9004  10.506  10.645   8.292 -0.0496  0.1080  0.0350
  563loPI   C1B 9005  11.509  10.885  10.087 -0.1714 -0.3210 -0.1781
  563loPI   C2B 9006  11.531  10.929   9.564  0.1005 -0.3229  0.0246
  563loPI   C3B 9007  11.533  10.794   9.127  0.2682  0.2032 -0.1689
  563loPI   C4B 9008  11.590  10.880   8.646 -0.0337  0.3103  0.1231
  564loPI    C1 9009  13.109  17.308  11.160 -0.1138 -0.0037  0.1705
  564loPI    C2 9010  13.059  17.704  11.138 -0.1798 -0.0320 -0.2908
  564loPI    C3 9011  13.000  17.513  11.485 -0.3062  0.3384 -0.1036
  564loPI   PO4 9012  12.976  17.182  11.011 -0.1700 -0.0641  0.1200
  564loPI   GL1 9013  12.664  17.265  10.698  0.0517 -0.0667  0.0591
  564loPI   GL2 9014  12.847  17.565  10.700 -0.3861  0.0604 -0.1114
  564loPI   C1A 9015  12.616  17.174  10.266 -0.0038 -0.2414 -0.5076
  564loPI   C2A 9016  12.487  17.064   9.842  0.0278 -0.2692  0.1987
  564loPI   C3A 9017  12.477  17.018   9.446 -0.0758  0.1539 -0.0309
  564loPI   C4A 9018  12.516  16.943   9.096 -0.2680  0.1230  0.1454
  564loPI   C5A 9019  12.652  16.968   8.670  0.0124  0.2469  0.3640
  564loPI   C6A 9020  12.423  17.065   8.300  0.1165  0.1366 -0.2107
  564loPI   C1B 9021  12.990  17.511  10.312 -0.1661  0.0797 -0.1646
  564loPI   C2B 9022  12.925  17.444   9.927  0.0210 -0.0954  0.0015
  564loPI   C3B 9023  12.824  17.303   9.534  0.1561 -0.0487  0.0887
  564loPI   C4B 9024  13.004  17.010   9.216  0.0020 -0.0829  0.3180
  565loPI    C1 9025   9.684   8.951  11.126 -0.0698 -0.0968  0.1025
  565loPI    C2 9026   9.918   8.965  11.450  0.2156  0.0721 -0.1057
  565loPI    C3 9027   9.520   8.961  11.491  0.2482  0.0772  0.2451
  565loPI   PO4 9028   9.819   9.144  10.977  0.1705 -0.2732 -0.0936
  565loPI   GL1 9029   9.992   9.199  10.589  0.1516 -0.2053 -0.1537
  565loPI   GL2 9030  10.143   9.461  10.556 -0.1250  0.3128 -0.0141
  565loPI   C1A 9031  10.077   9.099  10.170 -0.1954 -0.2079 -0.0317
  565loPI   C2A 9032  10.079   9.190   9.778 -0.1370  0.0171  0.0009
  565loPI   C3A 9033  10.156   9.112   9.411  0.1724  0.1697  0.1719
  565loPI   C4A 9034  10.157   9.238   9.088  0.2572 -0.0950 -0.3902
  565loPI   C5A 9035  10.039   9.252   8.625  0.1145 -0.1119  0.2555
  565loPI   C6A 9036  10.025   9.464   8.207 -0.0165 -0.0355 -0.0290
  565loPI   C1B 9037  10.236   9.618  10.243 -0.0308 -0.0444  0.2938
  565loPI   C2B 9038  10.273   9.654   9.838 -0.0060  0.2180  0.0019
  565loPI   C3B 9039  10.280   9.637   9.391 -0.3566 -0.1978 -0.1984
  565loPI   C4B 9040  10.356   9.654   8.933  0.1759  0.1387  0.0269
  566loPI    C1 9041  17.984   8.472  11.184 -0.0426  0.2169 -0.0081
  566loPI    C2 9042  18.338   8.438  11.366  0.0509 -0.0276 -0.2285
  566loPI    C3 9043  18.001   8.376  11.572  0.1491 -0.1507 -0.1023
  566loPI   PO4 9044  18.128   8.390  10.886 -0.0764  0.3559  0.2216
  566loPI   GL1 9045  18.024   8.396  10.465  0.1221  0.0660 -0.3373
  566loPI   GL2 9046  17.728   8.234  10.406 -0.1103 -0.1728 -0.3009
  566loPI   C1A 9047  18.130   8.364  10.079  0.1015  0.1537  0.2029
  566loPI   C2A 9048  18.212   8.384   9.711 -0.3257 -0.1353  0.1548
  566loPI   C3A 9049  18.295   8.404   9.305  0.0315 -0.2462 -0.1860
  566loPI   C4A 9050  18.396   8.364   8.865  0.1312  0.1063 -0.0637
  566loPI   C5A 9051  18.610   8.087   8.620 -0.1742  0.1820 -0.1398
  566loPI   C6A 9052  19.018   7.981   8.447  0.0450  0.2862 -0.2583
  566loPI   C1B 9053  17.704   8.231   9.910  0.1546  0.0687  0.0492
  566loPI   C2B 9054  17.809   8.160   9.518  0.0814 -0.3434 -0.2254
  566loPI   C3B 9055  17.878   8.210   9.084  0.0902  0.0091 -0.2375
  566loPI   C4B 9056  17.912   8.508   8.801 -0.2756 -0.1745  0.1428
  567loPI    C1 9057  12.298   5.968  10.989  0.1493 -0.0236 -0.1386
  567loPI    C2 9058  11.981   6.207  10.938 -0.0752 -0.3169 -0.1437
  567loPI    C3 9059  11.991   5.950  11.244  0.2674 -0.1435 -0.0033
  567loPI   PO4 9060  12.476   6.096  10.779 -0.3020  0.0035  0.2049
  567loPI   GL1 9061  12.417   5.969  10.349  0.0403  0.1457  0.0843
  567loPI   GL2 9062  12.358   5.674  10.352 -0.1728 -0.3915 -0.0099
  567loPI   C1A 9063  12.471   6.000   9.849  0.1349 -0.1176 -0.0487
  567loPI   C2A 9064  12.501   6.110   9.442  0.1709 -0.1210 -0.2366
  567loPI   C3A 9065  12.506   6.106   9.058  0.2803 -0.0208 -0.1559
  567loPI   C4A 9066  12.463   6.149   8.572  0.1397  0.0772 -0.2352
  567loPI   C5A 9067  12.072   6.267   8.395 -0.0089  0.0788 -0.2257
  567loPI   C6A 9068  11.915   6.319   7.947 -0.0074 -0.3642 -0.2565
  567loPI   C1B 9069  12.283   5.550   9.935  0.1541  0.3511 -0.0144
  567loPI   C2B 9070  12.319   5.569   9.503 -0.1242 -0.0221 -0.2788
  567loPI   C3B 9071  12.360   5.649   8.998 -0.0666 -0.3188 -0.2044
  567loPI   C4B 9072  12.150   5.473   8.690 -0.2145 -0.1193 -0.2146
  568loPI    C1 9073  15.915   5.358  10.868 -0.0624  0.3140  0.2391
  568loPI    C2 9074  16.297   5.404  10.761 -0.1233  0.2601 -0.0092
  568loPI    C3 9075  16.206   5.224  11.106  0.0699 -0.0773 -0.1289
  568loPI   PO4 9076  15.859   5.174  10.644  0.1296 -0.4098 -0.0621
  568loPI   GL1 9077  15.683   5.160  10.201 -0.1131 -0.1430 -0.0395
  568loPI   GL2 9078  15.515   4.812  10.010 -0.0408 -0.3579 -0.0893
  568loPI   C1A 9079  15.933   4.979   9.811 -0.2045 -0.0556  0.1895
  568loPI   C2A 9080  15.946   5.039   9.420  0.0314 -0.2666 -0.3119
  568loPI   C3A 9081  15.875   5.082   8.997 -0.2096  0.0353 -0.0247
  568loPI   C4A 9082  16.188   5.041   8.626  0.1471 -0.0309 -0.4802
  568loPI   C5A 9083  16.495   4.943   8.295  0.0453  0.0007  0.1080
  568loPI   C6A 9084  16.755   4.984   7.976 -0.0701  0.1963 -0.0051
  568loPI   C1B 9085  15.496   4.920   9.613  0.0906  0.2142 -0.1629
  568loPI   C2B 9086  15.416   4.975   9.164  0.0723 -0.1394  0.1961
  568loPI   C3B 9087  15.467   5.025   8.666  0.2824 -0.0192 -0.1100
  568loPI   C4B 9088  15.731   4.966   8.268  0.0569 -0.0745  0.0868
  569loPI    C1 9089   2.437   9.368  10.535  0.0457  0.0760  0.1746
  569loPI    C2 9090   2.118   9.589  10.628 -0.0384  0.0599 -0.0679
  569loPI    C3 9091   2.076   9.198  10.559  0.0667  0.0193  0.0925
  569loPI   PO4 9092   2.549   9.549  10.346 -0.0869  0.1036  0.2576
  569loPI   GL1 9093   2.575   9.326   9.920 -0.2147  0.0958 -0.0119
  569loPI   GL2 9094   2.882   9.235   9.776  0.2495  0.2171  0.1082
  569loPI   C1A 9095   2.452   9.669   9.599 -0.2628 -0.5857  0.2915
  569loPI   C2A 9096   2.502   9.806   9.150 -0.2792  0.1480  0.4158
  569loPI   C3A 9097   2.619   9.859   8.746  0.0064 -0.0342  0.2331
  569loPI   C4A 9098   2.825   9.645   8.298 -0.1105 -0.3931  0.3933
  569loPI   C5A 9099   3.232   9.553   8.052  0.2304 -0.0904 -0.2509
  569loPI   C6A 9100   3.656   9.344   8.145  0.6873  0.1071 -0.2195
  569loPI   C1B 9101   2.660   9.197   9.400 -0.4706  0.1640 -0.0146
  569loPI   C2B 9102   2.297   9.286   9.211  0.0998 -0.0999  0.0139
  569loPI   C3B 9103   2.066   9.233   8.750  0.2677 -0.1294  0.2665
  569loPI   C4B 9104   2.077   8.963   8.350  0.2985 -0.2093  0.0562
  570loPI    C1 9105  13.056   4.897  11.193  0.1547  0.1431 -0.0293
  570loPI    C2 9106  13.034   4.745  11.562 -0.0418 -0.0041 -0.1005
  570loPI    C3 9107  12.709   4.905  11.392  0.0759  0.1676 -0.1664
  570loPI   PO4 9108  13.196   4.787  11.076 -0.1297 -0.5751  0.3500
  570loPI   GL1 9109  13.091   4.702  10.646  0.0217 -0.1895 -0.1842
  570loPI   GL2 9110  13.275   4.872  10.385 -0.0689  0.2025  0.0307
  570loPI   C1A 9111  12.747   4.738  10.355  0.0504 -0.0351  0.0551
  570loPI   C2A 9112  12.673   4.813   9.936 -0.0386  0.0799 -0.1062
  570loPI   C3A 9113  12.741   5.064   9.495 -0.2062  0.0789 -0.4627
  570loPI   C4A 9114  12.719   5.266   9.191  0.0959  0.0469  0.0740
  570loPI   C5A 9115  12.784   5.344   8.890 -0.1480 -0.1197  0.0143
  570loPI   C6A 9116  12.630   5.493   8.522  0.1680  0.0278 -0.4934
  570loPI   C1B 9117  13.597   4.786  10.067  0.2269 -0.0228  0.0794
  570loPI   C2B 9118  13.638   4.832   9.632  0.0338 -0.2909 -0.0227
  570loPI   C3B 9119  13.576   4.945   9.202 -0.0779  0.0352 -0.1656
  570loPI   C4B 9120  13.576   4.965   8.691  0.0029  0.0689 -0.1655
  571loPI    C1 9121   3.330   3.433  11.100  0.1061  0.1088  0.1114
  571loPI    C2 9122   3.355   3.503  11.493 -0.0228  0.0998  0.1215
  571loPI    C3 9123   3.382   3.129  11.354 -0.2859  0.0688  0.1491
  571loPI   PO4 9124   3.474   3.619  10.917 -0.0467 -0.0992 -0.1569
  571loPI   GL1 9125   3.205   3.535  10.490  0.0208  0.1410 -0.2047
  571loPI   GL2 9126   2.836   3.508  10.406 -0.1426 -0.1267 -0.2632
  571loPI   C1A 9127   3.261   3.581  10.075 -0.0370  0.1028 -0.0583
  571loPI   C2A 9128   3.076   3.674   9.690  0.0764 -0.0940 -0.0337
  571loPI   C3A 9129   3.120   3.788   9.279 -0.0897 -0.0046 -0.1883
  571loPI   C4A 9130   3.156   3.828   8.853  0.2089  0.1674 -0.0834
  571loPI   C5A 9131   3.049   3.815   8.486 -0.4096 -0.1557  0.0507
  571loPI   C6A 9132   3.072   3.951   8.098 -0.0969  0.1357 -0.1250
  571loPI   C1B 9133   2.798   3.387   9.955  0.2335  0.2628  0.0815
  571loPI   C2B 9134   2.833   3.307   9.508 -0.0329 -0.0605 -0.1703
  571loPI   C3B 9135   2.746   3.465   9.097  0.0016 -0.0172 -0.0364
  571loPI   C4B 9136   2.852   3.362   8.652 -0.1707 -0.2266 -0.1466
  572loPI    C1 9137  18.026   7.697  10.780  0.0638  0.1471 -0.2146
  572loPI    C2 9138  17.641   7.741  10.679  0.0425 -0.0771 -0.2370
  572loPI    C3 9139  17.741   7.676  11.061  0.0852  0.2959 -0.1811
  572loPI   PO4 9140  18.111   7.960  10.663  0.4507  0.5079  0.0895
  572loPI   GL1 9141  18.212   7.882  10.232  0.0211  0.1655 -0.0258
  572loPI   GL2 9142  18.439   8.143  10.318 -0.1778  0.2213  0.0855
  572loPI   C1A 9143  18.157   7.870   9.825  0.0918 -0.2043  0.2322
  572loPI   C2A 9144  18.170   7.866   9.371  0.0292 -0.2403 -0.1085
  572loPI   C3A 9145  18.116   7.885   8.879 -0.0968  0.0739  0.1578
  572loPI   C4A 9146  18.141   7.912   8.402  0.2516  0.0434  0.0705
  572loPI   C5A 9147  18.130   7.745   7.987  0.0636 -0.0393  0.0685
  572loPI   C6A 9148  18.304   7.366   7.811 -0.0789  0.0933  0.2299
  572loPI   C1B 9149  18.609   8.216   9.966 -0.2117  0.1840 -0.1232
  572loPI   C2B 9150  18.570   8.070   9.539 -0.2506  0.0635  0.1449
  572loPI   C3B 9151  18.631   8.015   9.121 -0.0424  0.1632 -0.1026
  572loPI   C4B 9152  18.896   7.715   8.903  0.0275 -0.1982 -0.0139
  573loPI    C1 9153  12.749   7.475  11.151 -0.0167 -0.0594 -0.2406
  573loPI    C2 9154  12.356   7.469  11.077 -0.0975 -0.0830  0.1717
  573loPI    C3 9155  12.505   7.261  11.385  0.2618 -0.2040 -0.0778
  573loPI   PO4 9156  12.810   7.456  10.915  0.0232  0.1652  0.1861
  573loPI   GL1 9157  12.543   7.610  10.579  0.0308  0.1106  0.4059
  573loPI   GL2 9158  12.113   7.612  10.539  0.3578 -0.0827  0.1357
  573loPI   C1A 9159  12.909   7.945  10.260 -0.0104 -0.1827  0.1551
  573loPI   C2A 9160  13.118   7.990   9.815  0.0347 -0.1786  0.1885
  573loPI   C3A 9161  13.163   7.994   9.370 -0.0132 -0.0946 -0.0038
  573loPI   C4A 9162  12.980   8.045   9.016  0.1799 -0.1597 -0.1940
  573loPI   C5A 9163  12.981   8.100   8.528  0.2246 -0.0894 -0.1762
  573loPI   C6A 9164  13.013   8.205   8.010  0.1371  0.1031  0.0439
  573loPI   C1B 9165  12.055   7.654  10.039 -0.0799  0.4028  0.0461
  573loPI   C2B 9166  11.996   7.780   9.716  0.0420 -0.0876  0.0516
  573loPI   C3B 9167  12.021   7.747   9.273 -0.0868  0.1289 -0.3021
  573loPI   C4B 9168  12.021   7.806   8.919  0.1003  0.1336 -0.0193
  574loPI    C1 9169   4.028  12.618  10.940  0.2697  0.0996  0.1904
  574loPI    C2 9170   3.848  12.286  11.071 -0.0697  0.1332 -0.1740
  574loPI    C3 9171   3.967  12.564  11.332 -0.0480 -0.1395  0.1124
  574loPI   PO4 9172   3.805  12.641  10.675 -0.2767  0.0640 -0.0768
  574loPI   GL1 9173   3.829  12.596  10.308 -0.0621 -0.0664 -0.2924
  574loPI   GL2 9174   3.826  12.291  10.138  0.0901 -0.0502  0.1322
  574loPI   C1A 9175   3.783  12.662   9.838 -0.0885  0.1526  0.0692
  574loPI   C2A 9176   3.796  12.540   9.496  0.0085 -0.2757 -0.0653
  574loPI   C3A 9177   3.863  12.566   9.095 -0.0113 -0.1736 -0.0783
  574loPI   C4A 9178   3.856  12.501   8.629 -0.4559 -0.1268 -0.4665
  574loPI   C5A 9179   4.054  12.196   8.304  0.4548  0.1950 -0.1302
  574loPI   C6A 9180   4.359  11.870   8.270  0.0616 -0.2990 -0.0418
  574loPI   C1B 9181   3.905  12.045   9.759  0.1870 -0.0228  0.0375
  574loPI   C2B 9182   3.722  11.974   9.454  0.5752 -0.0498  0.0015
  574loPI   C3B 9183   3.581  12.088   9.039  0.0558 -0.2192  0.2050
  574loPI   C4B 9184   3.698  11.926   8.570  0.0386 -0.2523  0.2014
  575loPI    C1 9185  15.403  14.762  11.140 -0.0610  0.0657 -0.1668
  575loPI    C2 9186  15.071  14.548  11.206  0.0395 -0.1056 -0.2082
  575loPI    C3 9187  15.338  14.598  11.499 -0.0425  0.0699 -0.1616
  575loPI   PO4 9188  15.281  14.949  10.995 -0.0578 -0.0819  0.0606
  575loPI   GL1 9189  15.314  14.979  10.564  0.0653  0.2805 -0.0657
  575loPI   GL2 9190  15.264  15.195  10.427  0.2328  0.3061 -0.0538
  575loPI   C1A 9191  15.387  14.694  10.131  0.1328 -0.1590 -0.1121
  575loPI   C2A 9192  15.464  14.753   9.664  0.0168  0.0786  0.2746
  575loPI   C3A 9193  15.441  14.839   9.219 -0.1737  0.0235  0.1985
  575loPI   C4A 9194  15.312  14.632   8.844 -0.1654 -0.0568 -0.0150
  575loPI   C5A 9195  15.286  14.193   8.521  0.1420  0.1299  0.1046
  575loPI   C6A 9196  15.475  13.891   8.389  0.3256 -0.1029  0.0556
  575loPI   C1B 9197  15.163  15.124   9.945 -0.0265 -0.2062  0.0653
  575loPI   C2B 9198  15.027  14.997   9.468 -0.1193  0.2282 -0.1143
  575loPI   C3B 9199  15.070  15.177   9.062 -0.0380 -0.0721 -0.0020
  575loPI   C4B 9200  14.750  15.452   8.806 -0.1176  0.2082 -0.3421
  576loPI    C1 9201   6.142  18.028  10.564  0.1501  0.2845  0.2184
  576loPI    C2 9202   5.826  18.131  10.787 -0.1175  0.0095 -0.0228
  576loPI    C3 9203   5.868  18.280  10.417 -0.0753 -0.1151 -0.0687
  576loPI   PO4 9204   6.050  17.671  10.560  0.2012 -0.0700 -0.0082
  576loPI   GL1 9205   5.951  17.571  10.097 -0.1142 -0.1250 -0.2862
  576loPI   GL2 9206   5.958  17.257   9.939 -0.0153 -0.1413  0.3640
  576loPI   C1A 9207   5.689  17.736   9.761 -0.1438  0.2173 -0.0509
  576loPI   C2A 9208   5.659  17.726   9.355  0.1118  0.3660 -0.0937
  576loPI   C3A 9209   5.675  17.811   8.929 -0.0702  0.2930  0.0706
  576loPI   C4A 9210   5.602  17.972   8.550 -0.2064  0.3617 -0.0513
  576loPI   C5A 9211   5.820  18.041   8.291 -0.0423  0.0714  0.0396
  576loPI   C6A 9212   5.926  17.865   7.956  0.1617 -0.0126 -0.0520
  576loPI   C1B 9213   5.869  17.292   9.499 -0.1465  0.0390 -0.0678
  576loPI   C2B 9214   5.694  17.347   9.091 -0.2047  0.0318  0.1401
  576loPI   C3B 9215   5.672  17.405   8.599 -0.1722  0.1295  0.0133
  576loPI   C4B 9216   5.711  17.561   8.308 -0.0570 -0.2022 -0.1924
  577loPI    C1 9217   5.039   8.792  10.895 -0.0218  0.0680  0.1319
  577loPI    C2 9218   4.979   8.416  11.020 -0.1362  0.0646  0.0684
  577loPI    C3 9219   4.970   8.718  11.282 -0.1213  0.0311  0.1075
  577loPI   PO4 9220   4.955   8.895  10.671 -0.1454  0.1946 -0.0800
  577loPI   GL1 9221   5.070   9.047  10.272 -0.1902  0.0385 -0.0049
  577loPI   GL2 9222   4.728   9.190  10.158 -0.1052  0.3277 -0.2252
  577loPI   C1A 9223   5.151   8.674   9.931 -0.0196 -0.1151 -0.2543
  577loPI   C2A 9224   5.230   8.518   9.501  0.1301 -0.3652  0.0939
  577loPI   C3A 9225   5.122   8.496   9.174  0.0879  0.1870 -0.0178
  577loPI   C4A 9226   5.154   8.500   8.684 -0.0136  0.2371 -0.0392
  577loPI   C5A 9227   5.165   8.535   8.214 -0.0530  0.3052  0.2816
  577loPI   C6A 9228   5.448   8.263   7.958  0.1319  0.0219  0.3412
  577loPI   C1B 9229   4.818   9.520   9.791  0.0622  0.1419 -0.4374
  577loPI   C2B 9230   4.762   9.506   9.279  0.1230 -0.1176  0.2091
  577loPI   C3B 9231   4.900   9.428   8.922  0.1789  0.0275 -0.0924
  577loPI   C4B 9232   5.234   9.537   8.697 -0.1107  0.1450 -0.1452
  578loPI    C1 9233  14.763   1.236  11.195 -0.0473  0.1402  0.2024
  578loPI    C2 9234  14.952   1.410  11.502 -0.0546 -0.0240  0.3011
  578loPI    C3 9235  14.673   1.131  11.570 -0.0127 -0.1057  0.1439
  578loPI   PO4 9236  14.875   1.119  10.922 -0.1152 -0.3721 -0.0602
  578loPI   GL1 9237  14.746   1.230  10.474 -0.0652  0.2029 -0.1179
  578loPI   GL2 9238  14.580   1.417  10.349 -0.0499 -0.0471 -0.0224
  578loPI   C1A 9239  14.895   0.942  10.143  0.0326 -0.0884  0.0448
  578loPI   C2A 9240  15.019   1.038   9.727  0.0784 -0.1310  0.1299
  578loPI   C3A 9241  14.950   1.268   9.405 -0.1318  0.1342  0.3233
  578loPI   C4A 9242  14.965   1.639   9.116 -0.0523 -0.2146 -0.3710
  578loPI   C5A 9243  14.820   1.823   8.703  0.1837 -0.0671 -0.3175
  578loPI   C6A 9244  15.073   1.863   8.270  0.0921 -0.0081  0.0352
  578loPI   C1B 9245  14.655   1.353   9.882  0.3477  0.0888 -0.1919
  578loPI   C2B 9246  14.516   1.126   9.497  0.1539  0.0661  0.2834
  578loPI   C3B 9247  14.531   1.201   9.124  0.0713  0.0384  0.0405
  578loPI   C4B 9248  14.726   1.312   8.820  0.1222  0.1202  0.1399
  579loPI    C1 9249   1.123   6.129  10.887 -0.0872 -0.2658 -0.1299
  579loPI    C2 9250   0.763   6.247  10.759 -0.0082  0.0432 -0.0746
  579loPI    C3 9251   1.005   6.507  10.943  0.1224 -0.2402  0.1620
  579loPI   PO4 9252   1.194   6.035  10.711  0.2032 -0.0508 -0.1653
  579loPI   GL1 9253   1.040   5.769  10.445  0.3326 -0.0608 -0.2826
  579loPI   GL2 9254   0.839   5.877  10.363  0.0662 -0.3922 -0.0379
  579loPI   C1A 9255   1.346   5.821  10.072 -0.1376  0.2205  0.1028
  579loPI   C2A 9256   1.337   5.859   9.613 -0.0809 -0.0345  0.0396
  579loPI   C3A 9257   1.329   5.836   9.129  0.1301 -0.1653  0.1426
  579loPI   C4A 9258   1.321   5.958   8.722 -0.0420  0.2096  0.0100
  579loPI   C5A 9259   1.233   6.062   8.339 -0.0925 -0.2095  0.0680
  579loPI   C6A 9260   1.215   6.452   8.182  0.0314 -0.2389  0.0214
  579loPI   C1B 9261   0.899   5.914   9.904  0.0689  0.5214 -0.0495
  579loPI   C2B 9262   0.854   5.958   9.602  0.3511 -0.1576  0.1201
  579loPI   C3B 9263   0.866   6.031   9.143  0.1260  0.4628  0.0348
  579loPI   C4B 9264   0.841   6.060   8.761 -0.0526  0.3252 -0.2493
  580loPI    C1 9265   1.448   9.241  10.572  0.2084 -0.1617 -0.0473
  580loPI    C2 9266   1.597   8.910  10.740 -0.0111 -0.0935  0.2911
  580loPI    C3 9267   1.684   9.269  10.893  0.0989 -0.0021  0.0207
  580loPI   PO4 9268   1.556   9.199  10.312  0.1453 -0.0433 -0.0506
  580loPI   GL1 9269   1.513   9.334   9.893 -0.4495 -0.1353 -0.1879
  580loPI   GL2 9270   1.382   9.759   9.966 -0.0366  0.0763 -0.1936
  580loPI   C1A 9271   1.396   9.277   9.500  0.0838 -0.0127  0.0897
  580loPI   C2A 9272   1.266   9.218   9.121  0.2420 -0.3357  0.0453
  580loPI   C3A 9273   1.070   9.257   8.743 -0.1568 -0.1336  0.0250
  580loPI   C4A 9274   0.934   9.424   8.291  0.1505  0.2687 -0.3339
  580loPI   C5A 9275   0.958   9.540   7.923  0.1585 -0.1328 -0.2537
  580loPI   C6A 9276   1.029   9.986   7.718 -0.1377 -0.1678  0.2815
  580loPI   C1B 9277   1.367   9.819   9.513 -0.0295 -0.0306  0.0012
  580loPI   C2B 9278   1.244   9.750   9.144 -0.1450  0.4127  0.2116
  580loPI   C3B 9279   1.251   9.725   8.662 -0.0102 -0.0896 -0.1337
  580loPI   C4B 9280   1.401   9.713   8.330 -0.0791 -0.1861  0.1498
  581loPI    C1 9281  12.132   0.877  11.251  0.2329 -0.0062 -0.0443
  581loPI    C2 9282  11.967   1.038  11.578  0.2210 -0.2464  0.0704
  581loPI    C3 9283  12.236   0.744  11.614  0.5700  0.0410 -0.1199
  581loPI   PO4 9284  11.978   0.956  11.069 -0.0705  0.1310  0.2425
  581loPI   GL1 9285  11.996   0.736  10.687  0.1914  0.0146 -0.1357
  581loPI   GL2 9286  12.273   0.610  10.586 -0.1667  0.0820  0.3910
  581loPI   C1A 9287  11.941   0.652  10.169  0.4329 -0.0706  0.0527
  581loPI   C2A 9288  11.896   0.681   9.734  0.2068 -0.1254 -0.1319
  581loPI   C3A 9289  11.854   0.605   9.290  0.0470 -0.0745  0.0391
  581loPI   C4A 9290  12.003   0.476   8.915 -0.0624 -0.0625 -0.0733
  581loPI   C5A 9291  12.184   0.364   8.493 -0.0920 -0.1026  0.0805
  581loPI   C6A 9292  12.147   0.373   8.006 -0.0992 -0.1799 -0.1344
  581loPI   C1B 9293  12.387   0.420  10.256  0.1688  0.2291 -0.0712
  581loPI   C2B 9294  12.372   0.461   9.818 -0.1623 -0.1336 -0.1096
  581loPI   C3B 9295  12.332   0.420   9.385 -0.2305 -0.0646  0.2028
  581loPI   C4B 9296  12.426   0.232   9.002  0.0647 -0.1886 -0.0114
  582loPI    C1 9297   5.635  11.104  10.769 -0.1144  0.0233 -0.5747
  582loPI    C2 9298   5.780  10.732  10.791  0.0745  0.1210 -0.0009
  582loPI    C3 9299   6.001  11.024  10.630  0.2242  0.1228  0.2031
  582loPI   PO4 9300   5.415  11.051  10.667  0.0286 -0.1980  0.0222
  582loPI   GL1 9301   5.264  10.833  10.325 -0.2198  0.0728 -0.0584
  582loPI   GL2 9302   5.339  11.190  10.143  0.0062  0.2021 -0.2203
  582loPI   C1A 9303   5.339  10.795   9.844 -0.2270 -0.1379 -0.2519
  582loPI   C2A 9304   5.378  10.801   9.418 -0.2021 -0.0414 -0.2495
  582loPI   C3A 9305   5.325  10.816   8.997 -0.1646  0.0543  0.2487
  582loPI   C4A 9306   5.095  10.868   8.637  0.2847 -0.2362 -0.0077
  582loPI   C5A 9307   5.015  11.151   8.372  0.2079 -0.2020 -0.0774
  582loPI   C6A 9308   5.152  11.585   8.280  0.2781  0.0030 -0.1409
  582loPI   C1B 9309   5.286  11.289   9.662 -0.0302 -0.0301  0.0218
  582loPI   C2B 9310   5.318  11.270   9.256  0.0409  0.2685  0.0345
  582loPI   C3B 9311   5.052  11.462   8.905  0.0301  0.1462 -0.0223
  582loPI   C4B 9312   4.781  11.717   8.640 -0.1802  0.2813  0.1715
  583loPI    C1 9313   8.323  16.292  10.981  0.1162 -0.0590  0.0947
  583loPI    C2 9314   7.979  16.120  11.090 -0.1161  0.2901 -0.0666
  583loPI    C3 9315   8.141  16.404  11.320  0.2243 -0.0752  0.1584
  583loPI   PO4 9316   8.273  16.292  10.740 -0.1197  0.2785  0.0894
  583loPI   GL1 9317   8.154  16.084  10.325 -0.0657 -0.0506 -0.1984
  583loPI   GL2 9318   8.460  16.018  10.280  0.0166  0.1577 -0.0580
  583loPI   C1A 9319   7.946  15.784   9.973  0.1147  0.0511  0.0331
  583loPI   C2A 9320   7.989  15.677   9.566  0.0950 -0.1090 -0.2494
  583loPI   C3A 9321   8.043  15.661   9.138 -0.0466  0.1463 -0.1968
  583loPI   C4A 9322   8.081  15.636   8.709  0.0917 -0.1385 -0.0747
  583loPI   C5A 9323   8.087  15.825   8.297  0.0915  0.1112  0.1832
  583loPI   C6A 9324   8.216  15.595   7.975 -0.0832 -0.0450  0.0749
  583loPI   C1B 9325   8.527  15.988   9.821 -0.1027 -0.1816  0.4862
  583loPI   C2B 9326   8.431  15.957   9.391 -0.3384 -0.0209  0.3043
  583loPI   C3B 9327   8.544  15.969   8.947 -0.0517 -0.2474  0.0435
  583loPI   C4B 9328   8.498  15.937   8.612 -0.0737 -0.0216  0.1187
  584loPI    C1 9329  15.564   0.720  11.084 -0.2453 -0.0580 -0.0357
  584loPI    C2 9330  15.337   0.912  11.352 -0.0412 -0.0113  0.1057
  584loPI    C3 9331  15.642   0.685  11.475  0.1045  0.0755 -0.0903
  584loPI   PO4 9332  15.439   0.872  10.833 -0.3051  0.2490  0.3930
  584loPI   GL1 9333  15.736   0.923  10.434  0.0262 -0.0292 -0.0496
  584loPI   GL2 9334  15.428   0.789  10.372  0.2054  0.1577 -0.0536
  584loPI   C1A 9335  15.713   1.159  10.040 -0.0426 -0.0923  0.0584
  584loPI   C2A 9336  15.646   1.160   9.600  0.4414 -0.1463 -0.1799
  584loPI   C3A 9337  15.472   1.338   9.237  0.2352 -0.3093  0.1797
  584loPI   C4A 9338  15.251   1.324   8.824 -0.1107 -0.3139  0.0108
  584loPI   C5A 9339  15.265   1.403   8.418  0.1209  0.0658  0.0131
  584loPI   C6A 9340  15.578   1.241   8.380 -0.0978 -0.2017 -0.0039
  584loPI   C1B 9341  15.356   0.757   9.954 -0.2249  0.0557  0.0201
  584loPI   C2B 9342  15.443   0.678   9.602 -0.1581 -0.0341  0.2788
  584loPI   C3B 9343  15.415   0.807   9.265 -0.3288  0.1520 -0.0211
  584loPI   C4B 9344  15.564   0.914   8.926 -0.1276  0.0733 -0.1863
  585loPI    C1 9345   9.668  13.897  10.668 -0.0072  0.0082  0.0093
  585loPI    C2 9346   9.391  13.761  10.922 -0.0587  0.0365 -0.0316
  585loPI    C3 9347   9.322  13.754  10.528 -0.0657  0.1886 -0.0338
  585loPI   PO4 9348   9.714  14.128  10.722 -0.0931 -0.2454 -0.2463
  585loPI   GL1 9349   9.681  14.447  10.484  0.1882  0.1360  0.0795
  585loPI   GL2 9350   9.533  14.214  10.253  0.2196 -0.1875 -0.2569
  585loPI   C1A 9351   9.876  14.615  10.107  0.1468 -0.2758 -0.2624
  585loPI   C2A 9352   9.867  14.745   9.633  0.1447 -0.1909 -0.0917
  585loPI   C3A 9353   9.896  14.727   9.235 -0.2890  0.0711  0.0974
  585loPI   C4A 9354   9.969  14.614   8.839  0.1392  0.0513  0.0702
  585loPI   C5A 9355   9.887  14.489   8.372 -0.1487  0.0883  0.2381
  585loPI   C6A 9356  10.195  14.195   8.116  0.0014  0.0043  0.3479
  585loPI   C1B 9357   9.524  14.368   9.880 -0.0309 -0.1761  0.1507
  585loPI   C2B 9358   9.463  14.432   9.431 -0.0761  0.4158  0.1446
  585loPI   C3B 9359   9.493  14.376   8.950  0.1446  0.1558  0.0341
  585loPI   C4B 9360   9.433  14.345   8.566 -0.0758 -0.0891  0.0692
  586loPI    C1 9361  12.402   6.536  11.056 -0.0508 -0.2951 -0.0827
  586loPI    C2 9362  12.703   6.447  11.304 -0.1255  0.0530  0.1393
  586loPI    C3 9363  12.425   6.714  11.413 -0.3433 -0.0328 -0.1896
  586loPI   PO4 9364  12.497   6.606  10.868  0.0218  0.1166  0.3543
  586loPI   GL1 9365  12.371   6.667  10.443  0.0725  0.0439  0.3262
  586loPI   GL2 9366  12.577   6.451  10.366  0.2843 -0.1310 -0.2402
  586loPI   C1A 9367  12.299   6.802  10.005 -0.3651  0.0304  0.1097
  586loPI   C2A 9368  12.260   6.887   9.559 -0.2742  0.2863  0.1046
  586loPI   C3A 9369  12.281   6.971   9.145  0.0278 -0.2861  0.1057
  586loPI   C4A 9370  12.232   6.958   8.749 -0.0102 -0.1161 -0.0682
  586loPI   C5A 9371  12.186   6.762   8.361 -0.1899 -0.0034 -0.1176
  586loPI   C6A 9372  12.288   6.690   7.938  0.2191 -0.0663  0.0174
  586loPI   C1B 9373  12.676   6.486   9.930  0.2323  0.2336 -0.2759
  586loPI   C2B 9374  12.698   6.670   9.498  0.1822 -0.0444  0.0013
  586loPI   C3B 9375  12.632   6.633   9.136  0.1980 -0.2324  0.1134
  586loPI   C4B 9376  12.579   6.603   8.743  0.0087  0.1256  0.4517
  587loPI    C1 9377   8.096  15.126  11.238  0.0674 -0.1578  0.1488
  587loPI    C2 9378   7.861  15.329  10.986  0.4351 -0.1541 -0.2018
  587loPI    C3 9379   8.049  15.521  11.282 -0.0372 -0.1665  0.1190
  587loPI   PO4 9380   8.276  15.001  11.015  0.2202  0.0601  0.1088
  587loPI   GL1 9381   8.158  14.917  10.515  0.2416  0.1790  0.0571
  587loPI   GL2 9382   7.935  14.981  10.622 -0.0162 -0.0426  0.1280
  587loPI   C1A 9383   8.112  14.757  10.120 -0.1609 -0.0047  0.2066
  587loPI   C2A 9384   8.073  14.659   9.642  0.0599  0.1884  0.1295
  587loPI   C3A 9385   8.109  14.678   9.213  0.0638  0.1673 -0.0929
  587loPI   C4A 9386   8.113  14.626   8.797  0.1657  0.0442  0.0644
  587loPI   C5A 9387   8.044  14.416   8.399 -0.4453  0.0415 -0.0141
  587loPI   C6A 9388   7.858  14.103   8.152 -0.0981  0.2282 -0.2545
  587loPI   C1B 9389   7.889  15.160  10.226 -0.0466 -0.0241 -0.2341
  587loPI   C2B 9390   7.610  15.398   9.895  0.2609 -0.1398 -0.0603
  587loPI   C3B 9391   7.562  15.455   9.481  0.1858  0.2438 -0.1322
  587loPI   C4B 9392   7.570  15.408   9.135  0.0573 -0.0095 -0.0785
  588loPI    C1 9393  17.561  11.406  10.927 -0.0688 -0.1177  0.0322
  588loPI    C2 9394  17.574  11.030  11.063 -0.1987 -0.0884  0.1273
  588loPI    C3 9395  17.546  11.335  11.320 -0.0103 -0.0082  0.0546
  588loPI   PO4 9396  17.451  11.469  10.791 -0.1412  0.0813 -0.1371
  588loPI   GL1 9397  17.122  11.714  10.584  0.1124  0.0747  0.0156
  588loPI   GL2 9398  16.862  11.662  10.325 -0.0662 -0.0228 -0.1941
  588loPI   C1A 9399  17.302  11.823  10.088 -0.1567 -0.1624 -0.0759
  588loPI   C2A 9400  17.342  11.950   9.641  0.2303  0.1182  0.4500
  588loPI   C3A 9401  17.362  11.921   9.153 -0.1185 -0.2892  0.0003
  588loPI   C4A 9402  17.401  11.855   8.723 -0.0896  0.1222 -0.2043
  588loPI   C5A 9403  17.443  12.023   8.316  0.2301 -0.2479 -0.0857
  588loPI   C6A 9404  17.465  12.064   7.917 -0.0888  0.1864  0.2199
  588loPI   C1B 9405  16.872  11.787   9.887 -0.0270  0.1453 -0.0152
  588loPI   C2B 9406  16.890  11.863   9.404 -0.1967 -0.1663 -0.1817
  588loPI   C3B 9407  16.768  11.827   8.961  0.1885  0.3490  0.1022
  588loPI   C4B 9408  16.867  11.998   8.618 -0.0390  0.1450 -0.3135
  589loPI    C1 9409   6.071  15.138  11.062  0.1110 -0.1489  0.1790
  589loPI    C2 9410   6.333  15.407  11.200  0.0857 -0.1237  0.1781
  589loPI    C3 9411   6.159  15.150  11.452 -0.1670  0.1023  0.2377
  589loPI   PO4 9412   6.075  15.274  10.787  0.1713  0.0179 -0.2547
  589loPI   GL1 9413   6.182  15.401  10.360 -0.1918 -0.1684 -0.1387
  589loPI   GL2 9414   6.055  15.540  10.151  0.0211 -0.1355 -0.0471
  589loPI   C1A 9415   6.480  15.323  10.076  0.0971  0.0785 -0.0321
  589loPI   C2A 9416   6.660  15.358   9.752  0.0240 -0.0292  0.1528
  589loPI   C3A 9417   6.708  15.288   9.235  0.0633 -0.0108  0.1157
  589loPI   C4A 9418   6.743  15.338   8.795  0.1028 -0.1507  0.0515
  589loPI   C5A 9419   6.882  15.485   8.434 -0.0018 -0.0517 -0.0294
  589loPI   C6A 9420   7.140  15.808   8.213  0.0016  0.5231 -0.2225
  589loPI   C1B 9421   6.195  15.552   9.701 -0.0661 -0.1524  0.0193
  589loPI   C2B 9422   6.287  15.577   9.261 -0.0813  0.1947  0.3772
  589loPI   C3B 9423   6.175  15.499   8.848 -0.1113 -0.1464  0.1674
  589loPI   C4B 9424   6.369  15.432   8.444  0.5236 -0.1486 -0.0545
  590loPI    C1 9425   4.744  12.909  10.965  0.1077 -0.0264  0.0357
  590loPI    C2 9426   4.964  12.888  11.299 -0.2221 -0.2480  0.2451
  590loPI    C3 9427   4.749  13.216  11.221  0.0223 -0.1108  0.1400
  590loPI   PO4 9428   4.931  12.840  10.787  0.0922 -0.1200  0.2639
  590loPI   GL1 9429   5.038  12.838  10.359 -0.0485 -0.0884 -0.1699
  590loPI   GL2 9430   4.737  12.838  10.356 -0.2817 -0.5780 -0.0404
  590loPI   C1A 9431   5.159  12.774   9.895  0.0380  0.1883 -0.0474
  590loPI   C2A 9432   5.147  12.890   9.443 -0.0581  0.2278 -0.0453
  590loPI   C3A 9433   5.136  13.018   9.065 -0.0256 -0.1854  0.0232
  590loPI   C4A 9434   5.162  13.114   8.661 -0.1903  0.0555 -0.0923
  590loPI   C5A 9435   5.211  13.034   8.250  0.0653  0.0610  0.1098
  590loPI   C6A 9436   5.013  12.846   7.827  0.0342  0.2376  0.1977
  590loPI   C1B 9437   4.651  12.659   9.986 -0.0720  0.0625  0.0230
  590loPI   C2B 9438   4.746  12.528   9.597 -0.0418  0.1219  0.0328
  590loPI   C3B 9439   4.712  12.642   9.195  0.2080  0.0333  0.1738
  590loPI   C4B 9440   4.867  12.678   8.761 -0.1824  0.2777 -0.3783
  591loPI    C1 9441   2.698   2.191  10.772 -0.1083 -0.1191 -0.0521
  591loPI    C2 9442   2.601   1.822  10.891 -0.3663  0.0353  0.2311
  591loPI    C3 9443   2.677   2.105  11.162  0.0345  0.1414  0.0155
  591loPI   PO4 9444   2.516   2.293  10.636 -0.1638 -0.0181  0.1191
  591loPI   GL1 9445   2.387   2.454  10.229  0.0808  0.1675 -0.1384
  591loPI   GL2 9446   2.175   2.446  10.060  0.1862 -0.2521 -0.0505
  591loPI   C1A 9447   2.627   2.431   9.865  0.3860 -0.0449  0.3540
  591loPI   C2A 9448   2.611   2.506   9.402 -0.2279 -0.2243  0.1362
  591loPI   C3A 9449   2.613   2.590   8.964 -0.0838 -0.0342 -0.0263
  591loPI   C4A 9450   2.538   2.410   8.578 -0.0205  0.1406 -0.4895
  591loPI   C5A 9451   2.280   2.065   8.451 -0.0728 -0.0039  0.0454
  591loPI   C6A 9452   2.001   1.807   8.592  0.0852  0.1241 -0.1736
  591loPI   C1B 9453   2.172   2.586   9.683  0.0269  0.0246  0.1011
  591loPI   C2B 9454   2.116   2.562   9.212 -0.3262 -0.1992  0.2767
  591loPI   C3B 9455   2.013   2.586   8.843 -0.0115 -0.1728  0.0253
  591loPI   C4B 9456   2.026   2.467   8.479 -0.0971  0.1711 -0.1225
  592loPI    C1 9457   4.822   3.822  10.443 -0.0672 -0.2683  0.0018
  592loPI    C2 9458   4.789   3.658  10.806 -0.0110 -0.1068  0.0806
  592loPI    C3 9459   5.139   3.812  10.687  0.0062 -0.2761 -0.0931
  592loPI   PO4 9460   4.673   3.699  10.290  0.0262 -0.0340 -0.1118
  592loPI   GL1 9461   4.484   3.663   9.874  0.2423 -0.0401 -0.0053
  592loPI   GL2 9462   4.727   3.961   9.811  0.1445  0.0692  0.0795
  592loPI   C1A 9463   4.282   3.567   9.475 -0.1712 -0.1757 -0.1887
  592loPI   C2A 9464   4.195   3.558   9.025 -0.1272 -0.0015  0.0399
  592loPI   C3A 9465   4.186   3.551   8.557  0.1347  0.0563  0.3054
  592loPI   C4A 9466   4.004   3.575   8.084  0.0999  0.0338 -0.0528
  592loPI   C5A 9467   3.805   3.923   7.868  0.1067 -0.3310  0.0126
  592loPI   C6A 9468   3.374   3.964   7.656  0.2762 -0.1244 -0.2123
  592loPI   C1B 9469   4.593   3.999   9.382 -0.2353 -0.1992 -0.4380
  592loPI   C2B 9470   4.500   3.985   8.913 -0.0846  0.4069  0.2244
  592loPI   C3B 9471   4.483   4.022   8.448  0.1309 -0.0160  0.0864
  592loPI   C4B 9472   4.383   3.995   7.968  0.0132  0.1037  0.2472
  593loPI    C1 9473   8.976   6.621  10.776  0.0938 -0.1762  0.1527
  593loPI    C2 9474   9.313   6.815  10.870 -0.0464  0.1565 -0.0179
  593loPI    C3 9475   9.035   6.751  11.150  0.1252 -0.0569  0.1067
  593loPI   PO4 9476   8.914   6.751  10.504  0.1453 -0.0556 -0.0740
  593loPI   GL1 9477   9.152   6.986  10.414  0.0461  0.0229 -0.0021
  593loPI   GL2 9478   9.077   7.336  10.269  0.1203  0.2938 -0.0446
  593loPI   C1A 9479   9.358   6.951  10.056 -0.1396  0.3361  0.0356
  593loPI   C2A 9480   9.527   7.132   9.678 -0.2379  0.1600  0.0738
  593loPI   C3A 9481   9.597   7.205   9.301  0.0009  0.0746 -0.0503
  593loPI   C4A 9482   9.630   7.313   8.883 -0.2371 -0.1635  0.0826
  593loPI   C5A 9483   9.372   7.217   8.531 -0.0277  0.0151  0.2591
  593loPI   C6A 9484   8.982   7.376   8.227 -0.2271 -0.0476  0.0015
  593loPI   C1B 9485   9.109   7.528   9.885  0.1074 -0.2237  0.1765
  593loPI   C2B 9486   9.125   7.529   9.363 -0.0137 -0.0104  0.0423
  593loPI   C3B 9487   9.216   7.576   9.020  0.0671 -0.2129 -0.3343
  593loPI   C4B 9488   9.270   7.708   8.633 -0.0281 -0.0741 -0.2138
  594loPI    C1 9489   1.899   8.476  10.743  0.0099 -0.0151  0.2140
  594loPI    C2 9490   1.632   8.402  11.031  0.0014 -0.0447  0.1986
  594loPI    C3 9491   2.012   8.480  11.127 -0.0225  0.0429  0.2230
  594loPI   PO4 9492   1.665   8.458  10.522  0.1855  0.3167 -0.0448
  594loPI   GL1 9493   1.743   8.414  10.034  0.0459  0.0946 -0.0394
  594loPI   GL2 9494   1.706   8.169  10.115 -0.2027 -0.1311  0.1172
  594loPI   C1A 9495   1.929   8.474   9.680  0.2676 -0.0135  0.0346
  594loPI   C2A 9496   1.903   8.481   9.188  0.0277  0.1782 -0.3702
  594loPI   C3A 9497   1.939   8.446   8.717  0.1551  0.1537  0.1680
  594loPI   C4A 9498   1.728   8.404   8.315  0.0701  0.0683 -0.0384
  594loPI   C5A 9499   1.559   8.146   7.941  0.0169  0.1323 -0.0950
  594loPI   C6A 9500   1.321   8.234   7.618  0.2193 -0.0830 -0.4036
  594loPI   C1B 9501   1.571   8.103   9.627  0.0879 -0.1555 -0.0148
  594loPI   C2B 9502   1.552   8.058   9.238  0.4016 -0.1775  0.4236
  594loPI   C3B 9503   1.529   7.942   8.776  0.0978 -0.0523  0.0230
  594loPI   C4B 9504   1.500   7.897   8.352  0.1031 -0.3099  0.0307
  595loPI    C1 9505  16.996   0.086  11.007  0.0655  0.0464 -0.2120
  595loPI    C2 9506  16.717   0.271  10.789 -0.1560  0.0131  0.0389
  595loPI    C3 9507  16.813   0.411  11.151  0.0729 -0.0420  0.0006
  595loPI   PO4 9508  17.161   0.040  10.770 -0.0474  0.1421 -0.1390
  595loPI   GL1 9509  17.326   0.129  10.424  0.2015  0.5149  0.0134
  595loPI   GL2 9510  16.981   0.350  10.339  0.1155 -0.2546  0.0612
  595loPI   C1A 9511  17.168   0.016   9.982 -0.3502  0.0726 -0.2574
  595loPI   C2A 9512  17.114   0.157   9.541 -0.2849  0.0695 -0.4281
  595loPI   C3A 9513  17.108   0.294   9.114  0.0574  0.0351 -0.0424
  595loPI   C4A 9514  17.076   0.078   8.753 -0.2174 -0.2162 -0.1937
  595loPI   C5A 9515  17.055   0.225   8.306  0.1598 -0.0656 -0.2621
  595loPI   C6A 9516  16.949   0.523   8.019  0.0346  0.0353  0.0538
  595loPI   C1B 9517  16.890   0.458   9.945  0.1523  0.2418  0.1434
  595loPI   C2B 9518  16.744   0.517   9.577  0.2303  0.0271 -0.1145
  595loPI   C3B 9519  16.747   0.621   9.160  0.1105 -0.0589  0.1578
  595loPI   C4B 9520  16.802   0.489   8.684 -0.1211  0.0747 -0.2834
  596loPI    C1 9521   1.028   4.476  10.606 -0.1476 -0.0580  0.0632
  596loPI    C2 9522   1.113   4.601  10.976 -0.2563  0.0365  0.0570
  596loPI    C3 9523   0.772   4.405  10.905 -0.1831 -0.0814  0.0274
  596loPI   PO4 9524   1.126   4.614  10.453 -0.2918 -0.0579  0.2957
  596loPI   GL1 9525   1.528   4.467  10.202  0.1694  0.2867  0.0143
  596loPI   GL2 9526   1.677   4.177  10.228  0.0172 -0.1557  0.0485
  596loPI   C1A 9527   1.425   4.364   9.790 -0.3136 -0.0515 -0.1186
  596loPI   C2A 9528   1.436   4.616   9.370  0.3415 -0.3413  0.3670
  596loPI   C3A 9529   1.245   4.599   8.954  0.2303 -0.1792 -0.1501
  596loPI   C4A 9530   1.153   4.700   8.547  0.1889  0.1863 -0.1208
  596loPI   C5A 9531   0.972   4.882   8.164 -0.1026 -0.2673  0.1664
  596loPI   C6A 9532   0.986   5.220   7.938  0.1886 -0.2654  0.0343
  596loPI   C1B 9533   1.958   4.360   9.865 -0.1483  0.1074  0.0751
  596loPI   C2B 9534   2.037   4.495   9.390 -0.1498 -0.1265 -0.2506
  596loPI   C3B 9535   2.049   4.457   9.026 -0.0282 -0.0461 -0.1520
  596loPI   C4B 9536   1.899   4.494   8.655  0.0103  0.1462 -0.0832
  597loPI    C1 9537  13.722   5.405  11.014  0.2131 -0.3469 -0.2037
  597loPI    C2 9538  13.402   5.245  11.193  0.1685  0.0112  0.0483
  597loPI    C3 9539  13.758   5.238  11.376  0.2351 -0.0855 -0.0831
  597loPI   PO4 9540  13.749   5.312  10.780  0.2322  0.1352 -0.2858
  597loPI   GL1 9541  13.664   5.200  10.345 -0.1382  0.0830 -0.0181
  597loPI   GL2 9542  14.015   5.349  10.288 -0.0280  0.0992 -0.1698
  597loPI   C1A 9543  13.651   5.300   9.878 -0.2097 -0.2658 -0.0691
  597loPI   C2A 9544  13.655   5.441   9.413  0.0663  0.1651  0.3879
  597loPI   C3A 9545  13.711   5.511   9.013 -0.1130 -0.0261  0.0169
  597loPI   C4A 9546  13.741   5.590   8.508 -0.2004  0.0606 -0.4078
  597loPI   C5A 9547  13.765   5.983   8.297 -0.3899 -0.0602  0.0453
  597loPI   C6A 9548  13.877   6.298   7.918  0.0399  0.0708 -0.1159
  597loPI   C1B 9549  14.184   5.461   9.912  0.3274 -0.0574 -0.1524
  597loPI   C2B 9550  14.170   5.519   9.401 -0.0555  0.1350 -0.1168
  597loPI   C3B 9551  14.225   5.620   8.995  0.1668 -0.1613  0.1175
  597loPI   C4B 9552  14.208   5.722   8.635  0.1962 -0.1001  0.1928
  598loPI    C1 9553  16.422  12.397  11.060 -0.0373 -0.0664  0.0791
  598loPI    C2 9554  16.602  12.200  11.358  0.1109  0.0091  0.0401
  598loPI    C3 9555  16.568  12.598  11.373 -0.0770 -0.0069  0.0596
  598loPI   PO4 9556  16.271  12.283  10.959  0.1742 -0.1270 -0.0944
  598loPI   GL1 9557  16.189  12.275  10.544 -0.1604 -0.2462  0.0546
  598loPI   GL2 9558  16.443  12.097  10.476 -0.2691  0.4234 -0.0393
  598loPI   C1A 9559  16.142  12.477  10.189  0.4295  0.0005  0.2767
  598loPI   C2A 9560  16.140  12.481   9.737  0.0312 -0.0736  0.1677
  598loPI   C3A 9561  16.154  12.538   9.307  0.2130 -0.1190  0.2465
  598loPI   C4A 9562  16.042  12.611   8.898  0.0110  0.5913  0.3448
  598loPI   C5A 9563  16.177  12.833   8.416  0.1739  0.1415  0.2275
  598loPI   C6A 9564  16.207  13.037   7.969  0.2270 -0.3287 -0.0893
  598loPI   C1B 9565  16.505  12.113   9.981 -0.0786 -0.0532  0.1844
  598loPI   C2B 9566  16.542  12.178   9.582 -0.1746 -0.0497 -0.0669
  598loPI   C3B 9567  16.467  12.196   9.196  0.3043  0.0354 -0.0431
  598loPI   C4B 9568  16.387  12.201   8.813 -0.0003 -0.3369 -0.1091
  599loPI    C1 9569   5.136  14.337  10.547  0.0048  0.1866  0.0735
  599loPI    C2 9570   5.125  14.540  10.891  0.0517 -0.1725  0.2925
  599loPI    C3 9571   5.163  14.142  10.895 -0.1301 -0.1995 -0.1258
  599loPI   PO4 9572   4.953  14.418  10.418 -0.0863  0.0568  0.1105
  599loPI   GL1 9573   4.688  14.084  10.134  0.3058 -0.0535  0.0085
  599loPI   GL2 9574   4.720  14.313   9.996  0.2725 -0.1051  0.0878
  599loPI   C1A 9575   4.345  13.921   9.812  0.3493 -0.1606  0.1815
  599loPI   C2A 9576   4.481  13.843   9.376  0.2318  0.1362  0.0920
  599loPI   C3A 9577   4.586  13.898   8.954 -0.0677  0.3645 -0.3169
  599loPI   C4A 9578   4.618  13.779   8.522  0.1731  0.2152 -0.2660
  599loPI   C5A 9579   4.842  13.932   8.139  0.1615 -0.0330 -0.0860
  599loPI   C6A 9580   4.761  13.893   7.709 -0.1869  0.2798 -0.0210
  599loPI   C1B 9581   4.523  14.322   9.632 -0.1484 -0.2363  0.1967
  599loPI   C2B 9582   4.410  14.416   9.186  0.1351 -0.0699 -0.0057
  599loPI   C3B 9583   4.511  14.329   8.701  0.0261 -0.1023 -0.0100
  599loPI   C4B 9584   4.525  14.243   8.287  0.0084 -0.0512  0.1091
  600loPI    C1 9585   9.055  15.364  11.263  0.0909  0.0964  0.1712
  600loPI    C2 9586   9.266  15.670  11.412  0.1874  0.0278  0.1764
  600loPI    C3 9587   9.318  15.302  11.558  0.2141 -0.0242  0.0377
  600loPI   PO4 9588   8.866  15.555  11.015 -0.0542 -0.0157  0.1498
  600loPI   GL1 9589   9.069  15.590  10.579  0.0425  0.0203 -0.1131
  600loPI   GL2 9590   8.931  15.757  10.403  0.0901 -0.0155 -0.3615
  600loPI   C1A 9591   9.281  15.354  10.228  0.1974  0.0389  0.0665
  600loPI   C2A 9592   9.355  15.394   9.773 -0.2241 -0.2360 -0.1318
  600loPI   C3A 9593   9.376  15.440   9.340 -0.2010 -0.0968 -0.1503
  600loPI   C4A 9594   9.477  15.527   8.926 -0.0636  0.2189  0.1583
  600loPI   C5A 9595   9.436  15.436   8.482 -0.1409 -0.1806  0.1845
  600loPI   C6A 9596   9.292  15.207   8.106 -0.0883 -0.0646  0.0062
  600loPI   C1B 9597   8.907  15.660   9.995 -0.0554  0.0427 -0.2465
  600loPI   C2B 9598   8.909  15.656   9.510 -0.1558 -0.2987 -0.2526
  600loPI   C3B 9599   9.004  15.742   9.061  0.2335  0.0142 -0.2227
  600loPI   C4B 9600   9.027  15.715   8.677  0.1845 -0.0512  0.0985
  601loPI    C1 9601   4.686  17.662  10.658 -0.1199  0.0149  0.4644
  601loPI    C2 9602   4.414  17.370  10.627 -0.0603 -0.0243  0.2961
  601loPI    C3 9603   4.749  17.310  10.837  0.1299 -0.2152 -0.0532
  601loPI   PO4 9604   4.533  17.836  10.495 -0.0031  0.1330 -0.0149
  601loPI   GL1 9605   4.468  17.998  10.140 -0.4531 -0.0772 -0.0707
  601loPI   GL2 9606   4.094  18.161   9.954 -0.0435  0.0899 -0.1088
  601loPI   C1A 9607   4.678  17.882   9.691  0.0837  0.0900 -0.3997
  601loPI   C2A 9608   4.837  18.006   9.266 -0.2328  0.1537 -0.2152
  601loPI   C3A 9609   4.814  17.853   8.869 -0.1069 -0.0681 -0.0226
  601loPI   C4A 9610   4.633  17.907   8.463  0.1913 -0.3451  0.3161
  601loPI   C5A 9611   4.545  17.556   8.212 -0.1426 -0.2432  0.3285
  601loPI   C6A 9612   4.292  17.315   7.956  0.1193  0.1234 -0.1907
  601loPI   C1B 9613   4.027  17.932   9.529 -0.1814 -0.0762 -0.2641
  601loPI   C2B 9614   3.899  17.836   9.113  0.1222 -0.2655 -0.3443
  601loPI   C3B 9615   3.654  17.717   8.704 -0.0313 -0.3656  0.0028
  601loPI   C4B 9616   3.381  17.425   8.533  0.0458 -0.2760 -0.0046
  602loPI    C1 9617  15.349   8.474  10.911 -0.2092 -0.1202  0.0763
  602loPI    C2 9618  15.188   8.383  11.266 -0.0652  0.1660  0.2186
  602loPI    C3 9619  15.569   8.501  11.244 -0.0657  0.1254 -0.0360
  602loPI   PO4 9620  15.324   8.305  10.787  0.1136 -0.1130 -0.2192
  602loPI   GL1 9621  15.396   8.087  10.306 -0.0369 -0.1126 -0.2982
  602loPI   GL2 9622  15.045   8.022  10.446  0.0028  0.1429  0.1558
  602loPI   C1A 9623  15.516   8.088   9.861 -0.1169 -0.2714  0.2120
  602loPI   C2A 9624  15.463   8.181   9.438  0.1260 -0.0083  0.1041
  602loPI   C3A 9625  15.471   8.254   9.023 -0.1434  0.0343 -0.2730
  602loPI   C4A 9626  15.470   8.279   8.572  0.0295 -0.2131  0.1055
  602loPI   C5A 9627  15.677   8.368   8.210 -0.2303 -0.0937 -0.2800
  602loPI   C6A 9628  15.819   8.732   7.996 -0.0750  0.2357 -0.1823
  602loPI   C1B 9629  15.016   8.054   9.947  0.1533  0.0211  0.2247
  602loPI   C2B 9630  14.989   8.009   9.560 -0.1005 -0.3072  0.2491
  602loPI   C3B 9631  14.898   8.108   9.083 -0.0971  0.0150 -0.0620
  602loPI   C4B 9632  14.834   8.205   8.694  0.0514 -0.2996 -0.1741
  603loPI    C1 9633  12.987   3.176  10.784  0.1511  0.1952 -0.0146
  603loPI    C2 9634  13.052   3.417  11.096 -0.0799  0.1285  0.0869
  603loPI    C3 9635  12.718   3.197  11.080  0.0409 -0.0438 -0.0952
  603loPI   PO4 9636  13.141   3.290  10.602 -0.3745  0.0832  0.0775
  603loPI   GL1 9637  13.054   3.499  10.166  0.0786  0.0216  0.0469
  603loPI   GL2 9638  13.335   3.443  10.085  0.3379  0.1876 -0.0052
  603loPI   C1A 9639  13.147   3.469   9.678  0.2097 -0.0399 -0.4934
  603loPI   C2A 9640  13.241   3.816   9.340  0.6485 -0.2476 -0.2134
  603loPI   C3A 9641  13.531   3.695   8.937  0.1415 -0.0751 -0.2390
  603loPI   C4A 9642  13.354   3.663   8.524  0.1287 -0.0239 -0.0864
  603loPI   C5A 9643  13.393   3.762   8.074 -0.1331 -0.0249 -0.0112
  603loPI   C6A 9644  13.679   3.851   7.765  0.0210 -0.2566 -0.3366
  603loPI   C1B 9645  13.556   3.724   9.779  0.1094 -0.0834 -0.2183
  603loPI   C2B 9646  13.775   3.931   9.391 -0.2038 -0.0628  0.1042
  603loPI   C3B 9647  13.759   4.129   9.001 -0.1344  0.0360  0.2379
  603loPI   C4B 9648  13.706   4.167   8.662  0.1737  0.1648 -0.0428
  604loPI    C1 9649   0.639  17.284  11.140  0.1417 -0.0487 -0.0143
  604loPI    C2 9650   0.549  17.672  11.176 -0.0273 -0.0774 -0.1148
  604loPI    C3 9651   0.749  17.486  11.468 -0.1902  0.0184  0.0606
  604loPI   PO4 9652   0.714  17.298  10.868  0.1371  0.1234  0.0791
  604loPI   GL1 9653   0.559  17.225  10.433  0.1466 -0.1038 -0.2036
  604loPI   GL2 9654   0.646  17.465  10.276  0.1146 -0.2667 -0.3140
  604loPI   C1A 9655   0.478  17.179   9.933 -0.2927  0.1923 -0.1123
  604loPI   C2A 9656   0.385  17.216   9.508  0.1746  0.0033 -0.0611
  604loPI   C3A 9657   0.412  17.206   9.012  0.0146 -0.0444  0.2013
  604loPI   C4A 9658   0.183  17.215   8.663 -0.1587  0.0320  0.1614
  604loPI   C5A 9659  -0.200  16.981   8.677 -0.1299  0.2424  0.0206
  604loPI   C6A 9660  -0.202  16.585   8.662  0.1848 -0.0995 -0.1757
  604loPI   C1B 9661   0.619  17.711   9.881 -0.4341 -0.0757  0.1477
  604loPI   C2B 9662   0.561  17.735   9.501 -0.0303 -0.0746 -0.0330
  604loPI   C3B 9663   0.509  17.708   9.100  0.0318  0.2447  0.2735
  604loPI   C4B 9664   0.447  17.634   8.626 -0.0339  0.5620  0.2140
  605loPI    C1 9665  17.254   1.024  10.989 -0.1300  0.0567 -0.0328
  605loPI    C2 9666  17.074   0.951  11.338  0.0163  0.1771  0.0689
  605loPI    C3 9667  17.473   0.944  11.313  0.0019 -0.0191 -0.1396
  605loPI   PO4 9668  16.978   1.258  10.910  0.0461  0.0788  0.2376
  605loPI   GL1 9669  16.829   1.481  10.591 -0.1948 -0.3484  0.2298
  605loPI   GL2 9670  16.653   1.445  10.331 -0.2073 -0.3381 -0.0781
  605loPI   C1A 9671  17.105   1.454  10.133 -0.2775  0.2035  0.1922
  605loPI   C2A 9672  17.182   1.496   9.645  0.1562 -0.0250 -0.0652
  605loPI   C3A 9673  17.267   1.513   9.235  0.0228 -0.1768 -0.0326
  605loPI   C4A 9674  17.177   1.774   8.789  0.0983 -0.0207  0.1475
  605loPI   C5A 9675  17.003   1.698   8.362  0.0691  0.2956  0.0978
  605loPI   C6A 9676  16.906   1.899   7.991  0.2892 -0.1056  0.1830
  605loPI   C1B 9677  16.693   1.457   9.886  0.1876  0.0116  0.1910
  605loPI   C2B 9678  16.617   1.393   9.423  0.2235 -0.2351 -0.1785
  605loPI   C3B 9679  16.440   1.486   9.025  0.2692 -0.0395  0.0228
  605loPI   C4B 9680  16.263   1.372   8.648 -0.0749 -0.0926  0.3060
  606loPI    C1 9681   2.451  16.118  11.132  0.1540  0.2390 -0.0509
  606loPI    C2 9682   2.373  16.478  11.286 -0.0448  0.1585  0.0403
  606loPI    C3 9683   2.323  16.150  11.510  0.2697  0.0818  0.0030
  606loPI   PO4 9684   2.318  16.191  10.898 -0.3738 -0.2648  0.2511
  606loPI   GL1 9685   2.281  16.192  10.477  0.2083  0.2054  0.3423
  606loPI   GL2 9686   2.509  16.134  10.396 -0.1410  0.3040  0.0491
  606loPI   C1A 9687   1.932  16.401  10.195  0.0883 -0.0147 -0.3313
  606loPI   C2A 9688   1.791  16.488   9.749  0.0268  0.1984  0.0948
  606loPI   C3A 9689   1.573  16.568   9.300 -0.0332  0.0480 -0.0350
  606loPI   C4A 9690   1.538  16.584   8.873  0.0252  0.1191  0.2374
  606loPI   C5A 9691   1.504  16.493   8.527  0.2152 -0.2031 -0.1361
  606loPI   C6A 9692   1.823  16.291   8.255  0.0150 -0.0352  0.1217
  606loPI   C1B 9693   2.315  16.210   9.964  0.2146  0.0389 -0.2979
  606loPI   C2B 9694   2.172  16.175   9.586  0.0058 -0.1687 -0.2788
  606loPI   C3B 9695   1.899  16.192   9.115  0.0593 -0.1461  0.0800
  606loPI   C4B 9696   1.831  16.225   8.780 -0.1475 -0.0809  0.1162
  607loPI    C1 9697   7.246   7.902  10.991 -0.1805 -0.2893 -0.0116
  607loPI    C2 9698   6.940   7.736  11.187 -0.0281 -0.2819  0.2383
  607loPI    C3 9699   7.291   7.785  11.371  0.1043 -0.2273 -0.0239
  607loPI   PO4 9700   7.131   8.060  10.826  0.1957  0.0363 -0.0717
  607loPI   GL1 9701   7.196   8.203  10.354  0.0328 -0.2375  0.0847
  607loPI   GL2 9702   7.310   7.879  10.368 -0.0620  0.0237  0.0324
  607loPI   C1A 9703   7.372   8.111   9.913  0.2666  0.0845  0.1070
  607loPI   C2A 9704   7.396   8.126   9.427 -0.1121 -0.1041  0.0995
  607loPI   C3A 9705   7.443   8.136   9.011  0.1910  0.3523 -0.3454
  607loPI   C4A 9706   7.608   8.201   8.645  0.0660  0.1422  0.1539
  607loPI   C5A 9707   7.535   8.464   8.239 -0.0864 -0.2832  0.2581
  607loPI   C6A 9708   7.509   8.831   8.006 -0.0173 -0.0701 -0.0346
  607loPI   C1B 9709   7.568   7.651  10.045 -0.2708  0.6105 -0.0303
  607loPI   C2B 9710   7.703   7.702   9.656 -0.0259  0.3253 -0.3048
  607loPI   C3B 9711   7.806   7.763   9.152  0.0938  0.0820  0.1849
  607loPI   C4B 9712   7.895   7.819   8.756 -0.1259 -0.2398  0.1569
  608loPI    C1 9713  12.823   1.911  10.897 -0.2701  0.0102 -0.1295
  608loPI    C2 9714  12.669   1.584  11.069 -0.1312  0.0723  0.1175
  608loPI    C3 9715  12.454   1.921  11.053 -0.0944  0.1050  0.2926
  608loPI   PO4 9716  12.821   1.834  10.671 -0.0166  0.1078 -0.2097
  608loPI   GL1 9717  12.546   1.599  10.560 -0.0371 -0.0398  0.4815
  608loPI   GL2 9718  12.429   1.856  10.389 -0.0441  0.1567  0.0140
  608loPI   C1A 9719  12.695   1.297  10.247  0.0322  0.0493  0.2200
  608loPI   C2A 9720  12.744   1.228   9.841 -0.0318 -0.0241  0.2046
  608loPI   C3A 9721  12.707   1.239   9.481  0.3742  0.2653 -0.0478
  608loPI   C4A 9722  12.710   1.037   9.082 -0.0353 -0.0335  0.0175
  608loPI   C5A 9723  12.827   1.035   8.689  0.0851 -0.0271  0.0696
  608loPI   C6A 9724  12.793   1.324   8.350  0.5462  0.0784  0.0186
  608loPI   C1B 9725  12.629   1.736   9.981  0.5250 -0.0587  0.0466
  608loPI   C2B 9726  12.876   1.764   9.604  0.1435 -0.0049 -0.1213
  608loPI   C3B 9727  12.780   1.708   9.264  0.0388  0.0153  0.1432
  608loPI   C4B 9728  12.581   1.553   8.931  0.0555  0.2107 -0.1689
  609POPI    C1 9729   8.239   2.780  10.440 -0.0266  0.2510  0.1847
  609POPI    C2 9730   8.579   2.922  10.593  0.0669 -0.0713  0.2852
  609POPI    C3 9731   8.552   2.536  10.492 -0.2230 -0.0159  0.1418
  609POPI   PO4 9732   8.160   2.884  10.315 -0.0641 -0.1295 -0.0569
  609POPI   GL1 9733   7.977   3.080   9.966 -0.3227  0.1644 -0.1761
  609POPI   GL2 9734   7.665   3.238   9.933 -0.0236  0.2785  0.3738
  609POPI   C1A 9735   7.987   3.375   9.552  0.3264 -0.1743 -0.2481
  609POPI   D2A 9736   7.937   3.297   9.235 -0.0086  0.0881 -0.1233
  609POPI   C3A 9737   7.700   3.427   9.086  0.3253 -0.0578  0.1985
  609POPI   C4A 9738   7.470   3.430   8.702  0.2067 -0.1156  0.1054
  609POPI   C1B 9739   7.494   3.148   9.536 -0.2023 -0.0080 -0.1090
  609POPI   C2B 9740   7.282   2.988   9.091  0.1572  0.0550 -0.1060
  609POPI   C3B 9741   7.246   2.976   8.691  0.0462 -0.3582 -0.1258
  609POPI   C4B 9742   7.039   2.904   8.301 -0.2590 -0.1028 -0.0566
  610POPI    C1 9743   1.251   2.307  10.445  0.1666  0.0788 -0.1710
  610POPI    C2 9744   1.196   2.702  10.415 -0.0935  0.0616  0.0344
  610POPI    C3 9745   1.418   2.553  10.712  0.0244  0.0534 -0.0570
  610POPI   PO4 9746   1.287   2.238  10.272 -0.0318 -0.2059  0.0220
  610POPI   GL1 9747   1.072   2.016  10.040  0.0547 -0.0579 -0.3610
  610POPI   GL2 9748   1.370   1.788  10.020  0.3728  0.1856  0.0797
  610POPI   C1A 9749   0.981   1.964   9.596 -0.1179 -0.0744 -0.0127
  610POPI   D2A 9750   0.873   2.087   9.333  0.2136 -0.1684  0.0991
  610POPI   C3A 9751   0.965   2.064   8.870 -0.0499 -0.1542  0.1013
  610POPI   C4A 9752   1.026   1.848   8.599 -0.0281  0.1416 -0.4615
  610POPI   C1B 9753   1.616   1.697   9.701 -0.1263 -0.1426 -0.2551
  610POPI   C2B 9754   1.695   1.728   9.385  0.1362  0.0474  0.1808
  610POPI   C3B 9755   2.031   1.718   9.071  0.0465 -0.1130 -0.1777
  610POPI   C4B 9756   2.331   2.086   8.964  0.1242 -0.2264  0.0285
  611POPI    C1 9757   0.257   2.375  10.374  0.0414 -0.0227  0.0536
  611POPI    C2 9758   0.052   2.218  10.680  0.0871  0.0199  0.1064
  611POPI    C3 9759  -0.012   2.598  10.570  0.1097  0.0213  0.0980
  611POPI   PO4 9760   0.263   2.093  10.212 -0.3640  0.0182  0.1344
  611POPI   GL1 9761   0.273   2.097   9.755 -0.2470  0.0884  0.0787
  611POPI   GL2 9762   0.497   1.839   9.856  0.0466 -0.1142  0.1286
  611POPI   C1A 9763   0.240   2.162   9.339 -0.1335  0.0103  0.2551
  611POPI   D2A 9764   0.022   2.262   8.920  0.0228  0.0226  0.0954
  611POPI   C3A 9765   0.125   2.307   8.477  0.2279 -0.1366  0.0328
  611POPI   C4A 9766  -0.068   2.423   8.042 -0.1985 -0.2051  0.1038
  611POPI   C1B 9767   0.537   1.724   9.358 -0.0371 -0.2606 -0.1532
  611POPI   C2B 9768   0.569   1.806   8.988 -0.0545  0.0200  0.0376
  611POPI   C3B 9769   0.514   2.103   8.680  0.1020 -0.2557  0.1702
  611POPI   C4B 9770   0.766   2.180   8.346  0.1874 -0.0384  0.3147
  612POPI    C1 9771   3.955   7.002  10.789  0.3087 -0.0518  0.1825
  612POPI    C2 9772   4.154   7.041  11.134  0.2744 -0.2360  0.2241
  612POPI    C3 9773   3.928   6.717  11.069 -0.0184 -0.0264  0.1806
  612POPI   PO4 9774   3.831   7.288  10.782  0.2127  0.2942  0.0707
  612POPI   GL1 9775   3.721   7.422  10.267 -0.1822 -0.0208  0.1371
  612POPI   GL2 9776   3.916   7.191  10.331  0.2051  0.2805  0.0402
  612POPI   C1A 9777   3.607   7.633   9.960 -0.1152 -0.0062  0.1786
  612POPI   D2A 9778   3.523   7.647   9.579 -0.1916 -0.0769  0.2443
  612POPI   C3A 9779   3.558   7.685   9.186  0.1158  0.1702  0.1596
  612POPI   C4A 9780   3.561   7.977   8.941 -0.2743  0.0898  0.1861
  612POPI   C1B 9781   3.709   7.133   9.908 -0.0779  0.1278 -0.0855
  612POPI   C2B 9782   3.751   7.213   9.416  0.1619 -0.2680 -0.2887
  612POPI   C3B 9783   3.742   7.234   8.948  0.1497  0.2745 -0.3019
  612POPI   C4B 9784   3.699   7.595   8.622 -0.2430 -0.1709  0.0371
  613POPI    C1 9785   5.575   0.832  10.652  0.0195 -0.0252 -0.0171
  613POPI    C2 9786   5.599   0.743  11.041  0.0279  0.1106  0.0140
  613POPI    C3 9787   5.650   0.457  10.767 -0.0565 -0.0012  0.1137
  613POPI   PO4 9788   5.426   0.939  10.616 -0.3156  0.2866  0.1231
  613POPI   GL1 9789   5.286   0.989  10.177 -0.0630  0.1131  0.1416
  613POPI   GL2 9790   5.344   1.319  10.149  0.2471  0.1015 -0.2295
  613POPI   C1A 9791   4.980   1.187   9.819 -0.0011 -0.0940  0.2753
  613POPI   D2A 9792   4.563   1.177   9.654  0.1368 -0.2990  0.2072
  613POPI   C3A 9793   4.549   1.198   9.262 -0.2109 -0.2607 -0.1143
  613POPI   C4A 9794   4.536   1.195   8.838 -0.1238  0.0814  0.0157
  613POPI   C1B 9795   5.472   1.593   9.894  0.0143  0.3856 -0.3645
  613POPI   C2B 9796   5.308   1.420   9.394  0.1747  0.0381 -0.0601
  613POPI   C3B 9797   5.266   1.526   8.961  0.2698 -0.0519 -0.1117
  613POPI   C4B 9798   5.341   1.339   8.551  0.1264 -0.1161  0.1611
  614POPI    C1 9799   8.846  17.947  10.664 -0.0804  0.0200  0.0223
  614POPI    C2 9800   8.900  17.584  10.504 -0.0603  0.0475 -0.0334
  614POPI    C3 9801   8.865  17.625  10.901  0.3977  0.0350  0.0144
  614POPI   PO4 9802   9.030  18.080  10.520 -0.0500 -0.0417  0.0057
  614POPI   GL1 9803   9.189  18.263  10.136 -0.1129 -0.2586 -0.0103
  614POPI   GL2 9804   9.447  18.458  10.091  0.0450  0.0042  0.0346
  614POPI   C1A 9805   9.269  18.123   9.750 -0.2064  0.1728  0.1429
  614POPI   D2A 9806   9.191  18.015   9.362 -0.2654 -0.1357 -0.1957
  614POPI   C3A 9807   9.307  18.119   8.933  0.1381 -0.1543  0.1397
  614POPI   C4A 9808   9.310  18.007   8.607  0.0763 -0.1560  0.1043
  614POPI   C1B 9809   9.706  18.389   9.763 -0.2072  0.0385  0.1048
  614POPI   C2B 9810   9.721  18.377   9.300 -0.0439  0.4679  0.1119
  614POPI   C3B 9811   9.735  18.373   8.877 -0.1833 -0.0347  0.4704
  614POPI   C4B 9812   9.710  18.295   8.482  0.2874 -0.0227  0.0385
  615POPI    C1 9813  11.550   6.162  11.247  0.1465 -0.2471  0.2133
  615POPI    C2 9814  11.488   6.436  11.532 -0.1858  0.1793 -0.2498
  615POPI    C3 9815  11.283   6.092  11.537 -0.3263  0.2638 -0.0786
  615POPI   PO4 9816  11.490   6.298  10.951 -0.0949 -0.1878 -0.0937
  615POPI   GL1 9817  11.379   6.432  10.521 -0.0074  0.0721  0.0721
  615POPI   GL2 9818  11.758   6.250  10.493 -0.0400  0.0397 -0.3028
  615POPI   C1A 9819  11.471   6.426  10.083 -0.0640 -0.2992  0.4050
  615POPI   D2A 9820  11.635   6.258   9.741 -0.2328  0.2946 -0.0359
  615POPI   C3A 9821  11.668   6.268   9.262  0.0663 -0.0222 -0.0487
  615POPI   C4A 9822  11.617   6.283   8.825  0.1352 -0.2875  0.0716
  615POPI   C1B 9823  12.086   6.318  10.136  0.2180 -0.3245  0.2671
  615POPI   C2B 9824  12.111   6.324   9.652 -0.0014  0.3134  0.0474
  615POPI   C3B 9825  12.189   6.440   9.285  0.0918  0.0723 -0.0208
  615POPI   C4B 9826  12.097   6.487   8.853 -0.4014  0.3931  0.2404
  616POPI    C1 9827  14.390  11.504  10.873 -0.0830  0.0262 -0.1020
  616POPI    C2 9828  14.629  11.784  10.717 -0.0127  0.0768  0.0930
  616POPI    C3 9829  14.786  11.479  10.922 -0.0992 -0.0277  0.0052
  616POPI   PO4 9830  14.206  11.401  10.764 -0.4240  0.0219  0.0535
  616POPI   GL1 9831  14.140  11.183  10.471  0.2086  0.1799  0.1338
  616POPI   GL2 9832  14.312  10.856  10.446 -0.2442 -0.0005 -0.0132
  616POPI   C1A 9833  13.843  11.193  10.174  0.0746 -0.1384 -0.1045
  616POPI   D2A 9834  13.568  11.290   9.756 -0.0146 -0.1049 -0.1038
  616POPI   C3A 9835  13.581  11.317   9.396 -0.1563  0.0597 -0.3339
  616POPI   C4A 9836  13.536  11.124   9.042  0.3369  0.0978 -0.0886
  616POPI   C1B 9837  14.504  10.637  10.046 -0.2185 -0.0238  0.0232
  616POPI   C2B 9838  14.291  10.548   9.681 -0.3167 -0.2688 -0.2292
  616POPI   C3B 9839  14.257  10.552   9.292 -0.2830 -0.0450 -0.0188
  616POPI   C4B 9840  13.960  10.534   8.863  0.1136  0.0520 -0.0043
  617POPI    C1 9841   4.054   7.735  10.673 -0.1708 -0.0136  0.0704
  617POPI    C2 9842   4.211   7.873  11.014 -0.0681 -0.0146  0.0240
  617POPI    C3 9843   4.268   7.491  10.908 -0.1053 -0.0159  0.0088
  617POPI   PO4 9844   3.767   7.953  10.654 -0.0982  0.1426 -0.1236
  617POPI   GL1 9845   3.513   8.000  10.259  0.0560 -0.0584 -0.0681
  617POPI   GL2 9846   3.318   7.821  10.414  0.2711 -0.2602  0.1382
  617POPI   C1A 9847   3.439   8.104   9.824 -0.0944 -0.3829 -0.1017
  617POPI   D2A 9848   3.335   8.121   9.392  0.4384 -0.1515  0.0411
  617POPI   C3A 9849   3.279   8.593   9.379  0.0963 -0.1999  0.2946
  617POPI   C4A 9850   3.138   9.071   9.327 -0.1485 -0.0496  0.0112
  617POPI   C1B 9851   3.132   7.753   9.965 -0.1977  0.2413 -0.0032
  617POPI   C2B 9852   2.997   7.726   9.548 -0.4270 -0.0545 -0.0622
  617POPI   C3B 9853   3.082   7.796   9.042 -0.1397 -0.0798  0.1468
  617POPI   C4B 9854   3.179   7.839   8.582  0.0400 -0.2035 -0.0671
  618POPI    C1 9855   1.852   5.270  10.728 -0.1508  0.0796 -0.0462
  618POPI    C2 9856   2.034   5.065  11.019 -0.0056  0.1656 -0.0755
  618POPI    C3 9857   1.907   5.437  11.088  0.3408  0.3153 -0.2223
  618POPI   PO4 9858   2.039   5.185  10.513  0.1386  0.0679  0.0505
  618POPI   GL1 9859   1.954   5.276  10.158  0.0013  0.1451 -0.0848
  618POPI   GL2 9860   1.621   5.320  10.175 -0.1024  0.1265 -0.1312
  618POPI   C1A 9861   2.177   5.302   9.683  0.5332 -0.2172 -0.0526
  618POPI   D2A 9862   2.392   5.653   9.474 -0.0425  0.0111 -0.0512
  618POPI   C3A 9863   2.490   5.705   9.024  0.0643 -0.2059  0.0004
  618POPI   C4A 9864   2.453   5.698   8.630 -0.2721  0.1122  0.0721
  618POPI   C1B 9865   1.540   5.384   9.772  0.2078  0.0428 -0.1663
  618POPI   C2B 9866   1.474   5.406   9.349 -0.1610 -0.1338 -0.2001
  618POPI   C3B 9867   1.467   5.433   8.934  0.0825  0.1071  0.0931
  618POPI   C4B 9868   1.641   5.647   8.500 -0.0526 -0.1892  0.1823
  619POPI    C1 9869   0.181   3.654  10.531  0.0698 -0.0072  0.1045
  619POPI    C2 9870  -0.157   3.595  10.326  0.0998 -0.0308  0.0618
  619POPI    C3 9871   0.062   3.282  10.445  0.2122 -0.0102 -0.0871
  619POPI   PO4 9872   0.359   3.788  10.362  0.0092  0.2494  0.4497
  619POPI   GL1 9873   0.204   3.916   9.980  0.0415 -0.1817  0.1872
  619POPI   GL2 9874   0.452   4.178   9.905  0.0302  0.1738  0.0595
  619POPI   C1A 9875  -0.149   3.822   9.873  0.0490  0.2468 -0.0065
  619POPI   D2A 9876  -0.452   4.056   9.771  0.3360 -0.2322 -0.2800
  619POPI   C3A 9877  -0.439   4.351   9.538 -0.2314  0.3016 -0.0753
  619POPI   C4A 9878  -0.493   4.675   9.253 -0.2302  0.0503  0.1853
  619POPI   C1B 9879   0.490   4.250   9.410  0.0089  0.1688 -0.0505
  619POPI   C2B 9880   0.356   4.315   8.972  0.0013 -0.0099 -0.1309
  619POPI   C3B 9881   0.290   4.431   8.546 -0.2677  0.1251  0.1740
  619POPI   C4B 9882   0.050   4.144   8.344 -0.0467  0.0537 -0.3321
  620POPI    C1 9883   4.846   7.100  10.603  0.0325 -0.0718 -0.2221
  620POPI    C2 9884   4.958   6.902  10.932  0.0348 -0.0682 -0.2207
  620POPI    C3 9885   4.666   7.175  10.952  0.1678  0.0721 -0.1825
  620POPI   PO4 9886   4.811   6.811  10.420  0.1677 -0.1218  0.1259
  620POPI   GL1 9887   4.777   6.934   9.937 -0.0352  0.0924 -0.4180
  620POPI   GL2 9888   4.752   6.462   9.954  0.1560 -0.1011 -0.1017
  620POPI   C1A 9889   4.650   6.792   9.591  0.1883 -0.5972  0.2677
  620POPI   D2A 9890   4.411   6.657   9.300  0.2412 -0.0445 -0.2243
  620POPI   C3A 9891   4.569   6.650   8.950  0.0355  0.1524 -0.3491
  620POPI   C4A 9892   4.607   6.676   8.587  0.0918 -0.0134 -0.2379
  620POPI   C1B 9893   4.654   6.253   9.563  0.4216 -0.0612 -0.1213
  620POPI   C2B 9894   4.667   6.227   9.154  0.0010 -0.2418  0.0150
  620POPI   C3B 9895   4.684   6.208   8.801  0.2846 -0.0269  0.0672
  620POPI   C4B 9896   4.548   6.222   8.385 -0.0959  0.0396 -0.3638
  621POPI    C1 9897   8.155   4.702  10.455 -0.2342 -0.0291 -0.0908
  621POPI    C2 9898   7.891   4.407  10.516 -0.0674 -0.1505  0.0499
  621POPI    C3 9899   8.046   4.606  10.827  0.1393 -0.1980 -0.0205
  621POPI   PO4 9900   8.104   4.654  10.142  0.2886  0.1915  0.1224
  621POPI   GL1 9901   7.821   4.323   9.960 -0.1145 -0.0042 -0.1740
  621POPI   GL2 9902   7.577   4.589   9.850 -0.2990  0.1100  0.1143
  621POPI   C1A 9903   7.754   4.143   9.563  0.1187 -0.2421  0.0366
  621POPI   D2A 9904   7.983   3.912   9.316  0.1499 -0.0910  0.4801
  621POPI   C3A 9905   8.182   4.056   9.003  0.0001 -0.0089  0.0377
  621POPI   C4A 9906   8.464   4.012   8.606  0.2183 -0.0379 -0.1601
  621POPI   C1B 9907   7.843   4.654   9.484 -0.1514 -0.0096 -0.1429
  621POPI   C2B 9908   8.073   4.763   9.192  0.1382 -0.1408 -0.0306
  621POPI   C3B 9909   8.236   4.524   8.792  0.1788 -0.1241  0.0549
  621POPI   C4B 9910   8.304   4.521   8.411  0.0350  0.0392  0.3021
  622POPI    C1 9911  13.152  10.937  10.752 -0.0452  0.1093 -0.2300
  622POPI    C2 9912  13.233  11.210  10.471 -0.0651  0.4291  0.0694
  622POPI    C3 9913  13.262  11.306  10.859 -0.0025 -0.0172  0.1807
  622POPI   PO4 9914  13.246  10.684  10.559 -0.2921 -0.1329 -0.3377
  622POPI   GL1 9915  13.476  10.731  10.172 -0.0055 -0.0890  0.2072
  622POPI   GL2 9916  13.337  10.998  10.001 -0.1461 -0.2509  0.1678
  622POPI   C1A 9917  13.377  10.314   9.910  0.3628  0.1333  0.0638
  622POPI   D2A 9918  13.756  10.359   9.780 -0.2606  0.1646  0.0392
  622POPI   C3A 9919  13.787  10.438   9.392  0.1256 -0.1761 -0.2546
  622POPI   C4A 9920  13.483  10.591   9.103 -0.0487 -0.5051  0.0961
  622POPI   C1B 9921  13.388  10.809   9.571 -0.2622  0.1203  0.0974
  622POPI   C2B 9922  13.228  10.380   9.435  0.2877  0.2062 -0.1471
  622POPI   C3B 9923  13.106   9.971   9.687  0.1963  0.1278  0.2454
  622POPI   C4B 9924  13.226   9.747  10.000 -0.0267  0.0334 -0.0473
  623POPI    C1 9925  14.165  17.410  11.396 -0.2012 -0.1103  0.1492
  623POPI    C2 9926  14.534  17.257  11.414  0.0266  0.3704 -0.2103
  623POPI    C3 9927  14.346  17.364  11.750  0.0678 -0.1943  0.0035
  623POPI   PO4 9928  14.053  17.288  11.289  0.2710  0.0417 -0.1101
  623POPI   GL1 9929  13.951  17.137  10.877  0.1267 -0.0053  0.1395
  623POPI   GL2 9930  14.149  17.397  10.796  0.1968 -0.1058 -0.0806
  623POPI   C1A 9931  13.744  17.258  10.463 -0.0143 -0.1269 -0.0903
  623POPI   D2A 9932  13.342  17.278  10.167  0.2260  0.0415  0.0800
  623POPI   C3A 9933  13.021  16.944  10.135 -0.0232 -0.0231  0.0823
  623POPI   C4A 9934  12.615  16.695  10.157 -0.2416 -0.3339 -0.4248
  623POPI   C1B 9935  14.208  17.084  10.465  0.0617 -0.0911 -0.2585
  623POPI   C2B 9936  14.270  17.150   9.990 -0.0295  0.0759 -0.1899
  623POPI   C3B 9937  14.568  17.396   9.744 -0.1052  0.2348  0.1104
  623POPI   C4B 9938  14.656  17.820   9.557  0.1838  0.0866 -0.1563
  624POPI    C1 9939  16.551  11.827  10.909  0.0205  0.2102 -0.0911
  624POPI    C2 9940  16.594  11.604  11.237  0.0612  0.1108 -0.1637
  624POPI    C3 9941  16.271  11.835  11.194  0.1269  0.2374  0.0134
  624POPI   PO4 9942  16.747  11.903  10.880  0.0422  0.0340 -0.0593
  624POPI   GL1 9943  16.796  12.363  10.735  0.0387 -0.0941 -0.0915
  624POPI   GL2 9944  16.610  12.661  10.686  0.1209  0.0597  0.1135
  624POPI   C1A 9945  16.943  12.117  10.275  0.0118 -0.1150  0.1084
  624POPI   D2A 9946  16.978  12.292   9.866  0.0586 -0.0043  0.1603
  624POPI   C3A 9947  17.030  12.350   9.381  0.0134  0.3499 -0.1225
  624POPI   C4A 9948  16.973  12.363   8.922  0.1334  0.1212 -0.1072
  624POPI   C1B 9949  16.660  12.591  10.247 -0.0586 -0.2053  0.0346
  624POPI   C2B 9950  16.686  12.657   9.784  0.0950  0.0508  0.2194
  624POPI   C3B 9951  16.648  12.696   9.361 -0.3268 -0.4044  0.0409
  624POPI   C4B 9952  16.516  12.714   8.948  0.1781  0.1171  0.0573
  625DPPI    C1 9953   2.982   9.489  10.609 -0.1196  0.0850  0.0111
  625DPPI    C2 9954   3.020   9.461  10.212  0.1208 -0.0634  0.0422
  625DPPI    C3 9955   2.875   9.153  10.422 -0.1729  0.0783  0.0534
  625DPPI   PO4 9956   3.100   9.740  10.702  0.4113 -0.0782  0.3436
  625DPPI   GL1 9957   3.473   9.771  10.440  0.0760  0.1111 -0.0868
  625DPPI   GL2 9958   3.413   9.936  10.196 -0.0992 -0.0943  0.0488
  625DPPI   C1A 9959   3.495   9.404  10.138  0.0976 -0.2553 -0.2105
  625DPPI   C2A 9960   3.459   9.197   9.759  0.0106  0.2142  0.2310
  625DPPI   C3A 9961   3.465   9.411   9.306 -0.0655 -0.0772  0.1105
  625DPPI   C4A 9962   3.410   9.815   9.189  0.1092  0.2272 -0.0468
  625DPPI   C1B 9963   3.182   9.926   9.827  0.0149  0.1406  0.2937
  625DPPI   C2B 9964   3.020   9.644   9.497  0.0040 -0.0089  0.0196
  625DPPI   C3B 9965   2.892   9.473   9.080  0.1818  0.0696  0.0932
  625DPPI   C4B 9966   2.574   9.390   8.749  0.3198 -0.0403 -0.3291
  626DPPI    C1 9967  14.892   2.347  11.262 -0.1261  0.1276 -0.2305
  626DPPI    C2 9968  14.572   2.112  11.313  0.0947 -0.1517 -0.1049
  626DPPI    C3 9969  14.715   2.324  11.621  0.0698 -0.0775 -0.1443
  626DPPI   PO4 9970  15.024   2.190  11.129  0.1007  0.0547 -0.2419
  626DPPI   GL1 9971  14.964   2.050  10.649 -0.1875 -0.0941 -0.0333
  626DPPI   GL2 9972  15.039   2.308  10.405  0.2096 -0.0094 -0.0644
  626DPPI   C1A 9973  14.921   1.867  10.234  0.1519 -0.1732  0.2105
  626DPPI   C2A 9974  14.683   1.845   9.901 -0.0536  0.2142  0.0093
  626DPPI   C3A 9975  14.578   1.590   9.411 -0.1231 -0.1862 -0.2717
  626DPPI   C4A 9976  14.393   1.734   8.950  0.1122  0.0515  0.1731
  626DPPI   C1B 9977  15.158   2.680  10.076 -0.1868 -0.4570 -0.2176
  626DPPI   C2B 9978  15.204   2.950   9.785 -0.1466  0.6587 -0.1044
  626DPPI   C3B 9979  15.262   3.092   9.361  0.0320  0.0270 -0.0582
  626DPPI   C4B 9980  15.351   3.164   8.895  0.4101  0.3466  0.1312
  627DPPI    C1 9981   0.536   2.791  10.582 -0.1081  0.2007  0.0614
  627DPPI    C2 9982   0.234   2.944  10.795 -0.3424 -0.1438 -0.0153
  627DPPI    C3 9983   0.378   2.582  10.884  0.0183 -0.0033 -0.0119
  627DPPI   PO4 9984   0.468   2.838  10.291 -0.0276  0.2016 -0.1291
  627DPPI   GL1 9985   0.423   3.120   9.869 -0.0523  0.1466 -0.2574
  627DPPI   GL2 9986   0.264   3.460   9.856 -0.0959 -0.1064 -0.0122
  627DPPI   C1A 9987  -0.006   3.018   9.577 -0.1229 -0.1108  0.1082
  627DPPI   C2A 9988  -0.012   3.188   9.067 -0.0929 -0.1727 -0.2514
  627DPPI   C3A 9989   0.129   3.481   8.772 -0.2464  0.2553  0.0228
  627DPPI   C4A 9990   0.460   3.394   8.752  0.1654 -0.1675  0.1927
  627DPPI   C1B 9991  -0.006   3.576   9.488  0.1293  0.0388 -0.1482
  627DPPI   C2B 9992  -0.298   3.584   9.096 -0.0607 -0.0062 -0.0070
  627DPPI   C3B 9993  -0.727   3.534   8.875  0.0656 -0.0855 -0.0360
  627DPPI   C4B 9994  -0.844   3.464   8.445  0.0677  0.3196 -0.0945
  628DPPI    C1 9995  17.786   1.746  10.844 -0.0616  0.1168 -0.0543
  628DPPI    C2 9996  18.014   1.980  11.075 -0.1491  0.1379  0.0108
  628DPPI    C3 9997  17.940   1.602  11.183 -0.0768  0.1056 -0.0521
  628DPPI   PO4 9998  17.901   1.855  10.599 -0.4477  0.0243 -0.1310
  628DPPI   GL1 9999  17.930   2.071  10.263 -0.0099 -0.1071  0.2015
  628DPPI   GL210000  17.977   2.434  10.090 -0.1774  0.3055  0.1738
  628DPPI   C1A10001  17.926   2.029   9.789  0.0241  0.1996  0.2260
  628DPPI   C2A10002  17.883   2.114   9.287  0.0123 -0.1177 -0.0457
  628DPPI   C3A10003  17.715   2.176   8.834  0.0399 -0.2345 -0.0582
  628DPPI   C4A10004  17.726   2.452   8.466  0.1154  0.1084 -0.3004
  628DPPI   C1B10005  18.050   2.545   9.635  0.0171 -0.2914 -0.0623
  628DPPI   C2B10006  18.298   2.675   9.287 -0.1536 -0.0520 -0.1466
  628DPPI   C3B10007  18.715   2.464   9.028 -0.0542  0.0534  0.3163
  628DPPI   C4B10008  18.978   2.565   8.685 -0.1342  0.1746 -0.3002
  629DPPI    C110009  16.939   2.034  10.878  0.0335  0.0666  0.1220
  629DPPI    C210010  16.962   2.346  11.127  0.0128 -0.0136  0.2257
  629DPPI    C310011  16.772   2.383  10.777  0.0569  0.1047  0.2134
  629DPPI   PO410012  17.248   1.908  10.859 -0.0878  0.1404 -0.1666
  629DPPI   GL110013  17.447   1.889  10.405  0.1548 -0.1648  0.1099
  629DPPI   GL210014  17.483   2.283  10.281  0.1144 -0.1990  0.1672
  629DPPI   C1A10015  17.499   1.843   9.970 -0.1378 -0.0940  0.0198
  629DPPI   C2A10016  17.365   1.990   9.565 -0.0565  0.1090 -0.0127
  629DPPI   C3A10017  17.232   2.069   9.175  0.1996 -0.1318  0.3547
  629DPPI   C4A10018  17.151   2.284   8.802  0.3420 -0.0425 -0.0377
  629DPPI   C1B10019  17.526   2.352   9.833  0.1340 -0.0588 -0.0528
  629DPPI   C2B10020  17.536   2.490   9.438  0.2289 -0.1942  0.0105
  629DPPI   C3B10021  17.837   2.624   9.116  0.0802 -0.0116 -0.0519
  629DPPI   C4B10022  18.086   2.787   8.760  0.0841 -0.1098  0.3367
  630DPPI    C110023  13.840   3.967  10.769  0.0945 -0.0932  0.1529
  630DPPI    C210024  13.511   3.992  10.996 -0.0441  0.2078 -0.0731
  630DPPI    C310025  13.871   3.961  11.168 -0.1671  0.1541  0.1803
  630DPPI   PO410026  13.793   3.689  10.541 -0.1488  0.0695  0.2404
  630DPPI   GL110027  13.804   3.539  10.134  0.0949 -0.3076  0.1631
  630DPPI   GL210028  14.067   3.602  10.085  0.0866  0.0062 -0.1316
  630DPPI   C1A10029  13.671   3.256   9.761  0.4030 -0.2514  0.2285
  630DPPI   C2A10030  13.636   3.308   9.292  0.2066 -0.1548  0.0619
  630DPPI   C3A10031  13.844   3.302   8.847 -0.2212  0.0801 -0.2301
  630DPPI   C4A10032  13.744   3.278   8.438  0.0219  0.0179  0.1306
  630DPPI   C1B10033  14.076   3.524   9.583 -0.0046  0.0448  0.0525
  630DPPI   C2B10034  14.169   3.725   9.191  0.1270  0.2752  0.3433
  630DPPI   C3B10035  14.005   3.791   8.741 -0.0721 -0.1461  0.1813
  630DPPI   C4B10036  14.242   3.626   8.343  0.1997 -0.2741 -0.0143
  631DPPI    C110037  17.190   2.809  11.038  0.1452  0.1161 -0.1346
  631DPPI    C210038  16.939   2.882  11.341  0.0706  0.0934 -0.1908
  631DPPI    C310039  17.287   2.696  11.410 -0.0156 -0.0513 -0.1421
  631DPPI   PO410040  17.016   2.855  10.831 -0.2176  0.0294  0.0773
  631DPPI   GL110041  16.976   2.744  10.413  0.2401 -0.2288  0.0825
  631DPPI   GL210042  17.039   3.039  10.170  0.0259 -0.0854 -0.1974
  631DPPI   C1A10043  16.736   2.771   9.923  0.3142 -0.2611  0.2781
  631DPPI   C2A10044  16.582   2.704   9.514 -0.0122  0.0926 -0.3119
  631DPPI   C3A10045  16.663   2.925   9.095  0.2359 -0.0863  0.0687
  631DPPI   C4A10046  16.424   2.959   8.626  0.2691  0.0450  0.2841
  631DPPI   C1B10047  16.885   3.269   9.864  0.0233  0.4372 -0.0686
  631DPPI   C2B10048  16.736   3.407   9.378  0.1048  0.0466  0.2219
  631DPPI   C3B10049  16.693   3.595   8.990  0.0027  0.2473  0.1016
  631DPPI   C4B10050  16.435   3.971   8.791 -0.0359  0.1541  0.2164
  632DPPI    C110051  13.291  12.068  10.802 -0.1865 -0.0052  0.2175
  632DPPI    C210052  13.481  11.748  10.949  0.0222  0.0029 -0.0260
  632DPPI    C310053  13.221  11.949  11.177  0.1433 -0.1377  0.2407
  632DPPI   PO410054  13.306  11.870  10.497  0.1863  0.0631  0.1217
  632DPPI   GL110055  13.283  11.834   9.998  0.0793  0.2701  0.0098
  632DPPI   GL210056  13.609  11.836  10.070  0.0826  0.1222  0.0292
  632DPPI   C1A10057  13.181  11.778   9.561 -0.2173 -0.1487 -0.0368
  632DPPI   C2A10058  13.176  11.655   9.093 -0.3267 -0.2472  0.1672
  632DPPI   C3A10059  13.095  11.855   8.698 -0.1075  0.0564 -0.1177
  632DPPI   C4A10060  13.071  12.253   8.406  0.3593 -0.0414 -0.0838
  632DPPI   C1B10061  13.672  11.781   9.645  0.1395  0.1296  0.0800
  632DPPI   C2B10062  13.655  11.723   9.159 -0.0697  0.0660 -0.2428
  632DPPI   C3B10063  13.629  11.580   8.751  0.2258  0.3567  0.0092
  632DPPI   C4B10064  13.743  11.778   8.411 -0.2040 -0.2430  0.2961
  633DPPI    C110065   4.618  11.870  10.876 -0.0998 -0.1271 -0.1366
  633DPPI    C210066   4.856  11.656  10.636 -0.0749 -0.3135  0.0518
  633DPPI    C310067   4.992  11.784  10.990 -0.0917  0.0112 -0.0564
  633DPPI   PO410068   4.494  12.012  10.660  0.0872  0.0632 -0.1232
  633DPPI   GL110069   4.285  11.977  10.222 -0.0255  0.0368  0.0455
  633DPPI   GL210070   4.438  12.321  10.248  0.0168  0.0691 -0.0657
  633DPPI   C1A10071   4.318  11.694   9.837 -0.2804 -0.0229  0.1967
  633DPPI   C2A10072   4.242  11.818   9.440  0.2234 -0.0376  0.1166
  633DPPI   C3A10073   3.926  11.632   9.121 -0.1536 -0.2261  0.3112
  633DPPI   C4A10074   3.715  11.373   8.896 -0.0741  0.0607 -0.1221
  633DPPI   C1B10075   4.296  12.317   9.827 -0.2707  0.0057  0.1208
  633DPPI   C2B10076   4.268  12.329   9.424 -0.1143 -0.1772  0.1935
  633DPPI   C3B10077   4.215  12.087   9.015  0.3093  0.1234 -0.3393
  633DPPI   C4B10078   4.416  12.250   8.626 -0.0208 -0.0783 -0.3166
  634DPPI    C110079  11.728  17.962  11.461  0.3659 -0.0401 -0.0660
  634DPPI    C210080  11.591  18.337  11.489  0.2137 -0.0891 -0.1439
  634DPPI    C310081  11.692  18.136  11.820  0.2993  0.0211 -0.1021
  634DPPI   PO410082  11.569  17.892  11.191 -0.0328  0.0004  0.0718
  634DPPI   GL110083  11.290  17.832  10.740 -0.1873 -0.0229 -0.0466
  634DPPI   GL210084  11.554  17.988  10.676  0.0241 -0.3188  0.0476
  634DPPI   C1A10085  11.233  17.731  10.215  0.2181  0.2075 -0.3018
  634DPPI   C2A10086  11.117  17.685   9.842  0.0102 -0.2685 -0.1798
  634DPPI   C3A10087  11.116  17.597   9.436 -0.0166  0.0258  0.1074
  634DPPI   C4A10088  11.136  17.549   9.022 -0.0397  0.0325  0.1564
  634DPPI   C1B10089  11.556  18.128  10.323  0.2735  0.0304  0.0986
  634DPPI   C2B10090  11.541  18.101   9.886  0.1093  0.1574  0.0236
  634DPPI   C3B10091  11.584  17.915   9.459  0.0090 -0.0703  0.1887
  634DPPI   C4B10092  11.511  17.822   9.060  0.2149 -0.2015 -0.4881
  635PYPI    C110093  14.254  12.112  10.887 -0.0886 -0.0519  0.0252
  635PYPI    C210094  13.980  11.850  11.016  0.1007 -0.1982  0.1356
  635PYPI    C310095  14.122  12.131  11.264 -0.3452  0.2280 -0.0748
  635PYPI   PO410096  14.222  12.186  10.695 -0.3217  0.0640 -0.2131
  635PYPI   GL110097  14.357  12.048  10.309  0.4087  0.2527 -0.0621
  635PYPI   GL210098  14.152  11.755  10.413 -0.0928 -0.0495  0.1049
  635PYPI   C1A10099  14.587  11.877   9.917  0.0053 -0.1754  0.1354
  635PYPI   C2A10100  14.506  11.483   9.664  0.2161 -0.0776  0.3530
  635PYPI   D3A10101  14.631  11.531   9.184  0.0240  0.1912 -0.1102
  635PYPI   C4A10102  14.930  11.263   9.183  0.1085 -0.1714  0.2952
  635PYPI   C1B10103  14.060  11.556   9.935 -0.1040 -0.2163 -0.1678
  635PYPI   C2B10104  14.031  11.498   9.415  0.1195  0.0075 -0.1824
  635PYPI   C3B10105  14.089  11.469   9.071  0.2423 -0.0300  0.2562
  635PYPI   C4B10106  14.040  11.385   8.479  0.2374 -0.0057  0.2173
  636PYPI    C110107  11.869  11.101  10.742 -0.0683  0.1060 -0.0692
  636PYPI    C210108  12.179  11.267  10.552  0.0826 -0.0406  0.0461
  636PYPI    C310109  12.098  11.370  10.930 -0.0312  0.0231  0.0049
  636PYPI   PO410110  11.685  11.110  10.612 -0.0842 -0.0530 -0.2501
  636PYPI   GL110111  11.597  11.361  10.307 -0.0462 -0.2147 -0.0087
  636PYPI   GL210112  11.750  11.614  10.507  0.0565 -0.0035  0.0603
  636PYPI   C1A10113  11.665  11.315   9.855  0.2319  0.1235  0.3168
  636PYPI   C2A10114  11.679  11.426   9.417  0.0962  0.2181 -0.0843
  636PYPI   D3A10115  11.742  11.286   8.971  0.0573  0.1926 -0.1116
  636PYPI   C4A10116  11.850  11.501   8.661  0.0675  0.0174 -0.1446
  636PYPI   C1B10117  11.842  11.796  10.002 -0.2896 -0.3354  0.0675
  636PYPI   C2B10118  12.126  11.557   9.702 -0.0585  0.4772 -0.1821
  636PYPI   C3B10119  12.208  11.551   9.346  0.3753  0.2014  0.1733
  636PYPI   C4B10120  12.186  11.439   9.032  0.0742 -0.3480  0.1064
  637PYPI    C110121   3.729   4.525  10.905  0.0338 -0.1894 -0.1914
  637PYPI    C210122   3.943   4.213  11.037  0.1322 -0.0040  0.0983
  637PYPI    C310123   3.564   4.261  11.155  0.0905 -0.0572 -0.0121
  637PYPI   PO410124   3.785   4.540  10.651 -0.0257  0.2636 -0.1093
  637PYPI   GL110125   3.616   4.279  10.215  0.1630 -0.2789 -0.1637
  637PYPI   GL210126   3.470   4.051   9.947  0.2630 -0.0102 -0.5428
  637PYPI   C1A10127   3.827   4.437   9.801 -0.1621  0.1603 -0.0960
  637PYPI   C2A10128   3.871   4.580   9.408  0.2946  0.1950  0.0603
  637PYPI   D3A10129   3.767   4.631   8.947 -0.4569  0.1491 -0.3686
  637PYPI   C4A10130   3.753   4.458   8.514 -0.0400  0.1897 -0.3029
  637PYPI   C1B10131   3.571   4.167   9.488  0.1214 -0.0168 -0.0848
  637PYPI   C2B10132   3.501   4.162   9.006  0.0745  0.2600 -0.2728
  637PYPI   C3B10133   3.508   4.033   8.537  0.0870 -0.0131  0.2740
  637PYPI   C4B10134   3.464   3.663   8.228  0.2422  0.2332 -0.1069
  638PYPI    C110135  14.344  15.393  10.921 -0.0713 -0.0158 -0.0294
  638PYPI    C210136  14.382  15.038  11.101  0.1370 -0.0339 -0.1059
  638PYPI    C310137  14.445  15.375  11.307  0.0303 -0.0432 -0.0570
  638PYPI   PO410138  14.098  15.367  10.758 -0.0575 -0.1863 -0.1880
  638PYPI   GL110139  14.059  15.216  10.324  0.0172  0.1571  0.1743
  638PYPI   GL210140  14.396  15.271  10.401 -0.1690 -0.1273  0.4160
  638PYPI   C1A10141  13.782  15.282  10.017  0.2139 -0.2965 -0.0199
  638PYPI   C2A10142  13.607  15.165   9.582 -0.0870  0.0340 -0.3004
  638PYPI   D3A10143  13.638  14.869   9.268  0.2302 -0.0791  0.3525
  638PYPI   C4A10144  13.784  14.453   9.264  0.2109  0.1431  0.0101
  638PYPI   C1B10145  14.349  15.507  10.066  0.1619 -0.1499  0.1279
  638PYPI   C2B10146  14.253  15.478   9.738 -0.2695  0.0654  0.0644
  638PYPI   C3B10147  14.059  15.090   9.463 -0.0458 -0.0013 -0.1688
  638PYPI   C4B10148  14.078  14.882   9.057  0.0921 -0.1567  0.1103
  639PYPI    C110149   6.700   3.591  10.355  0.1499  0.0101 -0.0815
  639PYPI    C210150   6.582   3.872  10.614  0.2806 -0.2345  0.2504
  639PYPI    C310151   6.600   3.489  10.729  0.1511 -0.3757 -0.1816
  639PYPI   PO410152   6.852   3.637  10.202 -0.2636  0.1252 -0.3641
  639PYPI   GL110153   7.047   3.431   9.937  0.1272  0.3015 -0.0948
  639PYPI   GL210154   6.862   3.233   9.928  0.0461  0.0177  0.0252
  639PYPI   C1A10155   7.159   3.502   9.516 -0.0464  0.0339 -0.1118
  639PYPI   C2A10156   7.158   3.501   9.086  0.0775 -0.4391  0.0243
  639PYPI   D3A10157   6.964   3.445   8.687 -0.0768  0.1887 -0.1512
  639PYPI   C4A10158   7.120   3.461   8.326  0.2015  0.0312  0.2698
  639PYPI   C1B10159   6.822   3.197   9.377 -0.3684  0.1425  0.3128
  639PYPI   C2B10160   6.671   3.143   8.909  0.0839  0.2058 -0.5714
  639PYPI   C3B10161   6.588   2.994   8.517  0.2680  0.0414 -0.3612
  639PYPI   C4B10162   6.622   2.846   8.079 -0.0533  0.3152 -0.1282
  640PYPI    C110163  10.618  17.770  11.048 -0.0903  0.2126  0.0285
  640PYPI    C210164  10.750  17.422  11.195 -0.0267  0.0619 -0.3736
  640PYPI    C310165  10.382  17.550  11.286  0.0393  0.0138 -0.0245
  640PYPI   PO410166  10.652  17.762  10.767 -0.0242 -0.0278 -0.3068
  640PYPI   GL110167  10.801  17.996  10.533 -0.1662  0.2139 -0.2362
  640PYPI   GL210168  11.002  18.379  10.432 -0.1801  0.5192  0.2870
  640PYPI   C1A10169  10.746  17.854  10.140  0.0170 -0.0203 -0.1719
  640PYPI   C2A10170  10.680  17.909   9.706  0.1572 -0.2913 -0.0945
  640PYPI   D3A10171  10.553  17.867   9.318  0.1130  0.3118 -0.2173
  640PYPI   C4A10172  10.646  17.813   8.846  0.0811 -0.0874  0.0873
  640PYPI   C1B10173  10.988  18.346  10.008  0.0811 -0.0018  0.1168
  640PYPI   C2B10174  11.141  18.209   9.613 -0.3026 -0.2992  0.3940
  640PYPI   C3B10175  11.007  18.090   9.200  0.0416  0.2506 -0.1048
  640PYPI   C4B10176  11.121  18.090   8.744 -0.2581  0.1964 -0.0373
  641ERGO   ROH10177   1.038   9.426  10.168 -0.2622 -0.0975  0.0754
  641ERGO    R110178   0.955   9.350   9.909 -0.1268 -0.0963  0.0305
  641ERGO    R210179   0.740   9.468   9.780 -0.2080 -0.2552  0.0138
  641ERGO    R310180   0.923   9.510   9.583 -0.1944 -0.0235  0.0731
  641ERGO    R410181   0.665   9.494   9.444 -0.1160 -0.5082 -0.0280
  641ERGO    R510182   0.844   9.377   9.400  0.1013 -0.2278  0.0888
  641ERGO    C110183   0.793   9.548   9.063 -0.0497 -0.4380  0.0033
  641ERGO    C210184   0.770   9.660   8.693  0.0082  0.0896 -0.2325
  642ERGO   ROH10185   8.504  17.432  10.173  0.1297  0.0649 -0.0755
  642ERGO    R110186   8.368  17.430   9.925  0.0837  0.2605 -0.0529
  642ERGO    R210187   8.405  17.626   9.734  0.4235  0.1519 -0.1026
  642ERGO    R310188   8.460  17.414   9.573  0.0018  0.0034 -0.0655
  642ERGO    R410189   8.393  17.633   9.389  0.5373  0.1514 -0.1071
  642ERGO    R510190   8.303  17.434   9.393  0.0880  0.3404 -0.1128
  642ERGO    C110191   8.439  17.438   9.037  0.2078  0.0117 -0.0749
  642ERGO    C210192   8.306  17.445   8.755 -0.3066 -0.3298  0.3201
  643ERGO   ROH10193   5.864  18.134   9.956 -0.0247 -0.2095 -0.0408
  643ERGO    R110194   5.814  18.190   9.683 -0.1112 -0.2943 -0.0425
  643ERGO    R210195   5.994  18.327   9.524 -0.2995 -0.0616 -0.0584
  643ERGO    R310196   5.970  18.108   9.364 -0.0120 -0.1085 -0.0436
  643ERGO    R410197   6.035  18.327   9.180 -0.2192 -0.0462 -0.0492
  643ERGO    R510198   5.866  18.191   9.165 -0.0630 -0.2448 -0.0762
  643ERGO    C110199   6.037  18.122   8.831  0.0975 -0.0813 -0.0300
  643ERGO    C210200   6.215  18.229   8.577 -0.0867  0.1400  0.0281
  644ERGO   ROH10201   5.981   9.380  10.021  0.1848  0.1266  0.0248
  644ERGO    R110202   6.144   9.477   9.811  0.1931 -0.0494 -0.0512
  644ERGO    R210203   6.250   9.313   9.616 -0.1716 -0.1518 -0.1653
  644ERGO    R310204   6.128   9.488   9.448 -0.0264  0.0760 -0.0412
  644ERGO    R410205   6.292   9.321   9.273 -0.0970  0.1101 -0.1531
  644ERGO    R510206   6.293   9.538   9.283  0.0441  0.1086  0.0337
  644ERGO    C110207   6.202   9.490   8.915  0.0826  0.4765 -0.0295
  644ERGO    C210208   6.296   9.627   8.587  0.1569  0.2700  0.3574
  645ERGO   ROH10209  15.170  16.145  10.482 -0.3259  0.1045 -0.0081
  645ERGO    R110210  15.171  16.062  10.212 -0.2111  0.0875 -0.0036
  645ERGO    R210211  15.103  16.231  10.004 -0.0974  0.0835 -0.0482
  645ERGO    R310212  15.345  16.156   9.907 -0.0597  0.0499  0.0710
  645ERGO    R410213  15.190  16.234   9.670  0.1136  0.1934  0.0071
  645ERGO    R510214  15.295  16.045   9.700  0.0357  0.1509 -0.0058
  645ERGO    C110215  15.469  16.167   9.384  0.2720  0.2261  0.1511
  645ERGO    C210216  15.398  16.222   9.035  0.0915 -0.1135  0.0333
  646ERGO   ROH10217   2.403   1.943  10.276 -0.1336 -0.1350  0.0488
  646ERGO    R110218   2.454   2.005  10.004 -0.0081  0.1831  0.1413
  646ERGO    R210219   2.343   1.863   9.795  0.3675  0.1984 -0.0755
  646ERGO    R310220   2.258   2.108   9.715  0.0654  0.1492  0.0784
  646ERGO    R410221   2.107   1.920   9.549  0.1943  0.0616  0.0553
  646ERGO    R510222   2.228   2.087   9.479 -0.0148  0.2295  0.0792
  646ERGO    C110223   1.890   2.183   9.330 -0.1902 -0.0643  0.2759
  646ERGO    C210224   1.764   2.156   9.017 -0.1888 -0.0810 -0.1767
  647ERGO   ROH10225  10.017   5.860  10.266  0.0996 -0.2577  0.0452
  647ERGO    R110226  10.162   5.863  10.023  0.0914 -0.1499  0.0423
  647ERGO    R210227  10.094   5.703   9.807  0.0711 -0.0338 -0.0299
  647ERGO    R310228  10.091   5.940   9.674  0.0914  0.0295  0.0791
  647ERGO    R410229  10.111   5.739   9.464 -0.0375  0.1039 -0.0227
  647ERGO    R510230  10.243   5.909   9.492  0.0253  0.0602  0.0109
  647ERGO    C110231  10.118   5.982   9.139 -0.0818  0.2434  0.0841
  647ERGO    C210232  10.069   6.099   8.825  0.1848  0.0617 -0.2603
  648ERGO   ROH10233  10.863   2.085  10.159  0.2711 -0.1695  0.0983
  648ERGO    R110234  10.769   2.074   9.892  0.1602 -0.1244  0.1348
  648ERGO    R210235  10.816   2.275   9.709  0.0981 -0.0995  0.1431
  648ERGO    R310236  10.916   2.071   9.559  0.0245 -0.0855  0.0742
  648ERGO    R410237  10.854   2.281   9.365  0.3548  0.1041  0.1719
  648ERGO    R510238  10.786   2.074   9.359  0.1738  0.1689 -0.0211
  648ERGO    C110239  10.969   2.094   9.025  0.4351  0.2358  0.1239
  648ERGO    C210240  11.235   2.236   8.757  0.0863  0.1990  0.0229
  649ERGO   ROH10241   1.814  17.970  10.139  0.0900  0.0989 -0.0567
  649ERGO    R110242   1.815  17.760   9.949 -0.0468  0.0141  0.0319
  649ERGO    R210243   1.596  17.597   9.906 -0.1613  0.1303  0.1010
  649ERGO    R310244   1.630  17.675   9.648 -0.1072  0.0116  0.0736
  649ERGO    R410245   1.491  17.417   9.631 -0.1048  0.0285  0.1470
  649ERGO    R510246   1.677  17.471   9.531 -0.0936 -0.0276  0.1654
  649ERGO    C110247   1.461  17.385   9.228 -0.0211 -0.1420  0.1480
  649ERGO    C210248   1.230  17.392   9.038 -0.0191  0.0204 -0.1102
  650ERGO   ROH10249  14.820  10.589  10.473  0.1677  0.0681  0.2550
  650ERGO    R110250  15.014  10.581  10.267  0.1027 -0.0100  0.1971
  650ERGO    R210251  15.050  10.360  10.105 -0.1297  0.0274  0.0967
  650ERGO    R310252  15.014  10.540   9.905 -0.0322  0.1394  0.1779
  650ERGO    R410253  15.116  10.300   9.771 -0.1738  0.1300  0.0690
  650ERGO    R510254  15.198  10.502   9.756 -0.0548  0.0942  0.1559
  650ERGO    C110255  15.120  10.435   9.389 -0.1080  0.2947  0.1290
  650ERGO    C210256  15.123  10.404   9.061 -0.1278 -0.0718 -0.0542
  651ERGO   ROH10257  10.299  16.155  10.454 -0.0201 -0.0494 -0.0317
  651ERGO    R110258  10.384  16.078  10.195  0.0970  0.1229 -0.0474
  651ERGO    R210259  10.222  15.938  10.021  0.2856 -0.0543 -0.0922
  651ERGO    R310260  10.281  16.143   9.852  0.0249  0.0708 -0.0341
  651ERGO    R410261  10.213  15.919   9.676  0.4548 -0.0060 -0.0992
  651ERGO    R510262  10.395  16.039   9.669  0.2655  0.2871 -0.0076
  651ERGO    C110263  10.263  16.100   9.317  0.3085  0.1397 -0.0487
  651ERGO    C210264  10.314  16.054   8.932  0.2372  0.0260  0.1978
  652ERGO   ROH10265  10.794   5.110  10.006 -0.1183 -0.1884 -0.0872
  652ERGO    R110266  10.883   5.158   9.742 -0.0699  0.0436 -0.0319
  652ERGO    R210267  10.937   4.953   9.564  0.2577  0.1871 -0.1080
  652ERGO    R310268  10.762   5.088   9.406  0.1487  0.0426 -0.1114
  652ERGO    R410269  10.931   4.939   9.219  0.1256  0.0090 -0.0996
  652ERGO    R510270  10.891   5.153   9.216  0.0490 -0.0087 -0.1956
  652ERGO    C110271  10.763   5.058   8.869 -0.0534 -0.2302 -0.0979
  652ERGO    C210272  10.676   5.082   8.514 -0.0570 -0.1274  0.4175
  653ERGO   ROH10273   6.650  13.953  10.529 -0.2804 -0.3406  0.0397
  653ERGO    R110274   6.782  13.908  10.282 -0.2361 -0.1915  0.0352
  653ERGO    R210275   6.760  13.670  10.143  0.0078 -0.2083  0.0239
  653ERGO    R310276   6.684  13.833   9.940 -0.1646 -0.2754  0.0324
  653ERGO    R410277   6.807  13.602   9.808  0.3570 -0.0129  0.0287
  653ERGO    R510278   6.859  13.812   9.778 -0.0099  0.1028  0.1370
  653ERGO    C110279   6.763  13.716   9.421  0.3985  0.0381  0.0394
  653ERGO    C210280   6.718  13.700   9.115  0.1050 -0.0595 -0.1034
  654ERGO   ROH10281   6.871   2.241  10.228 -0.1474  0.1448 -0.0411
  654ERGO    R110282   6.795   2.157   9.969 -0.1560  0.0354 -0.0025
  654ERGO    R210283   6.619   2.300   9.811 -0.0977  0.0092 -0.0857
  654ERGO    R310284   6.821   2.287   9.630 -0.0917 -0.1489 -0.0705
  654ERGO    R410285   6.577   2.310   9.469 -0.0547  0.2550 -0.0858
  654ERGO    R510286   6.730   2.157   9.450 -0.2454  0.0628 -0.1538
  654ERGO    C110287   6.742   2.304   9.098 -0.0240  0.2497 -0.0716
  654ERGO    C210288   6.552   2.218   8.835 -0.2322  0.1382  0.0228
  655ERGO   ROH10289   7.254  17.161  10.269 -0.0132 -0.1635 -0.0665
  655ERGO    R110290   7.155  17.090  10.013  0.0684 -0.1634 -0.0982
  655ERGO    R210291   6.992  17.256   9.865 -0.0539 -0.2473 -0.0600
  655ERGO    R310292   7.182  17.218   9.674 -0.0038 -0.0332 -0.0553
  655ERGO    R410293   6.930  17.232   9.526 -0.0156 -0.2948 -0.0638
  655ERGO    R510294   7.078  17.073   9.515  0.1568 -0.1369 -0.0679
  655ERGO    C110295   7.071  17.182   9.150  0.0537 -0.1215 -0.0618
  655ERGO    C210296   7.023  17.202   8.858 -0.1078 -0.1549 -0.2495
  656ERGO   ROH10297   9.149   6.020   9.983 -0.0638 -0.0990  0.0373
  656ERGO    R110298   9.235   6.049   9.715 -0.0457  0.0580  0.0597
  656ERGO    R210299   9.092   5.947   9.501  0.0813 -0.0074  0.0096
  656ERGO    R310300   9.106   6.203   9.411 -0.1348  0.0329  0.0833
  656ERGO    R410301   9.159   6.038   9.175  0.0230  0.1377  0.0369
  656ERGO    R510302   9.284   6.200   9.251 -0.1183  0.2280  0.0914
  656ERGO    C110303   9.211   6.332   8.900 -0.2136  0.2602  0.1220
  656ERGO    C210304   9.189   6.441   8.565 -0.1291  0.0270  0.0488
  657ERGO   ROH10305   4.100   3.711  10.226 -0.0156 -0.0253 -0.0465
  657ERGO    R110306   3.999   3.603   9.985 -0.1389 -0.0111 -0.0023
  657ERGO    R210307   3.732   3.617   9.915 -0.1405  0.1874  0.0326
  657ERGO    R310308   3.830   3.729   9.689 -0.0788  0.0459 -0.0118
  657ERGO    R410309   3.580   3.603   9.605 -0.1063  0.0861  0.0202
  657ERGO    R510310   3.776   3.573   9.516 -0.1068 -0.0194  0.0572
  657ERGO    C110311   3.585   3.701   9.212 -0.0285 -0.1057 -0.0290
  657ERGO    C210312   3.705   3.657   8.828 -0.0299 -0.2128 -0.1320
  658ERGO   ROH10313   6.082   8.472  10.006 -0.2029  0.2034  0.0264
  658ERGO    R110314   5.885   8.370   9.829 -0.0721  0.0307 -0.0234
  658ERGO    R210315   5.736   8.532   9.663 -0.2503 -0.0848  0.0146
  658ERGO    R310316   5.830   8.365   9.470 -0.0338  0.0842 -0.0286
  658ERGO    R410317   5.696   8.581   9.323 -0.2492 -0.0212  0.0242
  658ERGO    R510318   5.659   8.367   9.302 -0.0066 -0.0526 -0.0541
  658ERGO    C110319   5.760   8.453   8.944 -0.0453  0.1746 -0.0108
  658ERGO    C210320   5.771   8.720   8.745 -0.0072 -0.5340  0.0657
  659ERGO   ROH10321   1.335  14.106  10.325 -0.0051 -0.0164 -0.0545
  659ERGO    R110322   1.194  14.129  10.081 -0.0162 -0.0474 -0.0512
  659ERGO    R210323   1.241  14.333   9.900 -0.0931 -0.0152 -0.0344
  659ERGO    R310324   1.276  14.127   9.726 -0.0197  0.0133 -0.0528
  659ERGO    R410325   1.254  14.366   9.557 -0.2997  0.0043 -0.0416
  659ERGO    R510326   1.136  14.183   9.540 -0.1649 -0.0929  0.0199
  659ERGO    C110327   1.295  14.193   9.193 -0.3512  0.0423 -0.0630
  659ERGO    C210328   1.233  14.297   8.804  0.0897  0.2066  0.2301
  660ERGO   ROH10329  16.530  13.657  10.335  0.1185 -0.0754 -0.0733
  660ERGO    R110330  16.474  13.527  10.090  0.3775 -0.0930 -0.1254
  660ERGO    R210331  16.254  13.588   9.935  0.1511 -0.5800 -0.0146
  660ERGO    R310332  16.440  13.623   9.741  0.0080  0.0198 -0.0630
  660ERGO    R410333  16.189  13.580   9.596  0.0546 -0.5684  0.0034
  660ERGO    R510334  16.375  13.471   9.568  0.3488 -0.0698 -0.1198
  660ERGO    C110335  16.326  13.609   9.216 -0.1361  0.0013 -0.0315
  660ERGO    C210336  16.336  13.598   8.853  0.2975 -0.1457 -0.0701
  661ERGO   ROH10337   8.984   0.541  10.000 -0.0124  0.0520  0.0781
  661ERGO    R110338   9.122   0.444   9.772 -0.0084  0.0327  0.0881
  661ERGO    R210339   8.995   0.312   9.565 -0.0048  0.0145  0.0960
  661ERGO    R310340   9.114   0.503   9.413 -0.0032  0.0022  0.0830
  661ERGO    R410341   9.098   0.268   9.239 -0.2178  0.0578  0.0216
  661ERGO    R510342   9.277   0.384   9.285 -0.1345 -0.0401 -0.0480
  661ERGO    C110343   9.270   0.421   8.906 -0.3404  0.0715 -0.0338
  661ERGO    C210344   9.215   0.299   8.496  0.0001  0.3810  0.1266
  662ERGO   ROH10345  15.628  12.403  10.301 -0.1096  0.0638 -0.0655
  662ERGO    R110346  15.623  12.366  10.021 -0.0418  0.0741 -0.0678
  662ERGO    R210347  15.407  12.440   9.865 -0.0073  0.0675 -0.1141
  662ERGO    R310348  15.595  12.579   9.727  0.0160  0.0824 -0.0685
  662ERGO    R410349  15.455  12.422   9.523 -0.0337  0.1885 -0.1250
  662ERGO    R510350  15.670  12.427   9.558 -0.0272  0.1284 -0.1332
  662ERGO    C110351  15.659  12.542   9.194 -0.0272  0.2729 -0.0885
  662ERGO    C210352  15.519  12.521   8.909  0.0097  0.1365 -0.1182
  663ERGO   ROH10353   4.705   8.730  10.029  0.1680 -0.0376 -0.0286
  663ERGO    R110354   4.660   8.832   9.769 -0.1107 -0.1975 -0.0494
  663ERGO    R210355   4.837   9.005   9.644 -0.5124  0.1975 -0.1227
  663ERGO    R310356   4.829   8.818   9.447 -0.1121  0.1101 -0.0629
  663ERGO    R410357   4.839   9.072   9.305 -0.3548  0.0487 -0.1510
  663ERGO    R510358   4.692   8.914   9.277 -0.1140 -0.1545 -0.2031
  663ERGO    C110359   4.831   8.934   8.923  0.1127 -0.1200 -0.1113
  663ERGO    C210360   4.789   8.890   8.603  0.1282 -0.0518 -0.0636
  664ERGO   ROH10361   3.242  17.340   9.905  0.0104  0.2693  0.0657
  664ERGO    R110362   3.133  17.172   9.705  0.2674 -0.0435  0.1799
  664ERGO    R210363   2.968  17.266   9.504 -0.1383 -0.4807  0.2894
  664ERGO    R310364   3.151  17.147   9.342  0.0462 -0.0543  0.1677
  664ERGO    R410365   2.929  17.217   9.164 -0.2264 -0.5133  0.3040
  664ERGO    R510366   3.020  17.020   9.188  0.2303 -0.3276  0.2255
  664ERGO    C110367   3.078  17.075   8.815 -0.1044 -0.1317  0.1983
  664ERGO    C210368   3.111  16.982   8.489  0.0684 -0.0419  0.0827
  665ERGO   ROH10369  12.703   9.332  10.377 -0.1415 -0.0483  0.0261
  665ERGO    R110370  12.841   9.424  10.148 -0.1106 -0.1089  0.0202
  665ERGO    R210371  12.990   9.255   9.986 -0.2603 -0.1914 -0.0353
  665ERGO    R310372  12.832   9.358   9.790 -0.2186 -0.0387  0.0098
  665ERGO    R410373  13.078   9.278   9.653 -0.3262 -0.2546 -0.0573
  665ERGO    R510374  12.984   9.474   9.646 -0.1506 -0.1685 -0.0233
  665ERGO    C110375  12.982   9.387   9.275 -0.3255 -0.1480 -0.0275
  665ERGO    C210376  12.966   9.480   8.948  0.1965 -0.0146  0.1560
  666ERGO   ROH10377  17.904   9.320  10.282 -0.3562  0.1395  0.0009
  666ERGO    R110378  17.897   9.225  10.015 -0.3283  0.0725  0.0245
  666ERGO    R210379  17.687   9.277   9.844 -0.1837  0.2627 -0.0943
  666ERGO    R310380  17.884   9.372   9.683  0.0057 -0.0045 -0.0269
  666ERGO    R410381  17.676   9.277   9.499 -0.1081  0.3559 -0.0977
  666ERGO    R510382  17.887   9.220   9.497 -0.1887  0.0271 -0.0602
  666ERGO    C110383  17.856   9.365   9.146  0.1135  0.1593 -0.0363
  666ERGO    C210384  17.998   9.340   8.833 -0.1400 -0.0127  0.0687
  667ERGO   ROH10385  15.269   1.280  10.521 -0.1746 -0.0045  0.1119
  667ERGO    R110386  15.258   1.261  10.239 -0.4132 -0.0441  0.1205
  667ERGO    R210387  15.072   1.398  10.088 -0.2971  0.2547  0.2254
  667ERGO    R310388  15.293   1.488   9.957 -0.2231 -0.1518  0.0588
  667ERGO    R410389  15.068   1.618   9.821 -0.0724  0.3352  0.2877
  667ERGO    R510390  15.226   1.500   9.728 -0.3903  0.0437  0.1227
  667ERGO    C110391  15.273   1.830   9.543  0.1279  0.0004  0.1676
  667ERGO    C210392  15.423   2.149   9.468 -0.0555  0.0770 -0.1067
  668ERGO   ROH10393  13.466  12.263  10.218  0.2527  0.0682  0.0742
  668ERGO    R110394  13.440  12.361   9.953  0.0599  0.0751  0.0957
  668ERGO    R210395  13.615  12.292   9.751 -0.0230  0.1718 -0.0042
  668ERGO    R310396  13.387  12.218   9.623 -0.0590  0.0771  0.1119
  668ERGO    R410397  13.576  12.278   9.408 -0.0447 -0.2720  0.0098
  668ERGO    R510398  13.376  12.361   9.432 -0.0189 -0.1677 -0.0837
  668ERGO    C110399  13.340  12.200   9.088 -0.0911 -0.6193  0.1271
  668ERGO    C210400  13.509  12.122   8.779  0.1357 -0.2556 -0.2408
  669ERGO   ROH10401   3.984   7.881  10.177 -0.3141 -0.0017 -0.0523
  669ERGO    R110402   4.064   7.996   9.931 -0.0780  0.0729  0.0574
  669ERGO    R210403   3.947   7.930   9.690  0.1584  0.1377 -0.0789
  669ERGO    R310404   3.911   8.199   9.671  0.1670  0.1419 -0.0366
  669ERGO    R410405   3.866   8.097   9.399  0.1397  0.1837 -0.0474
  669ERGO    R510406   4.004   8.256   9.457  0.1507  0.1697 -0.0362
  669ERGO    C110407   3.784   8.447   9.211  0.1369  0.2145  0.0106
  669ERGO    C210408   3.602   8.574   8.962 -0.1176  0.0925  0.3287
  670ERGO   ROH10409   1.204   8.215  10.287  0.2877 -0.0399 -0.1644
  670ERGO    R110410   1.033   8.202  10.061  0.1740 -0.2659 -0.0681
  670ERGO    R210411   1.011   8.408   9.878 -0.3080 -0.2315  0.0148
  670ERGO    R310412   1.072   8.212   9.700 -0.0561 -0.0627 -0.0896
  670ERGO    R410413   0.956   8.426   9.538 -0.3039 -0.1104  0.0203
  670ERGO    R510414   0.894   8.218   9.541 -0.0529 -0.1920 -0.0985
  670ERGO    C110415   0.982   8.253   9.172 -0.0651  0.1186 -0.0746
  670ERGO    C210416   1.098   8.072   8.936  0.1150 -0.0071 -0.0860
  671ERGO   ROH10417   6.707   3.718   9.741  0.0444 -0.1252  0.0884
  671ERGO    R110418   6.617   3.770   9.477  0.0009 -0.0924  0.1088
  671ERGO    R210419   6.790   3.796   9.264 -0.0083  0.2418  0.1315
  671ERGO    R310420   6.634   3.602   9.154  0.2405  0.1002  0.0204
  671ERGO    R410421   6.679   3.794   8.937 -0.1358  0.3590  0.1734
  671ERGO    R510422   6.486   3.721   9.008  0.0023  0.0040  0.1848
  671ERGO    C110423   6.467   3.610   8.644  0.0237  0.2943  0.0935
  671ERGO    C210424   6.545   3.439   8.260 -0.1702  0.3331  0.1150
  672ERGO   ROH10425   6.964  12.732  10.295 -0.1321  0.0607  0.1744
  672ERGO    R110426   6.802  12.649  10.078 -0.1056  0.1060  0.1372
  672ERGO    R210427   6.573  12.786  10.002 -0.0257  0.1929  0.0584
  672ERGO    R310428   6.695  12.787   9.759  0.0422  0.1161  0.0913
  672ERGO    R410429   6.429  12.895   9.707  0.0369  0.0530 -0.0257
  672ERGO    R510430   6.523  12.728   9.605  0.0936  0.0260  0.0660
  672ERGO    C110431   6.460  12.960   9.308  0.1372 -0.1006 -0.0438
  672ERGO    C210432   6.528  12.889   8.933 -0.0459 -0.1763 -0.0742
  673ERGO   ROH10433  16.602   8.778  10.060 -0.1831  0.2160  0.0591
  673ERGO    R110434  16.545   8.926   9.826 -0.0700  0.0913 -0.0477
  673ERGO    R210435  16.743   9.013   9.654  0.0166  0.0546  0.0393
  673ERGO    R310436  16.593   8.882   9.468  0.1662 -0.0651 -0.0009
  673ERGO    R410437  16.786   9.039   9.312  0.0333  0.1688  0.0492
  673ERGO    R510438  16.569   9.040   9.289  0.0261 -0.0478  0.0271
  673ERGO    C110439  16.670   8.932   8.938  0.1835  0.1229  0.0171
  673ERGO    C210440  16.648   8.883   8.510  0.0744 -0.0335 -0.0503
  674loPI    C110441  10.511  14.109   5.232  0.0414 -0.1396 -0.0829
  674loPI    C210442  10.455  14.068   4.838  0.1740  0.0932 -0.1280
  674loPI    C310443  10.146  14.156   5.077  0.1608  0.3462 -0.2350
  674loPI   PO410444  10.674  13.920   5.297 -0.2875 -0.1543  0.1475
  674loPI   GL110445  10.697  13.715   5.634 -0.1048 -0.1835 -0.0823
  674loPI   GL210446  10.425  13.588   5.767 -0.0419 -0.2242  0.2708
  674loPI   C1A10447  11.037  13.594   5.950 -0.2234  0.0382  0.0380
  674loPI   C2A10448  11.250  13.599   6.258 -0.2565  0.2183  0.0280
  674loPI   C3A10449  11.319  13.589   6.711 -0.1777  0.1068 -0.0863
  674loPI   C4A10450  11.216  13.542   7.123 -0.0201 -0.1129  0.2200
  674loPI   C5A10451  11.248  13.412   7.495  0.1826  0.0657  0.2808
  674loPI   C6A10452  10.945  13.444   7.810 -0.2590 -0.2155 -0.0220
  674loPI   C1B10453  10.534  13.808   6.095  0.0033 -0.0539  0.3225
  674loPI   C2B10454  10.583  14.024   6.545  0.3927 -0.0954  0.4448
  674loPI   C3B10455  10.511  13.985   6.912 -0.0905 -0.0951 -0.1365
  674loPI   C4B10456  10.451  14.073   7.384  0.1445 -0.1227 -0.0757
  675loPI    C110457  12.153  17.166   5.169 -0.2812  0.0412  0.1189
  675loPI    C210458  11.960  16.849   5.018  0.1678 -0.0892 -0.2026
  675loPI    C310459  11.949  17.200   4.827  0.2712 -0.1046 -0.2374
  675loPI   PO410460  12.210  17.127   5.497  0.0069 -0.0594 -0.1723
  675loPI   GL110461  12.047  17.125   5.817 -0.0603 -0.1127 -0.2349
  675loPI   GL210462  12.251  16.976   6.000  0.1009 -0.2507  0.0598
  675loPI   C1A10463  11.942  17.359   6.238 -0.4632  0.2064 -0.3723
  675loPI   C2A10464  12.001  17.408   6.711 -0.1092 -0.1347  0.2435
  675loPI   C3A10465  11.838  17.436   7.154  0.0177 -0.1125  0.3187
  675loPI   C4A10466  11.861  17.421   7.618  0.0232  0.0656 -0.2123
  675loPI   C5A10467  11.625  17.463   8.022  0.0943 -0.0011 -0.1809
  675loPI   C6A10468  11.506  17.360   8.469 -0.3779 -0.0409 -0.2273
  675loPI   C1B10469  12.117  16.932   6.432 -0.1297  0.0073  0.0086
  675loPI   C2B10470  12.102  16.948   6.871 -0.0663 -0.2606  0.1621
  675loPI   C3B10471  12.012  16.975   7.384 -0.0504  0.1781  0.0995
  675loPI   C4B10472  11.948  16.985   7.812 -0.0478 -0.1083  0.0033
  676loPI    C110473   4.956   7.630   5.216 -0.0248 -0.1900  0.0119
  676loPI    C210474   4.928   7.824   4.867 -0.0584  0.1323  0.1903
  676loPI    C310475   5.058   7.446   4.876 -0.0103  0.1375 -0.1648
  676loPI   PO410476   4.655   7.884   5.302  0.0543 -0.3997  0.2280
  676loPI   GL110477   4.314   7.903   5.708 -0.0056 -0.0084  0.1203
  676loPI   GL210478   4.506   7.675   5.886  0.0624 -0.2236 -0.2895
  676loPI   C1A10479   4.034   7.874   6.077 -0.0773  0.0480 -0.0466
  676loPI   C2A10480   3.897   7.747   6.487 -0.0505  0.0410  0.1898
  676loPI   C3A10481   3.914   7.744   6.923 -0.0054  0.0638  0.0508
  676loPI   C4A10482   3.920   7.848   7.356 -0.0595  0.1901  0.0460
  676loPI   C5A10483   4.055   7.889   7.713  0.0781  0.1408  0.1553
  676loPI   C6A10484   3.971   8.083   8.152  0.2221 -0.0043  0.3163
  676loPI   C1B10485   4.407   7.659   6.313 -0.0713  0.0657 -0.0782
  676loPI   C2B10486   4.458   7.624   6.743 -0.2222 -0.0240 -0.1872
  676loPI   C3B10487   4.363   7.652   7.189  0.2208 -0.2223 -0.0558
  676loPI   C4B10488   4.477   7.596   7.633 -0.0816 -0.0801 -0.1348
  677loPI    C110489  11.699   2.854   5.150 -0.0015  0.1515  0.1911
  677loPI    C210490  12.075   2.917   5.027 -0.0567  0.1214  0.0036
  677loPI    C310491  11.767   3.026   4.795 -0.1624  0.0220  0.0958
  677loPI   PO410492  11.710   2.713   5.353  0.1633  0.0561  0.0039
  677loPI   GL110493  11.485   2.477   5.743  0.0989  0.0864  0.2016
  677loPI   GL210494  11.117   2.571   5.730  0.1872 -0.0075  0.3365
  677loPI   C1A10495  11.472   2.069   5.866  0.1726  0.1216  0.0064
  677loPI   C2A10496  11.434   1.981   6.297  0.0669  0.1705  0.1901
  677loPI   C3A10497  11.457   1.999   6.780 -0.0934  0.1008  0.2862
  677loPI   C4A10498  11.283   1.967   7.278  0.1744 -0.2445 -0.1458
  677loPI   C5A10499  11.024   2.113   7.665 -0.2385 -0.0164 -0.0106
  677loPI   C6A10500  10.894   2.189   8.031 -0.0486 -0.0681 -0.1710
  677loPI   C1B10501  11.272   2.517   6.137  0.0161 -0.3912  0.3306
  677loPI   C2B10502  11.269   2.451   6.585 -0.0848  0.0959  0.0472
  677loPI   C3B10503  11.221   2.445   7.102 -0.0245  0.2830  0.0401
  677loPI   C4B10504  11.363   2.405   7.457 -0.4439 -0.0292  0.2644
  678loPI    C110505  15.280  15.272   5.897 -0.1516 -0.0283 -0.1115
  678loPI    C210506  15.365  14.924   6.076  0.1548  0.0260 -0.1457
  678loPI    C310507  15.367  14.949   5.676  0.0544  0.0487 -0.1450
  678loPI   PO410508  15.052  15.388   6.001 -0.0973  0.0666  0.1875
  678loPI   GL110509  14.832  15.409   6.386  0.0346  0.0231 -0.0431
  678loPI   GL210510  14.991  15.191   6.427 -0.0664 -0.0358 -0.2680
  678loPI   C1A10511  14.826  15.778   6.564  0.0253  0.2091 -0.3196
  678loPI   C2A10512  14.726  15.847   7.022  0.1637 -0.1160  0.2007
  678loPI   C3A10513  14.668  15.815   7.508  0.2788  0.0234  0.3349
  678loPI   C4A10514  14.523  15.839   7.946 -0.0204 -0.2515 -0.0964
  678loPI   C5A10515  14.368  15.537   8.171  0.2098 -0.2698  0.1061
  678loPI   C6A10516  14.726  15.249   8.290 -0.1198 -0.0046 -0.0269
  678loPI   C1B10517  14.889  15.406   6.874  0.3213 -0.0946  0.0486
  678loPI   C2B10518  15.033  15.595   7.238 -0.0202 -0.1778 -0.0471
  678loPI   C3B10519  15.126  15.600   7.708 -0.1497 -0.1861  0.2469
  678loPI   C4B10520  15.117  15.324   8.012  0.0776  0.2887 -0.0594
  679loPI    C110521   7.140   4.872   4.798  0.1130  0.0112 -0.1891
  679loPI    C210522   7.065   5.150   4.520  0.2743  0.0489 -0.1962
  679loPI    C310523   7.332   4.861   4.447 -0.0142 -0.2086 -0.2537
  679loPI   PO410524   7.200   4.994   5.035 -0.1845 -0.4387  0.1185
  679loPI   GL110525   7.224   5.156   5.478  0.1303  0.3139  0.1698
  679loPI   GL210526   7.406   5.273   5.771  0.3111 -0.0690 -0.0258
  679loPI   C1A10527   6.929   5.015   5.866  0.1494 -0.0280 -0.0398
  679loPI   C2A10528   6.869   4.928   6.348 -0.2212 -0.0052  0.1939
  679loPI   C3A10529   6.902   5.033   6.758 -0.1182  0.3071 -0.3326
  679loPI   C4A10530   6.961   4.921   7.152 -0.2866  0.1544 -0.0279
  679loPI   C5A10531   6.999   4.770   7.639  0.0595  0.0882  0.2797
  679loPI   C6A10532   6.928   4.932   8.052 -0.1816 -0.1791  0.0652
  679loPI   C1B10533   7.255   5.242   6.229  0.1487 -0.0085 -0.1559
  679loPI   C2B10534   7.303   5.332   6.706 -0.0531 -0.1905 -0.0239
  679loPI   C3B10535   7.308   5.278   7.099 -0.0380 -0.0210  0.0638
  679loPI   C4B10536   7.260   5.262   7.542  0.0381 -0.3331  0.1486
  680loPI    C110537   3.099  14.940   5.634  0.0093  0.1770 -0.0405
  680loPI    C210538   3.146  14.950   5.237  0.0940 -0.0470 -0.0379
  680loPI    C310539   3.221  14.613   5.439  0.0925  0.0775  0.1744
  680loPI   PO410540   2.867  15.013   5.671 -0.3315 -0.0815  0.2398
  680loPI   GL110541   2.508  15.033   5.862  0.2620 -0.0776  0.3700
  680loPI   GL210542   2.421  14.654   5.941  0.0353  0.1537 -0.2537
  680loPI   C1A10543   2.441  15.198   6.262  0.1555  0.2393 -0.1018
  680loPI   C2A10544   2.474  15.140   6.700 -0.1636 -0.0717  0.0713
  680loPI   C3A10545   2.423  15.107   7.172  0.1242 -0.0194 -0.0166
  680loPI   C4A10546   2.342  15.136   7.541  0.1261  0.1317 -0.0708
  680loPI   C5A10547   2.708  15.108   7.801  0.1441 -0.0167  0.2108
  680loPI   C6A10548   3.134  15.143   7.951 -0.2404 -0.1284  0.2596
  680loPI   C1B10549   2.600  14.739   6.357 -0.0194 -0.1199 -0.2910
  680loPI   C2B10550   2.607  14.610   6.736  0.0974 -0.1143 -0.1189
  680loPI   C3B10551   2.612  14.654   7.160 -0.0042  0.0603  0.1136
  680loPI   C4B10552   2.274  14.522   7.521  0.1711 -0.1542  0.1400
  681loPI    C110553   0.036  11.879   5.297 -0.2067  0.0358 -0.0129
  681loPI    C210554   0.004  12.278   5.290  0.1601  0.0706  0.0948
  681loPI    C310555   0.078  12.078   4.952  0.1861  0.1140  0.0747
  681loPI   PO410556   0.244  11.871   5.597 -0.0153  0.0543 -0.2477
  681loPI   GL110557   0.534  11.853   5.858  0.1810  0.0478 -0.1225
  681loPI   GL210558   0.437  11.535   6.045  0.1606  0.1365 -0.2029
  681loPI   C1A10559   0.783  11.813   6.273 -0.1662 -0.0243  0.0218
  681loPI   C2A10560   0.681  11.871   6.728  0.1079 -0.2849 -0.2686
  681loPI   C3A10561   0.879  11.751   7.117 -0.2681 -0.0030 -0.2315
  681loPI   C4A10562   0.962  11.650   7.513 -0.1002 -0.2165 -0.0346
  681loPI   C5A10563   0.882  11.490   7.968 -0.3733 -0.1529 -0.0214
  681loPI   C6A10564   0.932  11.338   8.308 -0.0409  0.1705  0.1720
  681loPI   C1B10565   0.641  11.348   6.396 -0.2901  0.0563  0.2377
  681loPI   C2B10566   0.676  11.357   6.841 -0.0222 -0.0332  0.1763
  681loPI   C3B10567   0.533  11.453   7.326 -0.0089  0.2272  0.1126
  681loPI   C4B10568   0.437  11.385   7.803  0.1179  0.3007  0.1193
  682loPI    C110569   3.827   1.058   5.029  0.0954  0.0001 -0.1725
  682loPI    C210570   4.023   1.308   5.272 -0.0477 -0.0105 -0.0451
  682loPI    C310571   4.071   1.336   4.876  0.1701  0.0207 -0.0179
  682loPI   PO410572   3.629   1.076   5.075  0.3361  0.0619  0.2537
  682loPI   GL110573   3.478   1.237   5.445  0.1687 -0.2790 -0.0993
  682loPI   GL210574   3.611   1.399   5.698 -0.1826 -0.0042  0.0007
  682loPI   C1A10575   3.408   0.831   5.800 -0.3104 -0.0548  0.0021
  682loPI   C2A10576   3.297   0.826   6.165  0.0099  0.0998  0.0972
  682loPI   C3A10577   3.287   0.868   6.730 -0.2247 -0.1646 -0.0027
  682loPI   C4A10578   3.235   0.944   7.150  0.0359 -0.2565  0.0286
  682loPI   C5A10579   3.333   0.869   7.568 -0.3820  0.0054  0.0114
  682loPI   C6A10580   3.697   0.598   7.792  0.0311 -0.2550  0.0346
  682loPI   C1B10581   3.775   1.163   6.027 -0.1362 -0.3250 -0.0117
  682loPI   C2B10582   3.700   1.124   6.452  0.0354  0.1751  0.0088
  682loPI   C3B10583   3.704   1.232   6.949  0.1876 -0.0989 -0.1759
  682loPI   C4B10584   3.595   1.270   7.370 -0.0970  0.2222 -0.1996
  683loPI    C110585   7.510  17.777   4.629 -0.0276  0.0643  0.0429
  683loPI    C210586   7.500  18.176   4.639 -0.3636  0.0577  0.0699
  683loPI    C310587   7.367  17.981   4.316  0.0852 -0.0274 -0.0694
  683loPI   PO410588   7.383  17.705   4.849 -0.0148 -0.1430  0.0926
  683loPI   GL110589   7.310  17.815   5.394  0.0017  0.0880  0.1996
  683loPI   GL210590   7.568  17.793   5.547  0.0752 -0.2001 -0.2123
  683loPI   C1A10591   6.930  17.671   5.797 -0.0180 -0.0325  0.0543
  683loPI   C2A10592   6.703  17.458   6.079  0.2649  0.2735 -0.1449
  683loPI   C3A10593   6.289  17.553   6.254 -0.0621  0.1606 -0.1207
  683loPI   C4A10594   6.081  17.509   6.535  0.1826 -0.0591 -0.1947
  683loPI   C5A10595   6.028  17.475   7.020 -0.2454 -0.1650 -0.0583
  683loPI   C6A10596   5.870  17.446   7.541  0.0413  0.1317  0.0734
  683loPI   C1B10597   7.481  17.721   6.034  0.2114 -0.0739  0.2584
  683loPI   C2B10598   7.505  17.737   6.450 -0.3163  0.1745 -0.0552
  683loPI   C3B10599   7.499  17.667   6.847 -0.2819  0.0160 -0.1587
  683loPI   C4B10600   7.407  17.622   7.208 -0.2354  0.0614  0.0686
  684loPI    C110601  12.866  17.847   5.421 -0.0314 -0.0235  0.0256
  684loPI    C210602  12.986  17.483   5.532 -0.0323 -0.0498 -0.0584
  684loPI    C310603  12.826  17.539   5.170  0.1139  0.0633 -0.1064
  684loPI   PO410604  12.779  17.913   5.723  0.1152  0.2025  0.1311
  684loPI   GL110605  12.851  18.177   6.008 -0.0293  0.2871  0.3684
  684loPI   GL210606  13.003  17.978   6.290 -0.0637 -0.4460 -0.0419
  684loPI   C1A10607  12.586  18.187   6.462  0.1195 -0.0679 -0.3677
  684loPI   C2A10608  12.589  18.104   6.882  0.1872 -0.0585 -0.1381
  684loPI   C3A10609  12.530  18.179   7.284 -0.0993  0.2778 -0.0330
  684loPI   C4A10610  12.583  18.332   7.729  0.1752 -0.0005 -0.0577
  684loPI   C5A10611  12.584  18.275   8.070 -0.4821  0.1601  0.0210
  684loPI   C6A10612  12.647  17.896   8.309 -0.1074  0.3520 -0.0905
  684loPI   C1B10613  13.024  18.052   6.747 -0.1114 -0.2312  0.0131
  684loPI   C2B10614  13.021  18.070   7.138 -0.1616 -0.1330  0.0407
  684loPI   C3B10615  13.130  18.088   7.520 -0.1322  0.0619 -0.0446
  684loPI   C4B10616  13.382  18.226   7.927 -0.2656  0.0169 -0.0442
  685loPI    C110617   0.594  16.622   5.058 -0.1307 -0.0792  0.1227
  685loPI    C210618   0.806  16.830   4.791  0.0075 -0.1602  0.1683
  685loPI    C310619   0.782  16.432   4.761  0.1089 -0.1799  0.3341
  685loPI   PO410620   0.521  16.851   5.271 -0.0159  0.4167  0.0196
  685loPI   GL110621   0.719  16.722   5.588 -0.0845 -0.1160 -0.0130
  685loPI   GL210622   0.590  16.662   5.859 -0.1796  0.0869  0.1665
  685loPI   C1A10623   1.044  16.898   5.966 -0.1019  0.1756 -0.0580
  685loPI   C2A10624   1.056  17.005   6.354  0.0453 -0.0541  0.1105
  685loPI   C3A10625   1.076  16.927   6.801 -0.1537  0.1937 -0.0617
  685loPI   C4A10626   1.099  16.987   7.278  0.2214 -0.1161 -0.0161
  685loPI   C5A10627   1.009  16.870   7.690 -0.0019  0.1015  0.2040
  685loPI   C6A10628   1.295  16.834   8.075  0.3715 -0.0134 -0.2976
  685loPI   C1B10629   0.750  16.613   6.271 -0.1491 -0.0269  0.1073
  685loPI   C2B10630   0.687  16.635   6.742  0.1409  0.0272 -0.1456
  685loPI   C3B10631   0.733  16.633   7.189 -0.2475 -0.1719 -0.0284
  685loPI   C4B10632   0.606  16.618   7.615 -0.2889 -0.0084 -0.0307
  686loPI    C110633  12.431   8.711   5.081  0.0595 -0.0455  0.1650
  686loPI    C210634  12.754   8.475   5.075 -0.0084 -0.1352 -0.0080
  686loPI    C310635  12.610   8.626   4.734 -0.0839 -0.0050  0.0808
  686loPI   PO410636  12.288   8.519   5.281 -0.0506 -0.1523  0.0206
  686loPI   GL110637  12.172   8.518   5.697  0.3044  0.0710  0.2167
  686loPI   GL210638  12.431   8.298   5.769  0.1615  0.0000 -0.3547
  686loPI   C1A10639  11.977   8.518   6.134 -0.2913  0.2363 -0.4832
  686loPI   C2A10640  11.877   8.587   6.495 -0.0808  0.4701  0.1817
  686loPI   C3A10641  11.840   8.570   6.933 -0.0377 -0.1794  0.0798
  686loPI   C4A10642  11.982   8.520   7.262  0.1418 -0.0798  0.0544
  686loPI   C5A10643  11.989   8.603   7.716  0.0406  0.0130 -0.0843
  686loPI   C6A10644  12.267   8.531   8.071 -0.0616  0.0999  0.0003
  686loPI   C1B10645  12.494   8.690   6.156  0.1301  0.2352  0.0809
  686loPI   C2B10646  12.455   8.711   6.632  0.2272 -0.1527  0.0489
  686loPI   C3B10647  12.440   8.654   7.101 -0.0098  0.1104 -0.0730
  686loPI   C4B10648  12.468   8.647   7.575  0.4199 -0.3930  0.2401
  687loPI    C110649   6.906  11.391   5.571  0.1091 -0.0286 -0.0529
  687loPI    C210650   6.851  11.281   5.191  0.0080 -0.0840 -0.0225
  687loPI    C310651   7.057  11.613   5.275  0.0090 -0.0580 -0.1263
  687loPI   PO410652   6.632  11.331   5.670  0.0410 -0.0600  0.0522
  687loPI   GL110653   6.547  11.369   6.007  0.0271  0.0232 -0.2193
  687loPI   GL210654   6.285  11.094   5.939  0.1377  0.0982  0.0475
  687loPI   C1A10655   6.915  11.544   6.159  0.1401  0.0990  0.2085
  687loPI   C2A10656   6.950  11.879   6.432  0.2479  0.0315  0.0464
  687loPI   C3A10657   6.916  12.254   6.549  0.1392  0.1219 -0.0397
  687loPI   C4A10658   6.841  12.377   6.881  0.0668  0.0742  0.1705
  687loPI   C5A10659   6.559  12.580   7.136 -0.2933 -0.1648  0.0143
  687loPI   C6A10660   6.169  12.661   7.392  0.1897  0.1859  0.2049
  687loPI   C1B10661   6.290  10.878   6.374  0.1094 -0.1806  0.0789
  687loPI   C2B10662   6.349  11.002   6.727  0.3491 -0.0060  0.0083
  687loPI   C3B10663   6.333  11.235   7.095  0.0007  0.4122 -0.2474
  687loPI   C4B10664   6.292  11.249   7.556 -0.0108  0.0843 -0.0558
  688loPI    C110665  11.728   7.091   5.402  0.1005 -0.0731  0.2264
  688loPI    C210666  11.808   6.820   5.118  0.2485  0.1144  0.0866
  688loPI    C310667  11.469   7.033   5.103  0.0999 -0.1076  0.2338
  688loPI   PO410668  11.823   6.987   5.588 -0.1399 -0.0231  0.3379
  688loPI   GL110669  12.071   7.162   5.798  0.0968 -0.0889  0.0072
  688loPI   GL210670  12.379   6.985   5.852  0.0126  0.1991 -0.0561
  688loPI   C1A10671  11.846   7.273   6.262 -0.1923 -0.1134 -0.0293
  688loPI   C2A10672  11.979   7.305   6.612 -0.1579 -0.0082  0.1422
  688loPI   C3A10673  12.015   7.216   7.002 -0.0775 -0.1856  0.1439
  688loPI   C4A10674  12.035   7.288   7.394 -0.0486 -0.1429  0.5908
  688loPI   C5A10675  11.988   7.134   7.798  0.1954  0.0422 -0.1410
  688loPI   C6A10676  11.946   7.183   8.140 -0.1026  0.1310 -0.1170
  688loPI   C1B10677  12.106   6.876   6.185  0.3346  0.2445  0.2295
  688loPI   C2B10678  12.252   6.898   6.607 -0.3640  0.1923 -0.1348
  688loPI   C3B10679  12.308   6.822   7.013  0.0487 -0.2042 -0.0455
  688loPI   C4B10680  12.370   6.847   7.470  0.1675  0.3669  0.2295
  689loPI    C110681   2.417   5.300   5.072  0.0667 -0.0910 -0.0084
  689loPI    C210682   2.210   5.610   5.217  0.0163 -0.1285  0.0004
  689loPI    C310683   2.246   5.560   4.821  0.2581  0.0432 -0.0018
  689loPI   PO410684   2.496   5.223   5.361 -0.1424  0.5064 -0.0843
  689loPI   GL110685   2.929   5.280   5.671  0.3030 -0.1376 -0.0619
  689loPI   GL210686   3.186   5.205   5.719 -0.0102 -0.0466  0.0676
  689loPI   C1A10687   3.074   5.325   6.176  0.0131  0.0285 -0.0633
  689loPI   C2A10688   3.114   5.358   6.536  0.2732  0.1946  0.2131
  689loPI   C3A10689   3.136   5.211   6.911 -0.1426 -0.0500  0.1510
  689loPI   C4A10690   3.087   5.055   7.270  0.2754  0.0121  0.0184
  689loPI   C5A10691   3.123   5.247   7.747  0.1065 -0.1255  0.2102
  689loPI   C6A10692   3.244   5.624   8.011 -0.0992 -0.0242 -0.1993
  689loPI   C1B10693   3.478   5.080   6.060 -0.1553  0.2659  0.0371
  689loPI   C2B10694   3.706   4.965   6.493 -0.0076 -0.1586  0.1198
  689loPI   C3B10695   3.691   5.167   6.870  0.2035  0.1311 -0.0501
  689loPI   C4B10696   3.968   5.367   7.092 -0.3262  0.2443 -0.2243
  690loPI    C110697   8.051  13.170   5.610 -0.1353  0.0050  0.1302
  690loPI    C210698   7.842  13.506   5.549 -0.2085 -0.0595  0.0203
  690loPI    C310699   8.100  13.378   5.272 -0.0601 -0.0080  0.1330
  690loPI   PO410700   7.902  13.034   5.743  0.0720  0.0323  0.4440
  690loPI   GL110701   7.693  13.117   6.082 -0.2678  0.0802  0.0718
  690loPI   GL210702   7.651  13.366   6.008 -0.2522  0.0112 -0.1954
  690loPI   C1A10703   7.851  13.445   6.480  0.0843  0.0386  0.2422
  690loPI   C2A10704   8.040  13.699   6.718 -0.0440 -0.3185  0.1820
  690loPI   C3A10705   8.245  13.784   7.106 -0.1973  0.2307  0.0682
  690loPI   C4A10706   8.142  13.830   7.549  0.4280  0.0671 -0.3029
  690loPI   C5A10707   7.979  13.650   7.956 -0.2095  0.1171 -0.1856
  690loPI   C6A10708   7.678  13.483   8.132 -0.1111  0.1094  0.1234
  690loPI   C1B10709   7.374  13.434   6.282  0.0003  0.2121 -0.1636
  690loPI   C2B10710   7.372  13.465   6.693 -0.0227  0.0601  0.2217
  690loPI   C3B10711   7.287  13.341   7.115  0.0028 -0.1675 -0.0648
  690loPI   C4B10712   7.173  13.339   7.482  0.2153 -0.1953 -0.0642
  691loPI    C110713   0.986  12.843   5.269  0.3648 -0.0217  0.1546
  691loPI    C210714   0.829  13.202   5.188 -0.1106 -0.2095  0.2118
  691loPI    C310715   0.956  12.967   4.890  0.0359 -0.0696  0.1623
  691loPI   PO410716   1.209  12.861   5.384  0.0832  0.0067 -0.2685
  691loPI   GL110717   1.516  12.769   5.655 -0.0694 -0.3302  0.2398
  691loPI   GL210718   1.651  12.992   5.782 -0.0026  0.1171 -0.1552
  691loPI   C1A10719   1.192  12.710   5.981 -0.0391 -0.3173  0.0210
  691loPI   C2A10720   1.074  12.729   6.444 -0.1323 -0.0013 -0.1303
  691loPI   C3A10721   1.136  12.601   6.869  0.1654 -0.0244  0.1311
  691loPI   C4A10722   1.048  12.665   7.292  0.0563  0.3275 -0.1570
  691loPI   C5A10723   1.181  12.562   7.760 -0.0441  0.0520 -0.1907
  691loPI   C6A10724   1.390  12.602   8.266  0.0736 -0.0582  0.0960
  691loPI   C1B10725   1.531  13.094   6.159  0.1565  0.3612  0.2234
  691loPI   C2B10726   1.386  13.036   6.636 -0.1054  0.0012 -0.4284
  691loPI   C3B10727   1.529  13.024   7.067  0.1793 -0.0042 -0.2175
  691loPI   C4B10728   1.497  12.890   7.457  0.0269 -0.0047 -0.0044
  692loPI    C110729  14.128   9.650   4.978 -0.2738 -0.2106 -0.2684
  692loPI    C210730  14.438   9.407   4.910  0.0516  0.1589 -0.1403
  692loPI    C310731  14.469   9.797   4.830 -0.3083  0.2361  0.0771
  692loPI   PO410732  14.103   9.646   5.239  0.2612 -0.0052 -0.0087
  692loPI   GL110733  14.090   9.678   5.726  0.0825 -0.0658 -0.0378
  692loPI   GL210734  14.023   9.948   5.974 -0.0458 -0.0821 -0.0846
  692loPI   C1A10735  13.978   9.459   6.104 -0.1880 -0.1795 -0.0564
  692loPI   C2A10736  13.883   9.314   6.512 -0.3688  0.0378  0.2999
  692loPI   C3A10737  13.901   9.161   6.898 -0.0856  0.2786 -0.1828
  692loPI   C4A10738  14.086   9.036   7.349  0.2332 -0.0069 -0.0876
  692loPI   C5A10739  13.955   9.274   7.770 -0.5178  0.1769 -0.2321
  692loPI   C6A10740  13.832   9.572   8.023 -0.3391  0.0461 -0.0675
  692loPI   C1B10741  14.034  10.070   6.379  0.1533  0.1530 -0.2067
  692loPI   C2B10742  13.913   9.804   6.692  0.1205  0.1069  0.2795
  692loPI   C3B10743  13.941   9.694   7.145 -0.0220 -0.0555 -0.0639
  692loPI   C4B10744  14.099   9.729   7.567 -0.0285 -0.2349  0.3036
  693loPI    C110745   2.118  10.561   5.278  0.0538 -0.0292  0.1010
  693loPI    C210746   2.305  10.892   5.155 -0.0502  0.1054  0.3009
  693loPI    C310747   2.183  10.622   4.888  0.2917  0.0879  0.1572
  693loPI   PO410748   2.270  10.541   5.514 -0.1781 -0.1559 -0.0359
  693loPI   GL110749   2.238  10.253   5.781  0.1896 -0.0598  0.1024
  693loPI   GL210750   2.018  10.404   5.930  0.0831 -0.2081  0.2180
  693loPI   C1A10751   2.354  10.061   6.262 -0.0710  0.1844 -0.1457
  693loPI   C2A10752   2.642  10.309   6.564  0.1886  0.1395 -0.1115
  693loPI   C3A10753   2.763  10.370   6.983  0.2847 -0.1173 -0.0616
  693loPI   C4A10754   2.706  10.341   7.412 -0.0072 -0.2068  0.0885
  693loPI   C5A10755   2.327  10.431   7.762  0.1196  0.2185  0.0186
  693loPI   C6A10756   2.279  10.742   8.011  0.2755  0.0577  0.1777
  693loPI   C1B10757   2.066  10.422   6.415 -0.0387 -0.3505  0.0302
  693loPI   C2B10758   2.160  10.398   6.829 -0.0490 -0.0597  0.0203
  693loPI   C3B10759   2.203  10.501   7.305 -0.0567 -0.0957 -0.2603
  693loPI   C4B10760   1.861  10.659   7.635  0.3350 -0.2923  0.0822
  694loPI    C110761  17.668   8.099   5.025 -0.0254 -0.2044  0.0442
  694loPI    C210762  18.037   8.188   4.899 -0.0811 -0.3651 -0.2403
  694loPI    C310763  17.718   8.328   4.701 -0.1775 -0.0830  0.1055
  694loPI   PO410764  17.675   7.844   5.143  0.3601  0.0357  0.3587
  694loPI   GL110765  17.641   7.708   5.599 -0.0418 -0.2717  0.0061
  694loPI   GL210766  17.750   7.423   5.605  0.2662  0.0296 -0.1076
  694loPI   C1A10767  17.307   7.619   5.872  0.1661 -0.1731  0.0555
  694loPI   C2A10768  17.422   7.574   6.256  0.4269 -0.4012 -0.0933
  694loPI   C3A10769  17.406   7.582   6.774  0.2158 -0.0460  0.0615
  694loPI   C4A10770  17.614   7.668   7.191  0.0672 -0.0671 -0.3403
  694loPI   C5A10771  17.683   7.578   7.790  0.0004 -0.1241 -0.0596
  694loPI   C6A10772  17.703   7.600   8.200 -0.2337  0.1979  0.0066
  694loPI   C1B10773  17.893   7.364   6.055 -0.1528  0.2763  0.0150
  694loPI   C2B10774  17.850   7.444   6.549  0.3623  0.2484  0.1351
  694loPI   C3B10775  17.968   7.338   6.948  0.0899  0.1140  0.1506
  694loPI   C4B10776  18.059   7.484   7.397  0.2711 -0.1923  0.0590
  695loPI    C110777   9.216  17.409   5.287 -0.1290  0.1150  0.0832
  695loPI    C210778   9.428  17.220   5.568  0.0754 -0.1801 -0.2610
  695loPI    C310779   9.554  17.572   5.426  0.0416 -0.0937 -0.0795
  695loPI   PO410780   8.943  17.284   5.482 -0.0385  0.2542  0.1668
  695loPI   GL110781   8.996  17.207   5.926 -0.0569 -0.0717 -0.1984
  695loPI   GL210782   9.028  17.562   5.903 -0.0425 -0.0011  0.1223
  695loPI   C1A10783   8.829  17.138   6.329 -0.4147 -0.1253 -0.4091
  695loPI   C2A10784   8.711  17.048   6.677  0.0518 -0.0610 -0.2864
  695loPI   C3A10785   8.636  16.979   7.140 -0.3276 -0.4006  0.1722
  695loPI   C4A10786   8.587  16.981   7.530 -0.2477 -0.1231  0.0413
  695loPI   C5A10787   8.560  16.964   7.955 -0.1960  0.0057  0.1435
  695loPI   C6A10788   8.850  16.814   8.276 -0.2063 -0.1397 -0.1694
  695loPI   C1B10789   9.021  17.597   6.347  0.0828 -0.0360 -0.1424
  695loPI   C2B10790   8.988  17.487   6.756  0.0189  0.0410 -0.1039
  695loPI   C3B10791   9.020  17.380   7.154  0.0355 -0.0811  0.1060
  695loPI   C4B10792   8.947  17.299   7.485 -0.1743  0.0031  0.4593
  696loPI    C110793  15.859  13.301   5.637  0.1203 -0.1458 -0.2771
  696loPI    C210794  15.556  13.110   5.459 -0.0544 -0.1049 -0.0303
  696loPI    C310795  15.825  13.307   5.239 -0.0850 -0.3188 -0.2646
  696loPI   PO410796  15.870  13.271   5.832  0.1500  0.1194  0.0563
  696loPI   GL110797  15.876  13.389   6.239 -0.0287 -0.0714 -0.1131
  696loPI   GL210798  16.145  13.731   6.399  0.1153 -0.1755  0.1895
  696loPI   C1A10799  16.017  13.034   6.453  0.0035  0.4203  0.0476
  696loPI   C2A10800  16.245  12.813   6.790 -0.0821 -0.2290 -0.0200
  696loPI   C3A10801  16.478  12.651   7.082 -0.0766 -0.0703  0.2342
  696loPI   C4A10802  16.435  12.603   7.567 -0.0884 -0.0623 -0.1690
  696loPI   C5A10803  16.456  12.552   8.028  0.1807  0.3183 -0.1559
  696loPI   C6A10804  16.518  12.140   8.139 -0.0270 -0.0467 -0.2271
  696loPI   C1B10805  16.415  14.069   6.530  0.1553 -0.3238 -0.1938
  696loPI   C2B10806  16.662  14.132   6.868  0.2109  0.1088  0.0446
  696loPI   C3B10807  16.892  14.226   7.274 -0.3984  0.1149  0.0273
  696loPI   C4B10808  17.026  14.350   7.690  0.4597  0.0282 -0.3190
  697loPI    C110809  11.753   5.204   5.708 -0.1071  0.0373  0.0857
  697loPI    C210810  11.355   5.179   5.745 -0.1187  0.1733  0.0545
  697loPI    C310811  11.519   5.265   5.390 -0.0508 -0.1117  0.0150
  697loPI   PO410812  11.889   4.948   5.815  0.1459  0.2305  0.1818
  697loPI   GL110813  12.147   5.019   6.146  0.0734  0.0101 -0.2186
  697loPI   GL210814  11.909   5.201   6.234 -0.2035  0.0595 -0.0063
  697loPI   C1A10815  11.943   4.680   6.429 -0.1237 -0.1570 -0.2424
  697loPI   C2A10816  11.796   4.575   6.806  0.1179 -0.2523  0.2106
  697loPI   C3A10817  11.668   4.586   7.210 -0.2547 -0.2580 -0.1208
  697loPI   C4A10818  11.510   4.579   7.663 -0.0627  0.2262  0.3788
  697loPI   C5A10819  11.405   4.627   8.093 -0.0929 -0.1711 -0.0681
  697loPI   C6A10820  11.142   4.797   8.297  0.0097 -0.1099  0.2392
  697loPI   C1B10821  11.708   5.117   6.632 -0.1823 -0.0079  0.1269
  697loPI   C2B10822  11.626   5.083   6.997 -0.0163 -0.0433 -0.1979
  697loPI   C3B10823  11.482   5.077   7.373 -0.0785 -0.2276  0.1190
  697loPI   C4B10824  11.420   5.053   7.811  0.0252 -0.0991 -0.0159
  698loPI    C110825  11.894  11.939   5.353  0.0022  0.1928 -0.2199
  698loPI    C210826  11.821  12.305   5.210  0.1435  0.1381 -0.4360
  698loPI    C310827  11.755  11.983   4.981 -0.2262  0.0100 -0.1588
  698loPI   PO410828  11.670  11.862   5.571  0.0747 -0.1432  0.2967
  698loPI   GL110829  11.589  12.077   5.968  0.1103 -0.1147  0.2605
  698loPI   GL210830  11.834  11.934   6.023  0.0912  0.0501 -0.1219
  698loPI   C1A10831  11.542  12.178   6.393 -0.0027  0.0589 -0.0242
  698loPI   C2A10832  11.479  12.298   6.810  0.3922 -0.1441 -0.1586
  698loPI   C3A10833  11.628  12.285   7.213 -0.1293  0.0998 -0.2183
  698loPI   C4A10834  11.646  12.191   7.628  0.0457 -0.0017 -0.0697
  698loPI   C5A10835  11.485  12.268   7.976 -0.0364  0.1288 -0.1128
  698loPI   C6A10836  11.225  12.485   8.309 -0.1392 -0.0165 -0.2363
  698loPI   C1B10837  11.824  11.741   6.353  0.0345  0.0668  0.0743
  698loPI   C2B10838  11.789  11.858   6.818  0.0816  0.1328 -0.2352
  698loPI   C3B10839  11.854  11.854   7.266  0.1220 -0.1744 -0.1149
  698loPI   C4B10840  12.036  11.815   7.577  0.3844  0.1747 -0.2642
  699loPI    C110841   9.352   4.999   5.161  0.1301  0.0701 -0.1884
  699loPI    C210842   9.498   5.109   4.805  0.1019 -0.0581 -0.2399
  699loPI    C310843   9.388   4.729   4.868  0.0895 -0.0319 -0.1002
  699loPI   PO410844   9.418   5.307   5.299  0.0821 -0.0389  0.2367
  699loPI   GL110845   9.349   5.525   5.733 -0.1975  0.1073 -0.0568
  699loPI   GL210846   9.580   5.392   5.838  0.0565 -0.2989 -0.0789
  699loPI   C1A10847   9.247   5.346   6.196  0.0546 -0.0547  0.0613
  699loPI   C2A10848   9.176   5.254   6.615  0.0433  0.3021  0.0493
  699loPI   C3A10849   9.111   5.287   7.054 -0.2566  0.0286  0.1794
  699loPI   C4A10850   9.013   5.600   7.253  0.0709  0.0156 -0.1843
  699loPI   C5A10851   8.965   5.688   7.682  0.1761  0.1610  0.1506
  699loPI   C6A10852   8.688   6.021   7.829  0.0745 -0.3193 -0.3873
  699loPI   C1B10853   9.713   5.066   6.073 -0.1215  0.2776  0.0793
  699loPI   C2B10854   9.357   4.843   6.295 -0.2546  0.1902 -0.0319
  699loPI   C3B10855   9.213   4.750   6.610  0.1064  0.0967 -0.0090
  699loPI   C4B10856   9.199   4.815   7.055  0.0858 -0.1562 -0.0565
  700loPI    C110857  13.097  15.499   5.318 -0.3574 -0.1085  0.0814
  700loPI    C210858  12.702  15.557   5.310 -0.3152  0.1796 -0.0793
  700loPI    C310859  12.912  15.572   4.971 -0.0985  0.5375  0.0660
  700loPI   PO410860  13.101  15.541   5.587 -0.2995 -0.3359 -0.0050
  700loPI   GL110861  13.202  15.233   6.000 -0.3758 -0.1640  0.4905
  700loPI   GL210862  13.473  15.200   6.090  0.0919 -0.1221 -0.0987
  700loPI   C1A10863  12.988  15.219   6.340 -0.0855 -0.0799  0.2706
  700loPI   C2A10864  13.003  15.170   6.818 -0.0471  0.0222  0.3322
  700loPI   C3A10865  12.929  15.115   7.239 -0.1308  0.0398  0.3974
  700loPI   C4A10866  12.965  15.197   7.591  0.4237 -0.0084  0.0878
  700loPI   C5A10867  12.841  15.139   8.012  0.0743 -0.0301 -0.1147
  700loPI   C6A10868  12.855  15.192   8.433  0.0343  0.1747  0.1194
  700loPI   C1B10869  13.475  15.112   6.546  0.2270  0.1169  0.1935
  700loPI   C2B10870  13.515  15.110   6.961  0.0506  0.3489 -0.1161
  700loPI   C3B10871  13.540  15.070   7.417 -0.0073  0.2215  0.0383
  700loPI   C4B10872  13.364  14.993   7.718  0.0173 -0.0118  0.1473
  701loPI    C110873  15.933   4.605   5.447  0.0814 -0.0261  0.0945
  701loPI    C210874  16.250   4.563   5.208 -0.0290  0.2716 -0.1110
  701loPI    C310875  15.885   4.469   5.074 -0.0128 -0.2672  0.1922
  701loPI   PO410876  16.047   4.551   5.672 -0.2886  0.2593  0.0681
  701loPI   GL110877  15.901   4.557   5.985  0.0729 -0.1209  0.0912
  701loPI   GL210878  15.733   4.349   6.233  0.2793 -0.2133  0.0264
  701loPI   C1A10879  15.797   4.958   6.343  0.3025  0.1320  0.0158
  701loPI   C2A10880  15.732   5.005   6.738  0.1163 -0.2007  0.0846
  701loPI   C3A10881  15.643   4.827   7.148 -0.1864  0.2194 -0.1778
  701loPI   C4A10882  15.513   5.071   7.539  0.0230 -0.0376  0.3542
  701loPI   C5A10883  15.616   5.339   7.780  0.3016  0.0835  0.0465
  701loPI   C6A10884  15.934   5.409   8.030  0.0757  0.3335  0.2245
  701loPI   C1B10885  15.653   4.330   6.676 -0.1128  0.2714 -0.1257
  701loPI   C2B10886  15.633   4.332   7.076 -0.0988 -0.1609  0.1020
  701loPI   C3B10887  15.667   4.381   7.461  0.2379  0.0386  0.0125
  701loPI   C4B10888  15.665   4.694   7.820  0.0637 -0.1104  0.1119
  702loPI    C110889   1.488   2.404   4.835 -0.0650  0.0027  0.0719
  702loPI    C210890   1.615   2.772   4.744  0.0582 -0.0626 -0.0239
  702loPI    C310891   1.452   2.541   4.461 -0.2266 -0.0005  0.0854
  702loPI   PO410892   1.367   2.501   5.133 -0.1442  0.0281  0.2208
  702loPI   GL110893   1.361   2.716   5.539  0.1760  0.1178  0.1796
  702loPI   GL210894   1.249   2.438   5.639  0.0561  0.0490 -0.1603
  702loPI   C1A10895   1.546   2.844   6.004  0.1968 -0.0130  0.0473
  702loPI   C2A10896   1.460   2.731   6.413 -0.1072  0.2229  0.0129
  702loPI   C3A10897   1.393   2.959   6.743 -0.1916  0.2893 -0.1363
  702loPI   C4A10898   1.369   2.917   7.151  0.0831  0.0200 -0.2455
  702loPI   C5A10899   1.436   2.953   7.656 -0.2830  0.0178 -0.0583
  702loPI   C6A10900   1.587   2.996   8.017  0.0811  0.4062 -0.0886
  702loPI   C1B10901   1.126   2.349   6.010 -0.0460 -0.0635  0.0967
  702loPI   C2B10902   1.035   2.422   6.391 -0.2218  0.1698  0.2518
  702loPI   C3B10903   1.145   2.441   6.766 -0.1131  0.2512  0.0185
  702loPI   C4B10904   1.046   2.497   7.197 -0.2635 -0.0315  0.0645
  703loPI    C110905  17.176   2.789   5.212  0.1223 -0.0826 -0.1394
  703loPI    C210906  17.177   3.086   4.944 -0.1877  0.1208  0.0772
  703loPI    C310907  16.866   2.836   4.964  0.0735 -0.2269 -0.1066
  703loPI   PO410908  17.181   2.955   5.482 -0.0529  0.0295  0.1590
  703loPI   GL110909  16.949   2.981   5.796 -0.0017 -0.3847  0.0006
  703loPI   GL210910  16.960   2.655   5.939 -0.2129 -0.2714 -0.0468
  703loPI   C1A10911  16.732   3.108   6.232 -0.0158  0.2313 -0.0564
  703loPI   C2A10912  16.700   3.184   6.671  0.2484  0.0482  0.2442
  703loPI   C3A10913  16.613   3.169   7.126  0.1018 -0.1608  0.1633
  703loPI   C4A10914  16.532   3.389   7.472 -0.1214 -0.0745  0.1108
  703loPI   C5A10915  16.725   3.517   7.858 -0.0111 -0.1430  0.1900
  703loPI   C6A10916  16.776   3.635   8.281  0.1329  0.0542 -0.1625
  703loPI   C1B10917  16.908   2.609   6.353 -0.2558 -0.1298 -0.2987
  703loPI   C2B10918  16.731   2.691   6.804 -0.0903  0.0671 -0.1446
  703loPI   C3B10919  16.640   2.664   7.196 -0.2475 -0.1846 -0.0989
  703loPI   C4B10920  16.543   2.836   7.543 -0.0120 -0.2966 -0.1149
  704loPI    C110921  12.786  11.048   5.252 -0.1468 -0.1621 -0.0978
  704loPI    C210922  12.902  11.035   4.870 -0.0847  0.0841 -0.0891
  704loPI    C310923  12.690  11.346   5.004 -0.1397 -0.0200  0.0682
  704loPI   PO410924  12.966  10.908   5.446  0.0495 -0.0989 -0.1206
  704loPI   GL110925  13.002  11.066   5.966 -0.0291  0.2708  0.2102
  704loPI   GL210926  12.768  10.905   6.000 -0.0305  0.0287  0.0059
  704loPI   C1A10927  13.066  11.176   6.358  0.1630 -0.1125  0.1868
  704loPI   C2A10928  13.038  11.044   6.801  0.1297  0.0487 -0.0399
  704loPI   C3A10929  13.043  10.836   7.109  0.1430  0.0891  0.1876
  704loPI   C4A10930  12.889  10.683   7.625 -0.0190  0.0031 -0.0913
  704loPI   C5A10931  12.898  10.409   8.026 -0.0772  0.0221  0.1427
  704loPI   C6A10932  13.214  10.202   8.193  0.0767 -0.0701 -0.1992
  704loPI   C1B10933  12.648  10.850   6.475 -0.2848  0.1902  0.0910
  704loPI   C2B10934  12.601  10.647   6.871 -0.2431  0.1525  0.1712
  704loPI   C3B10935  12.535  10.514   7.257  0.1174  0.0884 -0.0575
  704loPI   C4B10936  12.563  10.254   7.640 -0.2103  0.0239  0.0520
  705loPI    C110937  12.443   3.184   5.225  0.0059  0.0730 -0.0212
  705loPI    C210938  12.809   3.341   5.264  0.0743 -0.0954  0.0243
  705loPI    C310939  12.727   3.098   4.957 -0.0722  0.1403 -0.1265
  705loPI   PO410940  12.374   3.193   5.432  0.0695  0.1927 -0.1457
  705loPI   GL110941  12.312   3.169   5.884 -0.0940  0.1781  0.1316
  705loPI   GL210942  12.326   2.815   6.002  0.0017 -0.0197 -0.2177
  705loPI   C1A10943  12.406   3.216   6.336  0.0430 -0.0836 -0.1956
  705loPI   C2A10944  12.370   3.221   6.750  0.0199  0.0854 -0.0653
  705loPI   C3A10945  12.311   3.257   7.251  0.1120  0.3112 -0.1014
  705loPI   C4A10946  12.004   3.192   7.654 -0.0978 -0.0558  0.1143
  705loPI   C5A10947  11.819   3.223   8.081 -0.2623  0.0147 -0.0543
  705loPI   C6A10948  11.919   3.285   8.478  0.2865 -0.1068  0.0166
  705loPI   C1B10949  12.465   2.696   6.437 -0.0414 -0.1235 -0.0913
  705loPI   C2B10950  12.631   2.802   6.820  0.4722  0.1231  0.0104
  705loPI   C3B10951  12.747   3.004   7.201  0.0142  0.3687  0.2690
  705loPI   C4B10952  12.595   3.097   7.631  0.1971 -0.1822  0.0962
  706loPI    C110953   3.700   7.908   4.954 -0.0479 -0.1485  0.0752
  706loPI    C210954   3.354   7.880   4.753 -0.0507  0.0184  0.0561
  706loPI    C310955   3.640   8.131   4.627 -0.0813  0.1800  0.3015
  706loPI   PO410956   3.660   7.746   5.199  0.1122 -0.0428  0.0605
  706loPI   GL110957   3.463   7.797   5.566 -0.1474  0.3396 -0.4938
  706loPI   GL210958   3.789   7.643   5.732 -0.2441 -0.1498  0.0407
  706loPI   C1A10959   3.348   7.815   5.958  0.2971 -0.1278 -0.0050
  706loPI   C2A10960   3.405   7.880   6.461 -0.1628  0.0391 -0.0107
  706loPI   C3A10961   3.389   7.838   6.928 -0.2114 -0.1750  0.0290
  706loPI   C4A10962   3.382   7.959   7.371 -0.0556 -0.3356 -0.1046
  706loPI   C5A10963   3.586   7.848   7.819 -0.4414  0.0178 -0.1394
  706loPI   C6A10964   3.368   7.632   8.149  0.2971  0.0381  0.0588
  706loPI   C1B10965   3.610   7.427   6.140  0.2694  0.0550 -0.0123
  706loPI   C2B10966   3.524   7.423   6.627 -0.2003 -0.2849  0.0831
  706loPI   C3B10967   3.530   7.385   7.061 -0.1655 -0.0454 -0.0369
  706loPI   C4B10968   3.659   7.365   7.474 -0.0267  0.0101  0.1509
  707loPI    C110969   6.112  11.803   4.976 -0.1462 -0.1195  0.1429
  707loPI    C210970   6.421  11.552   4.942  0.0037  0.1144 -0.3060
  707loPI    C310971   6.070  11.461   4.773  0.0183  0.1430 -0.3521
  707loPI   PO410972   6.087  11.839   5.194 -0.2497  0.0955  0.0034
  707loPI   GL110973   6.094  11.736   5.659  0.0134  0.0284  0.1197
  707loPI   GL210974   6.215  12.028   5.638 -0.1535 -0.0264 -0.2614
  707loPI   C1A10975   6.103  11.535   6.095 -0.1761 -0.2313  0.3511
  707loPI   C2A10976   6.238  11.380   6.430 -0.0639  0.0684  0.2477
  707loPI   C3A10977   6.599  11.471   6.563 -0.0427 -0.0288  0.2740
  707loPI   C4A10978   6.685  11.662   6.963  0.0611  0.0071  0.1230
  707loPI   C5A10979   6.465  11.704   7.431  0.2473  0.3200  0.0637
  707loPI   C6A10980   6.840  11.791   7.700  0.3126  0.3747 -0.2135
  707loPI   C1B10981   6.042  12.108   6.080 -0.3779  0.0663  0.1965
  707loPI   C2B10982   6.059  11.899   6.414  0.2273  0.0426 -0.0860
  707loPI   C3B10983   6.130  11.692   6.825 -0.0436 -0.1617  0.1369
  707loPI   C4B10984   6.007  11.712   7.237  0.0168 -0.0547  0.0833
  708loPI    C110985  12.505  11.784   5.674  0.0775 -0.1681  0.1229
  708loPI    C210986  12.343  11.663   5.329  0.0690 -0.0495  0.0849
  708loPI    C310987  12.739  11.708   5.359  0.0666 -0.0245  0.0795
  708loPI   PO410988  12.318  11.949   5.761 -0.2826 -0.0809 -0.0094
  708loPI   GL110989  12.607  12.074   6.114 -0.1131  0.2498 -0.3464
  708loPI   GL210990  12.276  12.249   6.142  0.0757  0.4105  0.0249
  708loPI   C1A10991  12.602  12.216   6.523 -0.2694 -0.3422  0.0736
  708loPI   C2A10992  12.746  12.286   6.897  0.2167 -0.0461 -0.0309
  708loPI   C3A10993  12.780  12.241   7.331 -0.1894 -0.2023 -0.0087
  708loPI   C4A10994  12.639  12.445   7.691 -0.1252  0.1392  0.0940
  708loPI   C5A10995  12.471  12.284   8.114 -0.1087  0.5367 -0.1684
  708loPI   C6A10996  12.676  11.927   8.443  0.3389  0.0154  0.0222
  708loPI   C1B10997  12.060  12.178   6.502  0.1989 -0.0742  0.0423
  708loPI   C2B10998  12.106  12.213   6.983 -0.1213 -0.1710 -0.0128
  708loPI   C3B10999  12.205  12.227   7.342  0.0276 -0.3038  0.2547
  708loPI   C4B11000  12.163  12.331   7.692  0.2446  0.1139  0.2251
  709loPI    C111001   3.121  10.599   5.494  0.0394  0.0064  0.1811
  709loPI    C211002   3.400  10.370   5.321 -0.1084 -0.0317 -0.0111
  709loPI    C311003   3.151  10.586   5.095 -0.2242  0.0154  0.1593
  709loPI   PO411004   3.204  10.768   5.623 -0.1696 -0.0819  0.3140
  709loPI   GL111005   3.095  10.959   5.909  0.0047  0.2780 -0.1594
  709loPI   GL211006   3.419  11.043   6.032 -0.0727 -0.1260 -0.2258
  709loPI   C1A11007   3.022  10.685   6.278 -0.1771  0.2687  0.0124
  709loPI   C2A11008   3.035  10.710   6.739 -0.0730  0.0702  0.0354
  709loPI   C3A11009   3.118  10.703   7.245  0.1119  0.0008  0.0113
  709loPI   C4A11010   3.005  10.681   7.668  0.2378 -0.0055  0.4161
  709loPI   C5A11011   2.705  10.883   7.829 -0.1170  0.0019  0.0825
  709loPI   C6A11012   2.760  11.386   7.918  0.0407 -0.1356  0.0147
  709loPI   C1B11013   3.390  11.177   6.433  0.0072  0.0979 -0.0735
  709loPI   C2B11014   3.362  11.076   6.840 -0.0571 -0.0958  0.2042
  709loPI   C3B11015   3.467  11.093   7.273  0.0512  0.4003  0.3112
  709loPI   C4B11016   3.335  10.984   7.600 -0.1383 -0.1720  0.0022
  710loPI    C111017  15.045  12.985   5.544  0.0728  0.1585 -0.1618
  710loPI    C211018  15.152  12.894   5.169  0.1682 -0.0346 -0.0894
  710loPI    C311019  15.024  13.263   5.257  0.0730 -0.0093 -0.3266
  710loPI   PO411020  14.894  12.799   5.744 -0.0329 -0.2042 -0.0379
  710loPI   GL111021  14.588  12.973   5.952  0.1989  0.0089  0.0262
  710loPI   GL211022  14.454  13.331   6.042  0.0807 -0.0839  0.0743
  710loPI   C1A11023  14.559  12.948   6.438 -0.2367 -0.1466  0.0570
  710loPI   C2A11024  14.667  12.762   6.804  0.3787 -0.1699 -0.1046
  710loPI   C3A11025  14.501  12.981   7.112 -0.0976  0.1886  0.2065
  710loPI   C4A11026  14.656  13.068   7.598  0.0847 -0.0352 -0.0559
  710loPI   C5A11027  14.680  13.277   8.064  0.3024  0.1800 -0.1625
  710loPI   C6A11028  14.427  13.136   8.552 -0.0203 -0.0267 -0.1122
  710loPI   C1B11029  14.182  13.295   6.353 -0.0649 -0.1367  0.0448
  710loPI   C2B11030  14.199  13.263   6.735 -0.1440 -0.0640 -0.0670
  710loPI   C3B11031  14.167  13.343   7.212  0.1368  0.0897 -0.2471
  710loPI   C4B11032  14.359  13.462   7.617  0.2537  0.0820 -0.0101
  711loPI    C111033  13.868  12.698   5.101  0.0228 -0.0576  0.0715
  711loPI    C211034  14.250  12.728   4.987  0.0813  0.0324  0.2855
  711loPI    C311035  13.960  12.887   4.761  0.1903  0.1666  0.2386
  711loPI   PO411036  13.905  12.801   5.379  0.1976  0.0107 -0.1587
  711loPI   GL111037  14.105  13.037   5.758  0.1760  0.0777 -0.2370
  711loPI   GL211038  13.857  13.216   5.933  0.0015 -0.3973  0.0602
  711loPI   C1A11039  14.141  12.821   6.141  0.0734 -0.0756 -0.0822
  711loPI   C2A11040  13.942  12.806   6.601 -0.0054  0.0559 -0.0122
  711loPI   C3A11041  13.908  12.865   7.034 -0.1096 -0.1687  0.0439
  711loPI   C4A11042  14.086  12.889   7.482  0.0457  0.1166  0.1991
  711loPI   C5A11043  14.109  13.142   7.918 -0.2241  0.1567 -0.1648
  711loPI   C6A11044  13.747  13.343   8.040 -0.2302 -0.1390 -0.1234
  711loPI   C1B11045  13.704  13.128   6.289 -0.0245 -0.1259 -0.1195
  711loPI   C2B11046  13.679  13.274   6.700  0.0122 -0.0506 -0.0690
  711loPI   C3B11047  13.588  13.297   7.095 -0.0867  0.0260  0.1055
  711loPI   C4B11048  13.717  13.345   7.479  0.1038 -0.1726  0.0903
  712loPI    C111049   8.102   1.090   4.890 -0.1557  0.0157 -0.0479
  712loPI    C211050   8.023   0.700   4.928  0.5859 -0.1515 -0.0786
  712loPI    C311051   7.955   0.884   4.579 -0.2409 -0.1182  0.0797
  712loPI   PO411052   8.358   1.109   5.037  0.0893  0.0317 -0.1158
  712loPI   GL111053   8.570   0.819   5.430 -0.0603 -0.0931  0.0815
  712loPI   GL211054   8.169   0.889   5.461  0.2999  0.2952 -0.1519
  712loPI   C1A11055   8.552   1.062   5.786  0.4552 -0.0967 -0.2126
  712loPI   C2A11056   8.422   1.222   6.199  0.0738 -0.3624 -0.0598
  712loPI   C3A11057   8.171   1.314   6.490  0.2200  0.4401  0.1673
  712loPI   C4A11058   8.235   1.290   6.950  0.0935  0.2531 -0.1495
  712loPI   C5A11059   8.146   1.431   7.283  0.0309 -0.1829  0.0054
  712loPI   C6A11060   8.258   1.611   7.751  0.0675 -0.1605  0.0367
  712loPI   C1B11061   8.198   0.713   5.956 -0.0664  0.2292 -0.0586
  712loPI   C2B11062   8.511   0.705   6.344 -0.1061  0.0239 -0.2189
  712loPI   C3B11063   8.323   0.893   6.671  0.1540  0.1569 -0.1476
  712loPI   C4B11064   8.443   0.732   7.128 -0.1828 -0.1282  0.1542
  713loPI    C111065  17.314   7.060   5.236  0.0627  0.0171  0.0458
  713loPI    C211066  17.524   7.349   5.057  0.0077 -0.0661 -0.1561
  713loPI    C311067  17.632   6.966   5.013 -0.0061 -0.0875 -0.0093
  713loPI   PO411068  17.354   7.136   5.474  0.2497  0.3826  0.2400
  713loPI   GL111069  17.554   7.034   5.927 -0.0781 -0.0418  0.1163
  713loPI   GL211070  17.885   6.879   6.004  0.2870  0.1077 -0.0505
  713loPI   C1A11071  17.402   7.098   6.289 -0.0507  0.0672  0.0974
  713loPI   C2A11072  17.486   7.087   6.734  0.1110  0.1920 -0.2763
  713loPI   C3A11073  17.593   7.072   7.142  0.1837  0.0059 -0.0337
  713loPI   C4A11074  17.763   7.125   7.639 -0.0582 -0.2435  0.1594
  713loPI   C5A11075  17.747   7.135   8.011  0.1718 -0.2321  0.0716
  713loPI   C6A11076  17.749   6.770   8.233  0.1268  0.2796 -0.0882
  713loPI   C1B11077  17.859   6.944   6.374  0.2129  0.1038  0.1279
  713loPI   C2B11078  17.895   6.834   6.760 -0.3839  0.2114 -0.2233
  713loPI   C3B11079  18.036   6.935   7.211 -0.0016  0.1056  0.1733
  713loPI   C4B11080  18.232   6.881   7.570  0.0150 -0.0964  0.2448
  714loPI    C111081   9.330  12.635   5.579  0.1883  0.0169  0.0031
  714loPI    C211082   9.286  12.440   5.232 -0.1036  0.3255 -0.1392
  714loPI    C311083   9.279  12.239   5.578  0.0083  0.0376 -0.3015
  714loPI   PO411084   9.540  12.874   5.574  0.1650 -0.0057  0.2278
  714loPI   GL111085   9.641  13.288   5.747 -0.0116  0.0275 -0.0616
  714loPI   GL211086   9.318  13.192   5.988  0.1656  0.0758  0.0264
  714loPI   C1A11087   9.706  13.522   6.130 -0.1016 -0.1642 -0.1023
  714loPI   C2A11088   9.747  13.643   6.604  0.2091  0.3823  0.0423
  714loPI   C3A11089   9.795  13.629   7.050 -0.1316 -0.0258  0.0710
  714loPI   C4A11090   9.848  13.751   7.507 -0.0705 -0.0372 -0.1187
  714loPI   C5A11091   9.829  13.874   7.936 -0.1553 -0.1840  0.0009
  714loPI   C6A11092   9.455  14.075   8.183  0.1251  0.1646  0.0359
  714loPI   C1B11093   9.393  13.162   6.373 -0.0476 -0.0562 -0.1185
  714loPI   C2B11094   9.453  13.237   6.797 -0.0941 -0.0037 -0.1027
  714loPI   C3B11095   9.535  13.188   7.213 -0.2004 -0.1144  0.1072
  714loPI   C4B11096   9.463  13.031   7.584  0.0916 -0.0809 -0.0243
  715loPI    C111097   3.546  13.055   4.907  0.0427 -0.1322  0.0103
  715loPI    C211098   3.857  12.976   5.145  0.0577  0.0742  0.0606
  715loPI    C311099   3.899  12.955   4.748  0.0962 -0.0402  0.0704
  715loPI   PO411100   3.348  13.133   5.208  0.0759 -0.1878  0.1188
  715loPI   GL111101   3.197  13.342   5.569  0.0138 -0.0869 -0.1958
  715loPI   GL211102   2.941  13.176   5.744  0.1466 -0.2454  0.1076
  715loPI   C1A11103   3.264  13.630   5.905  0.3669  0.0904 -0.2179
  715loPI   C2A11104   3.551  13.804   6.244 -0.0569  0.0805 -0.3882
  715loPI   C3A11105   3.628  13.777   6.759  0.2743 -0.0620 -0.0778
  715loPI   C4A11106   3.582  13.738   7.146 -0.1188 -0.0023 -0.0465
  715loPI   C5A11107   3.590  13.634   7.573 -0.1333  0.0730  0.2268
  715loPI   C6A11108   3.495  13.395   7.911 -0.0295  0.1162  0.0717
  715loPI   C1B11109   2.838  13.251   6.133  0.0974  0.1649  0.0774
  715loPI   C2B11110   2.840  13.132   6.575  0.0137  0.4135  0.1904
  715loPI   C3B11111   2.907  13.054   7.012 -0.3017  0.0754 -0.0494
  715loPI   C4B11112   2.793  12.959   7.473  0.2006 -0.2219 -0.2089
  716loPI    C111113   7.958  18.026   5.321 -0.0914  0.1654 -0.0877
  716loPI    C211114   7.868  17.777   5.021  0.0589 -0.0670  0.0578
  716loPI    C311115   7.625  18.082   5.106 -0.1103 -0.1431 -0.1437
  716loPI   PO411116   8.102  17.914   5.495 -0.1973  0.2450  0.2116
  716loPI   GL111117   8.234  17.906   5.927  0.3077  0.1868 -0.1367
  716loPI   GL211118   7.946  17.807   6.012 -0.0395  0.0679 -0.0526
  716loPI   C1A11119   8.357  18.095   6.286  0.1614  0.1021  0.1087
  716loPI   C2A11120   8.299  18.001   6.740  0.0130  0.1292 -0.1974
  716loPI   C3A11121   8.320  17.921   7.170  0.0605  0.2326  0.0963
  716loPI   C4A11122   8.433  17.917   7.692 -0.1643 -0.5154  0.0218
  716loPI   C5A11123   8.842  18.128   7.887 -0.1556  0.3060  0.0862
  716loPI   C6A11124   9.233  18.170   8.078  0.1525  0.3027  0.1253
  716loPI   C1B11125   7.992  17.626   6.364  0.3637 -0.1057 -0.1943
  716loPI   C2B11126   8.003  17.638   6.831 -0.0904  0.0687  0.1061
  716loPI   C3B11127   7.917  17.535   7.200  0.0484  0.4086 -0.0140
  716loPI   C4B11128   7.941  17.729   7.637  0.0034 -0.1121 -0.0874
  717loPI    C111129  14.756  11.765   5.708 -0.0915 -0.0103 -0.1479
  717loPI    C211130  15.097  11.563   5.761 -0.0803  0.0681  0.0910
  717loPI    C311131  14.956  11.624   5.392  0.1256 -0.0273 -0.0052
  717loPI   PO411132  14.822  11.986   5.852  0.1707  0.1304  0.0515
  717loPI   GL111133  14.584  12.085   6.156 -0.1827 -0.0283 -0.0418
  717loPI   GL211134  14.328  12.300   6.224 -0.1192  0.1080  0.3209
  717loPI   C1A11135  14.533  11.911   6.598 -0.0274  0.1518 -0.1286
  717loPI   C2A11136  14.606  11.673   6.961  0.1967  0.1226  0.3288
  717loPI   C3A11137  14.535  11.556   7.391 -0.0258 -0.0704 -0.1061
  717loPI   C4A11138  14.678  11.519   7.827 -0.0929 -0.0488  0.0267
  717loPI   C5A11139  14.736  11.797   8.156  0.0143 -0.0692  0.2551
  717loPI   C6A11140  14.767  12.039   8.488  0.1546 -0.0346 -0.1970
  717loPI   C1B11141  14.314  12.417   6.640 -0.2265  0.2521 -0.0387
  717loPI   C2B11142  14.280  12.538   7.131 -0.0928  0.0874 -0.1992
  717loPI   C3B11143  14.691  12.588   7.319  0.1563 -0.1102 -0.0955
  717loPI   C4B11144  15.051  12.343   7.603  0.0083 -0.0335  0.0609
  718loPI    C111145  16.486   4.983   5.348 -0.1678 -0.1297 -0.4036
  718loPI    C211146  16.824   5.187   5.412 -0.1198 -0.3310  0.0249
  718loPI    C311147  16.513   5.365   5.233  0.1032 -0.0501 -0.0913
  718loPI   PO411148  16.360   4.917   5.613 -0.0587  0.2582 -0.0703
  718loPI   GL111149  16.499   5.117   5.953 -0.1996  0.1277 -0.2147
  718loPI   GL211150  16.819   5.054   6.260  0.0772 -0.2645  0.2025
  718loPI   C1A11151  16.250   5.115   6.396  0.0688  0.1959 -0.0286
  718loPI   C2A11152  16.179   5.206   6.840 -0.2217  0.0612 -0.2473
  718loPI   C3A11153  15.960   5.181   7.154  0.0931 -0.1362  0.0692
  718loPI   C4A11154  15.991   5.139   7.562  0.1168 -0.1698  0.1539
  718loPI   C5A11155  16.119   4.910   7.890  0.1865  0.3608  0.0151
  718loPI   C6A11156  16.081   4.585   8.223 -0.1905  0.0754 -0.2983
  718loPI   C1B11157  16.652   5.013   6.661 -0.3699 -0.1431 -0.1366
  718loPI   C2B11158  16.494   4.878   7.069  0.1789  0.1608 -0.2774
  718loPI   C3B11159  16.499   4.895   7.568 -0.1707  0.1293  0.0044
  718loPI   C4B11160  16.480   4.553   7.945 -0.1769 -0.2030 -0.0337
  719loPI    C111161  14.801  16.823   6.015 -0.2241  0.2429 -0.1706
  719loPI    C211162  15.127  17.049   6.067 -0.0946  0.0344 -0.0650
  719loPI    C311163  14.831  17.176   5.829  0.0291  0.2594 -0.1012
  719loPI   PO411164  14.849  16.633   6.203  0.2029  0.0197  0.0468
  719loPI   GL111165  15.011  16.534   6.534 -0.0968  0.0092  0.1644
  719loPI   GL211166  15.284  16.729   6.547 -0.3914 -0.3787 -0.2215
  719loPI   C1A11167  14.709  16.279   6.783  0.1987 -0.2577  0.0471
  719loPI   C2A11168  14.563  16.364   7.166 -0.1297  0.0667 -0.0612
  719loPI   C3A11169  14.589  16.347   7.662  0.0954  0.1591 -0.4317
  719loPI   C4A11170  14.465  16.370   8.083  0.1585  0.3293 -0.1695
  719loPI   C5A11171  14.363  16.381   8.505  0.0079  0.1222 -0.1307
  719loPI   C6A11172  14.164  16.267   8.901  0.1860  0.0429  0.4913
  719loPI   C1B11173  15.234  16.589   7.005 -0.1266 -0.1721 -0.3893
  719loPI   C2B11174  15.457  16.353   7.355 -0.1131  0.0037  0.1985
  719loPI   C3B11175  15.548  16.121   7.732  0.2699  0.0376 -0.1957
  719loPI   C4B11176  15.433  15.978   8.198  0.3138  0.1275 -0.1619
  720loPI    C111177  10.465  17.778   5.039  0.0745  0.1962 -0.1026
  720loPI    C211178  10.656  17.447   4.921 -0.1583  0.0897 -0.1877
  720loPI    C311179  10.477  17.681   4.651 -0.2727  0.1099 -0.0957
  720loPI   PO411180  10.610  17.875   5.220  0.0590 -0.2094 -0.1041
  720loPI   GL111181  10.671  17.938   5.584  0.0132  0.2019  0.0005
  720loPI   GL211182  10.841  18.118   5.725 -0.1896  0.1927 -0.0746
  720loPI   C1A11183  10.490  17.568   5.791 -0.1557 -0.1674 -0.0241
  720loPI   C2A11184  10.491  17.601   6.290  0.1876 -0.1510 -0.0532
  720loPI   C3A11185  10.358  17.695   6.730  0.1716 -0.1279 -0.0178
  720loPI   C4A11186  10.315  17.718   7.135  0.1832  0.1108 -0.3019
  720loPI   C5A11187  10.393  17.674   7.568  0.1906 -0.0915  0.1924
  720loPI   C6A11188  10.109  17.623   7.921 -0.2334 -0.1956 -0.0720
  720loPI   C1B11189  10.808  18.032   6.143  0.4150  0.0628  0.3248
  720loPI   C2B11190  10.824  18.003   6.528  0.1800 -0.2610  0.0764
  720loPI   C3B11191  10.699  18.051   6.947  0.2156  0.1369  0.1171
  720loPI   C4B11192  10.654  18.105   7.366 -0.0747  0.4350 -0.1831
  721loPI    C111193  15.310   5.263   5.352 -0.1527  0.0480  0.0730
  721loPI    C211194  15.329   5.583   5.112  0.1338  0.0161  0.0507
  721loPI    C311195  15.062   5.295   5.039 -0.0190  0.1740 -0.0215
  721loPI   PO411196  15.297   5.295   5.557  0.3689  0.1704  0.0417
  721loPI   GL111197  15.499   5.176   5.990 -0.0578  0.1208  0.3449
  721loPI   GL211198  15.762   5.473   6.040  0.0507 -0.0668 -0.2351
  721loPI   C1A11199  15.338   5.281   6.384 -0.0044 -0.1358 -0.0800
  721loPI   C2A11200  15.350   5.292   6.856  0.3090  0.1791 -0.1655
  721loPI   C3A11201  15.179   5.069   7.168  0.0645 -0.0491  0.1374
  721loPI   C4A11202  14.995   5.222   7.579 -0.2208  0.1602  0.2998
  721loPI   C5A11203  14.703   5.310   7.838 -0.4348 -0.1225 -0.2100
  721loPI   C6A11204  14.246   5.439   7.764  0.2490 -0.1664 -0.3481
  721loPI   C1B11205  15.834   5.459   6.456  0.0808 -0.1812 -0.1510
  721loPI   C2B11206  15.763   5.552   6.883  0.0549 -0.1282 -0.0952
  721loPI   C3B11207  15.637   5.639   7.241  0.1934 -0.1149  0.1231
  721loPI   C4B11208  15.348   5.655   7.474 -0.0930  0.1403  0.3373
  722loPI    C111209   0.503   2.289   4.795 -0.1207  0.0120  0.0643
  722loPI    C211210   0.245   1.986   4.756 -0.3115  0.1915 -0.0931
  722loPI    C311211   0.481   2.089   4.449 -0.1213  0.0919  0.0178
  722loPI   PO411212   0.500   2.307   5.158 -0.0791 -0.0264  0.0267
  722loPI   GL111213   0.802   2.167   5.519 -0.1627  0.1348  0.1209
  722loPI   GL211214   0.527   2.110   5.670 -0.2214 -0.1726 -0.0671
  722loPI   C1A11215   1.118   1.967   5.653  0.3662  0.0656 -0.2224
  722loPI   C2A11216   1.311   1.872   5.910 -0.2331 -0.3289 -0.2653
  722loPI   C3A11217   1.130   1.917   6.236 -0.1550 -0.2126 -0.2612
  722loPI   C4A11218   1.213   1.943   6.662 -0.0284  0.1885 -0.1344
  722loPI   C5A11219   1.130   1.975   7.098 -0.1074  0.2547 -0.3518
  722loPI   C6A11220   1.149   2.055   7.455  0.1698  0.1286 -0.2621
  722loPI   C1B11221   0.633   2.068   6.059  0.1689 -0.1251 -0.0249
  722loPI   C2B11222   0.653   2.048   6.482  0.3947  0.0371 -0.0650
  722loPI   C3B11223   0.741   2.159   6.911 -0.0313 -0.0250  0.0747
  722loPI   C4B11224   0.625   2.073   7.317  0.0255  0.2474  0.0422
  723loPI    C111225   5.289   8.658   5.266 -0.1227  0.0043 -0.0398
  723loPI    C211226   5.574   8.782   5.014  0.0724 -0.0311  0.1600
  723loPI    C311227   5.340   8.473   4.915  0.0555  0.0426 -0.0348
  723loPI   PO411228   5.483   8.800   5.517  0.0668 -0.1646 -0.2089
  723loPI   GL111229   5.566   8.834   5.917  0.1127  0.1990 -0.2195
  723loPI   GL211230   5.872   8.899   5.857  0.0564 -0.1565  0.0603
  723loPI   C1A11231   5.581   8.760   6.336 -0.1346 -0.1084 -0.2836
  723loPI   C2A11232   5.471   8.747   6.652 -0.1084  0.0099  0.3085
  723loPI   C3A11233   5.554   8.670   7.083 -0.0702 -0.1104  0.0544
  723loPI   C4A11234   5.614   8.632   7.573 -0.0383  0.1202 -0.1743
  723loPI   C5A11235   5.452   8.806   7.905  0.1491 -0.1184  0.0742
  723loPI   C6A11236   5.701   8.861   8.277  0.4638  0.2148 -0.0988
  723loPI   C1B11237   5.818   9.215   6.145 -0.0475  0.3651 -0.0476
  723loPI   C2B11238   5.912   9.134   6.580  0.1357  0.0469  0.0768
  723loPI   C3B11239   5.902   9.095   6.989 -0.1884  0.1509  0.1094
  723loPI   C4B11240   5.833   9.112   7.434  0.2094  0.2245  0.0651
  724loPI    C111241   1.435   7.693   5.307  0.2246  0.1576  0.0018
  724loPI    C211242   1.640   7.601   4.976  0.1963 -0.0446  0.0395
  724loPI    C311243   1.817   7.577   5.333  0.2476  0.2403  0.0351
  724loPI   PO411244   1.283   7.866   5.299 -0.1790 -0.2614  0.0426
  724loPI   GL111245   1.012   7.886   5.702 -0.1303  0.2728 -0.2279
  724loPI   GL211246   0.871   8.209   5.698  0.3456  0.2534 -0.1567
  724loPI   C1A11247   0.995   7.779   6.153  0.0457 -0.2915 -0.0324
  724loPI   C2A11248   1.024   7.827   6.517 -0.1353 -0.0062 -0.0291
  724loPI   C3A11249   1.051   7.672   6.843  0.0040 -0.1401  0.2628
  724loPI   C4A11250   1.168   7.841   7.182 -0.1971  0.2365  0.6603
  724loPI   C5A11251   1.302   7.716   7.530  0.0268 -0.1954 -0.1829
  724loPI   C6A11252   1.111   7.745   7.946  0.0234 -0.2058  0.4893
  724loPI   C1B11253   0.996   8.270   6.163  0.1042  0.1562 -0.1638
  724loPI   C2B11254   1.048   8.297   6.601 -0.1167  0.1968  0.1201
  724loPI   C3B11255   1.142   8.341   7.055 -0.2393  0.3367 -0.1264
  724loPI   C4B11256   1.523   8.477   7.257 -0.0943 -0.2067 -0.3101
  725loPI    C111257  14.096  12.491   5.784 -0.0561 -0.2099  0.1489
  725loPI    C211258  14.320  12.517   5.454 -0.3049  0.4053  0.0134
  725loPI    C311259  14.495  12.488   5.813 -0.0317 -0.2938 -0.1586
  725loPI   PO411260  13.847  12.350   5.689  0.0562  0.0670  0.0393
  725loPI   GL111261  13.828  12.095   6.020 -0.0356  0.0872  0.1679
  725loPI   GL211262  14.006  11.847   6.341  0.0119 -0.0616 -0.0557
  725loPI   C1A11263  13.815  12.332   6.482 -0.1309 -0.0575 -0.1432
  725loPI   C2A11264  13.717  12.413   6.956  0.0943 -0.2147  0.1374
  725loPI   C3A11265  13.860  12.433   7.339 -0.1683 -0.1340  0.2816
  725loPI   C4A11266  13.806  12.531   7.749 -0.0603  0.2670  0.0439
  725loPI   C5A11267  13.911  12.732   8.169  0.0351  0.0682 -0.2088
  725loPI   C6A11268  14.111  12.727   8.616  0.1490  0.2298  0.1944
  725loPI   C1B11269  13.972  11.891   6.799 -0.2689  0.0051  0.1363
  725loPI   C2B11270  14.230  12.028   7.117  0.1065  0.0411  0.1742
  725loPI   C3B11271  14.252  12.199   7.574  0.3073  0.1938  0.0165
  725loPI   C4B11272  14.393  12.557   7.727  0.1517  0.0847 -0.1513
  726loPI    C111273   6.364   5.461   4.987 -0.0454 -0.1501 -0.0527
  726loPI    C211274   6.024   5.374   4.794  0.0094  0.0413 -0.2386
  726loPI    C311275   6.313   5.580   4.609  0.0720  0.2101  0.0407
  726loPI   PO411276   6.282   5.434   5.268 -0.2773 -0.1044 -0.0828
  726loPI   GL111277   6.021   5.412   5.631 -0.0173 -0.0720  0.0001
  726loPI   GL211278   6.273   5.245   5.761 -0.0503 -0.4592 -0.2503
  726loPI   C1A11279   5.820   5.293   6.032  0.0505  0.0405 -0.2906
  726loPI   C2A11280   5.847   5.318   6.429 -0.2192 -0.0164 -0.0517
  726loPI   C3A11281   5.838   5.319   6.841 -0.5810 -0.1834  0.0180
  726loPI   C4A11282   5.890   5.254   7.255 -0.0292  0.1585  0.0393
  726loPI   C5A11283   5.902   5.295   7.702  0.0196 -0.2010  0.0994
  726loPI   C6A11284   6.072   5.160   8.017  0.4142  0.4979  0.0028
  726loPI   C1B11285   6.332   5.173   6.191 -0.2028 -0.1291 -0.0735
  726loPI   C2B11286   6.283   5.152   6.591  0.1511 -0.1893 -0.0736
  726loPI   C3B11287   6.432   5.165   7.022 -0.1468  0.0876 -0.0695
  726loPI   C4B11288   6.475   5.017   7.365 -0.2152  0.1043 -0.1947
  727loPI    C111289  17.573  17.284   5.292  0.0001  0.1043 -0.0485
  727loPI    C211290  17.338  17.024   5.099  0.2307 -0.2334  0.1162
  727loPI    C311291  17.183  17.362   5.247 -0.0875 -0.3079 -0.0383
  727loPI   PO411292  17.726  17.182   5.533 -0.0184 -0.0696 -0.0012
  727loPI   GL111293  17.817  16.940   5.877 -0.1544 -0.1309 -0.2467
  727loPI   GL211294  17.665  16.651   5.995  0.0402  0.1631 -0.2374
  727loPI   C1A11295  17.881  16.995   6.301 -0.1683  0.0345  0.0042
  727loPI   C2A11296  17.797  16.843   6.730  0.1448  0.1702  0.0229
  727loPI   C3A11297  17.897  16.866   7.081 -0.3018  0.2410 -0.0889
  727loPI   C4A11298  17.854  17.042   7.437  0.1203 -0.0398 -0.2160
  727loPI   C5A11299  17.695  17.145   7.787  0.1567 -0.1766 -0.0781
  727loPI   C6A11300  17.580  17.425   8.143 -0.2073  0.2143  0.0317
  727loPI   C1B11301  17.549  16.593   6.376 -0.2469  0.0167 -0.0556
  727loPI   C2B11302  17.549  16.417   6.727  0.0528 -0.3156  0.2894
  727loPI   C3B11303  17.641  16.030   6.907 -0.1071  0.0051  0.0161
  727loPI   C4B11304  17.783  15.647   6.982 -0.3405 -0.0578  0.1650
  728loPI    C111305  11.754  11.091   5.435 -0.1539 -0.1815  0.1103
  728loPI    C211306  11.907  11.433   5.295 -0.2766 -0.0899  0.1980
  728loPI    C311307  11.869  11.117   5.053 -0.2534 -0.0112  0.0910
  728loPI   PO411308  11.912  11.069   5.638 -0.1273  0.1845 -0.2833
  728loPI   GL111309  11.972  11.252   6.136  0.0512  0.0580 -0.3655
  728loPI   GL211310  12.239  10.986   6.216  0.3036 -0.0337  0.1268
  728loPI   C1A11311  12.064  11.344   6.558 -0.0097  0.1870 -0.0323
  728loPI   C2A11312  12.090  11.454   6.900  0.2896  0.0337  0.0945
  728loPI   C3A11313  12.240  11.407   7.293 -0.0937 -0.1270  0.1137
  728loPI   C4A11314  12.416  11.367   7.732  0.1949  0.0036  0.2852
  728loPI   C5A11315  12.748  11.437   7.937  0.1213  0.0102 -0.0191
  728loPI   C6A11316  12.954  11.532   8.313  0.0502 -0.0947 -0.1620
  728loPI   C1B11317  12.232  10.945   6.751 -0.2564 -0.0362  0.0566
  728loPI   C2B11318  12.277  10.922   7.186  0.3234  0.3293 -0.3416
  728loPI   C3B11319  12.334  10.822   7.605  0.3067  0.0713  0.1006
  728loPI   C4B11320  12.145  10.949   7.962  0.0297 -0.0561  0.3153
  729loPI    C111321   7.301  16.739   4.995 -0.4065  0.0688  0.1493
  729loPI    C211322   7.661  16.834   4.849 -0.2581 -0.2349  0.3080
  729loPI    C311323   7.363  17.100   4.834 -0.0576 -0.0173  0.0824
  729loPI   PO411324   7.380  16.531   5.189  0.0698 -0.0759  0.3001
  729loPI   GL111325   7.534  16.556   5.656 -0.0892  0.0130  0.0909
  729loPI   GL211326   7.433  16.817   5.736  0.0802 -0.1902 -0.0972
  729loPI   C1A11327   7.590  16.324   6.040  0.1406  0.2312 -0.0079
  729loPI   C2A11328   7.645  16.294   6.590 -0.0708 -0.0692 -0.1022
  729loPI   C3A11329   7.523  16.186   7.041  0.1386 -0.2615 -0.2859
  729loPI   C4A11330   7.590  16.116   7.558 -0.2983  0.2112  0.0228
  729loPI   C5A11331   7.384  16.243   7.972 -0.0833  0.0193  0.0990
  729loPI   C6A11332   7.182  16.681   8.072 -0.2262 -0.2145  0.0903
  729loPI   C1B11333   7.352  16.857   6.171  0.0972  0.3201  0.1266
  729loPI   C2B11334   7.330  16.786   6.571 -0.2224  0.1061 -0.2614
  729loPI   C3B11335   7.327  16.632   6.970  0.1674 -0.0315 -0.1467
  729loPI   C4B11336   7.359  16.627   7.378 -0.0080 -0.3621  0.0310
  730loPI    C111337   4.839  11.709   5.015 -0.0847  0.1877  0.2076
  730loPI    C211338   4.534  11.637   4.767 -0.1434  0.1119  0.3014
  730loPI    C311339   4.811  11.908   4.669 -0.0570 -0.0597  0.0601
  730loPI   PO411340   4.748  11.560   5.227 -0.0186 -0.0952  0.1052
  730loPI   GL111341   4.434  11.441   5.573 -0.1007  0.1390 -0.3410
  730loPI   GL211342   4.502  11.096   5.626  0.0084  0.0250  0.0432
  730loPI   C1A11343   4.753  11.433   5.915  0.0212  0.1802 -0.0270
  730loPI   C2A11344   4.809  11.411   6.334 -0.1536  0.1361  0.0194
  730loPI   C3A11345   4.752  11.281   6.714  0.0541 -0.1149 -0.0599
  730loPI   C4A11346   4.803  11.241   7.122 -0.1557 -0.1510  0.2123
  730loPI   C5A11347   4.835  11.196   7.530 -0.2527 -0.1435 -0.1016
  730loPI   C6A11348   4.786  11.321   7.979  0.0654  0.1136  0.0848
  730loPI   C1B11349   4.501  11.054   5.965 -0.1657 -0.0339 -0.0935
  730loPI   C2B11350   4.414  10.981   6.400  0.2032  0.1947 -0.1420
  730loPI   C3B11351   4.420  10.911   6.867  0.2470  0.1341 -0.0764
  730loPI   C4B11352   4.482  10.865   7.332  0.4666  0.0741  0.0014
  731loPI    C111353  16.309  17.961   5.141 -0.0247  0.1696 -0.2398
  731loPI    C211354  16.321  18.361   5.131 -0.2311  0.1802 -0.1233
  731loPI    C311355  16.036  18.164   4.930 -0.1604  0.0935 -0.1393
  731loPI   PO411356  16.252  17.845   5.436  0.1073 -0.1547 -0.2739
  731loPI   GL111357  16.267  17.735   5.937 -0.0814  0.1500 -0.0838
  731loPI   GL211358  16.619  17.863   5.931 -0.0308 -0.2129 -0.1754
  731loPI   C1A11359  16.381  17.931   6.392 -0.0175 -0.0174 -0.1663
  731loPI   C2A11360  16.320  17.796   6.864 -0.2271 -0.4125  0.3250
  731loPI   C3A11361  16.321  17.819   7.352  0.1094 -0.0190 -0.0175
  731loPI   C4A11362  16.534  18.042   7.747  0.1834 -0.1033  0.0896
  731loPI   C5A11363  16.706  17.915   8.123  0.2488 -0.0601 -0.0864
  731loPI   C6A11364  16.917  17.873   8.530  0.1019 -0.0969 -0.0285
  731loPI   C1B11365  16.879  17.977   6.373  0.2952  0.0040  0.4041
  731loPI   C2B11366  16.776  17.917   6.692 -0.0001  0.2618 -0.1385
  731loPI   C3B11367  16.917  17.677   7.150 -0.1391  0.0645  0.2243
  731loPI   C4B11368  16.951  17.853   7.520 -0.1489  0.2085 -0.0441
  732loPI    C111369  11.883   3.229   5.395 -0.0587  0.0823  0.3046
  732loPI    C211370  11.567   3.319   5.167  0.0336  0.1305  0.1948
  732loPI    C311371  11.866   3.582   5.207  0.1309  0.0237  0.1741
  732loPI   PO411372  11.837   3.145   5.591 -0.1876 -0.1459  0.1055
  732loPI   GL111373  11.825   2.869   5.952  0.0183  0.3293  0.0382
  732loPI   GL211374  11.573   2.872   6.090 -0.1506 -0.0174  0.2305
  732loPI   C1A11375  12.013   2.834   6.294  0.4045 -0.1570  0.0286
  732loPI   C2A11376  12.051   2.739   6.734 -0.0704 -0.1294 -0.0359
  732loPI   C3A11377  12.149   2.768   7.081 -0.1532 -0.1046 -0.2411
  732loPI   C4A11378  12.269   2.712   7.426 -0.0868  0.1307  0.0256
  732loPI   C5A11379  12.201   2.705   7.849 -0.0790 -0.1397 -0.2993
  732loPI   C6A11380  11.816   2.377   7.976 -0.1520  0.0114 -0.0517
  732loPI   C1B11381  11.559   2.826   6.488  0.5211  0.0767 -0.0082
  732loPI   C2B11382  11.521   2.791   6.892 -0.3378 -0.0957 -0.1626
  732loPI   C3B11383  11.684   2.816   7.235  0.0413  0.1584  0.2392
  732loPI   C4B11384  11.708   2.771   7.677  0.1800 -0.1297 -0.0359
  733loPI    C111385  16.206   7.702   5.202  0.2266  0.1081 -0.0854
  733loPI    C211386  16.392   7.369   5.080  0.1178  0.0273 -0.0326
  733loPI    C311387  16.065   7.497   4.889  0.0661  0.0144  0.0466
  733loPI   PO411388  16.154   7.729   5.491  0.1442  0.2286  0.0485
  733loPI   GL111389  16.160   7.840   5.856  0.0543  0.1804  0.0020
  733loPI   GL211390  16.415   8.027   5.957  0.1179 -0.0894 -0.1519
  733loPI   C1A11391  16.097   7.815   6.261 -0.2292  0.0986 -0.1774
  733loPI   C2A11392  16.167   7.799   6.648  0.1172  0.1055  0.1333
  733loPI   C3A11393  16.201   7.726   7.076 -0.4429  0.0088 -0.3263
  733loPI   C4A11394  16.298   7.454   7.458 -0.2186  0.0546  0.0917
  733loPI   C5A11395  16.260   7.472   7.901 -0.2492 -0.1334  0.0302
  733loPI   C6A11396  16.053   7.618   8.335  0.0791  0.0183 -0.2724
  733loPI   C1B11397  16.611   8.139   6.366  0.3171  0.0939  0.2255
  733loPI   C2B11398  16.584   8.039   6.727  0.0256  0.1009  0.0317
  733loPI   C3B11399  16.588   8.007   7.185  0.1537 -0.3172  0.0676
  733loPI   C4B11400  16.633   7.785   7.536 -0.1417 -0.3287  0.0609
  734loPI    C111401  14.894   0.337   5.410 -0.1997 -0.0488  0.1414
  734loPI    C211402  14.622   0.123   5.209 -0.0496  0.0090 -0.1273
  734loPI    C311403  14.995   0.157   5.067  0.0405  0.1066  0.1283
  734loPI   PO411404  14.849   0.292   5.701 -0.0479 -0.3056 -0.2348
  734loPI   GL111405  14.912   0.075   6.039  0.1428 -0.1838  0.0093
  734loPI   GL211406  14.610   0.100   6.094 -0.0354  0.0339  0.2150
  734loPI   C1A11407  14.982   0.105   6.488 -0.1147 -0.2572 -0.0478
  734loPI   C2A11408  14.792   0.304   6.773  0.0643 -0.2938 -0.1694
  734loPI   C3A11409  14.831   0.395   7.198 -0.0825 -0.0018 -0.0752
  734loPI   C4A11410  14.975   0.258   7.461  0.0254 -0.2202  0.0365
  734loPI   C5A11411  14.990  -0.155   7.713  0.0861 -0.1525 -0.1795
  734loPI   C6A11412  14.960  -0.501   7.934  0.3350  0.1151 -0.0328
  734loPI   C1B11413  14.417  -0.033   6.488 -0.0626  0.1651 -0.2589
  734loPI   C2B11414  14.346   0.140   6.894 -0.2727 -0.1288  0.1158
  734loPI   C3B11415  14.375   0.028   7.334 -0.2065 -0.0138  0.1078
  734loPI   C4B11416  14.481   0.182   7.711  0.0058 -0.0188  0.1021
  735loPI    C111417  11.835  17.615   5.244 -0.0351  0.0835  0.0876
  735loPI    C211418  11.610  17.915   5.104  0.0960  0.0945 -0.1032
  735loPI    C311419  11.585  17.552   4.938  0.2029  0.0906 -0.1108
  735loPI   PO411420  11.907  17.547   5.557 -0.2233  0.0385  0.2962
  735loPI   GL111421  11.818  17.668   5.910  0.0627 -0.2633 -0.1761
  735loPI   GL211422  11.832  18.019   6.008  0.1232 -0.1237 -0.0876
  735loPI   C1A11423  11.473  17.493   6.217 -0.0359  0.3174  0.3401
  735loPI   C2A11424  11.427  17.469   6.649  0.0442 -0.1888  0.0721
  735loPI   C3A11425  11.315  17.507   7.093  0.2071  0.2188  0.1333
  735loPI   C4A11426  11.384  17.458   7.582  0.0185  0.0142  0.1736
  735loPI   C5A11427  11.085  17.470   7.988  0.1254  0.4306 -0.0577
  735loPI   C6A11428  11.014  17.575   8.435 -0.0661  0.2965 -0.1922
  735loPI   C1B11429  11.654  18.287   6.207  0.4568  0.1750  0.2183
  735loPI   C2B11430  11.598  18.364   6.627  0.0073  0.0367  0.3650
  735loPI   C3B11431  11.599  18.369   7.048  0.0797  0.0287  0.1187
  735loPI   C4B11432  11.472  18.377   7.499  0.4091  0.2066 -0.1914
  736loPI    C111433   8.985  16.244   5.180  0.2545  0.2531  0.2856
  736loPI    C211434   9.175  16.152   4.840 -0.1453 -0.0153  0.1267
  736loPI    C311435   8.994  16.507   4.879 -0.2528 -0.0537 -0.0134
  736loPI   PO411436   9.174  16.267   5.364 -0.1114 -0.2296  0.0412
  736loPI   GL111437   9.314  16.074   5.704  0.3896  0.2661  0.4227
  736loPI   GL211438   9.636  16.196   5.563  0.0194  0.1882  0.3764
  736loPI   C1A11439   9.620  15.921   6.007 -0.2486 -0.0168 -0.1775
  736loPI   C2A11440   9.655  15.913   6.481 -0.0377 -0.1276 -0.0522
  736loPI   C3A11441   9.661  16.052   6.935 -0.0455 -0.1443 -0.0895
  736loPI   C4A11442   9.635  15.872   7.384 -0.0276 -0.0285  0.1476
  736loPI   C5A11443   9.744  16.072   7.803 -0.0140 -0.2567 -0.3124
  736loPI   C6A11444   9.939  16.421   8.075  0.0822 -0.0291  0.3034
  736loPI   C1B11445   9.586  16.448   5.864  0.1338  0.0425  0.1445
  736loPI   C2B11446   9.426  16.510   6.263  0.1860 -0.0649 -0.0320
  736loPI   C3B11447   9.381  16.497   6.742  0.1938  0.0518  0.3083
  736loPI   C4B11448   9.427  16.439   7.150 -0.1066 -0.3894  0.2227
  737loPI    C111449  14.000  17.377   5.737 -0.0245  0.1120 -0.0254
  737loPI    C211450  13.869  17.715   5.907 -0.1948  0.1541 -0.2355
  737loPI    C311451  13.967  17.711   5.519 -0.0977 -0.0141 -0.2105
  737loPI   PO411452  13.799  17.201   5.880 -0.0390  0.1129 -0.4226
  737loPI   GL111453  13.650  17.399   6.262 -0.1619 -0.0545  0.0832
  737loPI   GL211454  13.976  17.325   6.399 -0.0532 -0.2195  0.1468
  737loPI   C1A11455  13.487  17.170   6.584 -0.0580 -0.0672 -0.0463
  737loPI   C2A11456  13.432  17.342   7.094 -0.0915  0.0272 -0.1938
  737loPI   C3A11457  13.158  17.537   7.475 -0.0860  0.0109 -0.3060
  737loPI   C4A11458  13.081  17.736   7.914 -0.1331  0.0844 -0.0167
  737loPI   C5A11459  13.143  17.932   8.262  0.2277  0.3358 -0.0532
  737loPI   C6A11460  13.065  18.325   8.315 -0.0886  0.2005 -0.0241
  737loPI   C1B11461  13.836  17.520   6.737 -0.1939  0.0704 -0.1930
  737loPI   C2B11462  13.855  17.584   7.171 -0.0350  0.2928 -0.3190
  737loPI   C3B11463  14.037  17.659   7.655 -0.0247 -0.1653 -0.0552
  737loPI   C4B11464  14.211  17.750   8.075 -0.3732 -0.0746  0.1084
  738loPI    C111465  10.333  13.616   5.087  0.2197  0.0189 -0.1929
  738loPI    C211466  10.611  13.386   5.260 -0.0549 -0.2127 -0.0530
  738loPI    C311467  10.419  13.256   4.934 -0.1658 -0.1556 -0.0110
  738loPI   PO411468  10.129  13.623   5.233  0.0235 -0.1978  0.0218
  738loPI   GL111469  10.052  13.943   5.545 -0.4223  0.1977 -0.1956
  738loPI   GL211470   9.844  13.722   5.608 -0.1017  0.1622 -0.0855
  738loPI   C1A11471  10.060  13.894   5.997 -0.2362 -0.0945 -0.0389
  738loPI   C2A11472  10.105  14.084   6.377 -0.1686 -0.0238 -0.0521
  738loPI   C3A11473   9.919  14.049   6.809 -0.1745 -0.0587 -0.3109
  738loPI   C4A11474  10.026  14.053   7.132 -0.0846 -0.0764  0.1510
  738loPI   C5A11475   9.918  14.240   7.551  0.0914  0.0636 -0.2276
  738loPI   C6A11476   9.911  14.514   7.847  0.1593 -0.1769 -0.1673
  738loPI   C1B11477   9.526  13.917   5.878  0.0132 -0.1045 -0.2162
  738loPI   C2B11478   9.475  14.011   6.279  0.1669 -0.1476 -0.1075
  738loPI   C3B11479   9.396  14.133   6.756 -0.0219 -0.1227  0.1560
  738loPI   C4B11480   9.542  14.156   7.132 -0.0124  0.2824  0.1124
  739loPI    C111481   0.790   0.750   5.145 -0.0733  0.0316  0.2348
  739loPI    C211482   0.617   0.424   4.989  0.0674  0.0130  0.1151
  739loPI    C311483   0.392   0.719   5.137 -0.0597 -0.1883  0.3287
  739loPI   PO411484   1.056   0.721   5.075  0.1719 -0.1995 -0.0064
  739loPI   GL111485   1.378   0.630   5.434 -0.1007 -0.1932 -0.1412
  739loPI   GL211486   1.177   0.361   5.347 -0.0998  0.0755  0.0603
  739loPI   C1A11487   1.222   0.590   5.876  0.3568  0.1519 -0.0486
  739loPI   C2A11488   1.120   0.639   6.299 -0.3751 -0.1590 -0.0307
  739loPI   C3A11489   1.049   0.622   6.691 -0.2890 -0.1501  0.2058
  739loPI   C4A11490   1.020   0.591   7.174 -0.3815 -0.2915  0.0678
  739loPI   C5A11491   1.053   0.622   7.703  0.1676  0.0370  0.1665
  739loPI   C6A11492   0.627   0.615   8.005 -0.1105 -0.0219  0.3363
  739loPI   C1B11493   1.176   0.159   5.723  0.1611 -0.2659  0.1503
  739loPI   C2B11494   1.262   0.113   6.188  0.3361  0.1692 -0.2132
  739loPI   C3B11495   1.213   0.143   6.599 -0.2032  0.3720 -0.1195
  739loPI   C4B11496   1.163   0.126   7.051 -0.1798  0.0850  0.0571
  740loPI    C111497   4.677  13.725   5.120 -0.0089  0.0106  0.0944
  740loPI    C211498   4.355  13.889   4.947 -0.0161 -0.0650  0.0355
  740loPI    C311499   4.526  13.565   4.786  0.0104 -0.1032  0.1399
  740loPI   PO411500   4.622  13.794   5.413  0.0472  0.1443 -0.0061
  740loPI   GL111501   4.423  13.830   5.864 -0.1138 -0.0564 -0.0722
  740loPI   GL211502   4.221  14.022   5.872 -0.2236 -0.0394  0.0217
  740loPI   C1A11503   4.696  13.682   6.267 -0.0207 -0.0080  0.1578
  740loPI   C2A11504   4.697  13.699   6.689 -0.2816  0.2646 -0.0735
  740loPI   C3A11505   4.619  13.549   7.121  0.0904  0.1459  0.1885
  740loPI   C4A11506   4.510  13.537   7.402  0.0592 -0.0232 -0.1507
  740loPI   C5A11507   4.585  13.435   7.798 -0.1486  0.3091  0.0281
  740loPI   C6A11508   4.454  13.101   7.986 -0.0804 -0.1295 -0.2126
  740loPI   C1B11509   4.110  13.881   6.272 -0.0375  0.3543  0.1487
  740loPI   C2B11510   4.087  13.719   6.676 -0.0486 -0.3396 -0.0227
  740loPI   C3B11511   4.128  13.666   7.136 -0.3022  0.0508  0.0272
  740loPI   C4B11512   4.052  13.510   7.620 -0.0019  0.0016  0.0156
  741loPI    C111513   1.391  16.995   4.894  0.0452  0.0978  0.0095
  741loPI    C211514   1.094  17.236   4.778  0.0518  0.0542 -0.0988
  741loPI    C311515   1.228  16.950   4.531  0.1585  0.0496 -0.0361
  741loPI   PO411516   1.334  16.972   5.083  0.1252 -0.2781 -0.3922
  741loPI   GL111517   1.363  16.831   5.418  0.0088  0.1974 -0.1094
  741loPI   GL211518   1.473  16.431   5.533 -0.2350  0.1625 -0.0394
  741loPI   C1A11519   1.570  16.808   5.809 -0.1901  0.1758 -0.1875
  741loPI   C2A11520   1.485  16.785   6.232  0.0474  0.1216 -0.2019
  741loPI   C3A11521   1.537  16.817   6.712 -0.1793 -0.1094  0.1828
  741loPI   C4A11522   1.477  16.751   7.090 -0.2629  0.2312 -0.1666
  741loPI   C5A11523   1.562  16.681   7.593  0.1487  0.0355 -0.0814
  741loPI   C6A11524   1.802  16.812   7.890  0.0798 -0.0840 -0.0232
  741loPI   C1B11525   1.685  16.323   5.979  0.1034 -0.1217  0.0413
  741loPI   C2B11526   1.665  16.303   6.394  0.1391  0.0394 -0.0331
  741loPI   C3B11527   1.688  16.339   6.851  0.0908 -0.0686 -0.0273
  741loPI   C4B11528   1.684  16.278   7.300  0.3319 -0.2194  0.1506
  742loPI    C111529  14.770  11.248   5.672  0.0073  0.2376  0.0574
  742loPI    C211530  14.404  11.214   5.829  0.0015  0.3458  0.0684
  742loPI    C311531  14.459  11.428   5.496  0.0219  0.1588 -0.0493
  742loPI   PO411532  14.905  11.122   5.852 -0.2303  0.1368  0.3438
  742loPI   GL111533  14.900  10.987   6.272  0.2606 -0.0501  0.2325
  742loPI   GL211534  14.501  10.992   6.291  0.0913 -0.2076  0.0289
  742loPI   C1A11535  14.940  10.833   6.714  0.2047  0.0049  0.0008
  742loPI   C2A11536  14.957  10.808   7.197  0.0525  0.0535 -0.1657
  742loPI   C3A11537  14.987  10.847   7.594  0.0897 -0.2827 -0.2138
  742loPI   C4A11538  14.940  11.018   8.011 -0.0412 -0.3460  0.0720
  742loPI   C5A11539  15.080  11.474   8.221 -0.1369  0.1358 -0.2683
  742loPI   C6A11540  15.214  11.745   8.494 -0.0614 -0.0107  0.2689
  742loPI   C1B11541  14.490  11.081   6.746 -0.0243 -0.1123  0.1416
  742loPI   C2B11542  14.497  11.104   7.183 -0.0288  0.0661 -0.1141
  742loPI   C3B11543  14.166  11.141   7.512 -0.1998  0.2065 -0.0104
  742loPI   C4B11544  14.198  11.253   7.996  0.1176  0.0525 -0.1270
  743loPI    C111545   1.672  14.242   5.057 -0.0375 -0.2114  0.0712
  743loPI    C211546   2.010  14.041   4.981 -0.0746 -0.3227  0.1965
  743loPI    C311547   1.953  14.404   4.823  0.1326 -0.2752  0.2283
  743loPI   PO411548   1.584  13.973   5.260 -0.3367 -0.0582  0.0322
  743loPI   GL111549   1.429  13.824   5.665  0.3193  0.0400 -0.2409
  743loPI   GL211550   1.696  13.667   5.705 -0.2221 -0.0745 -0.3111
  743loPI   C1A11551   1.272  14.072   6.068 -0.1324 -0.0928 -0.0916
  743loPI   C2A11552   1.329  14.075   6.534  0.1939  0.5014 -0.0598
  743loPI   C3A11553   1.304  14.099   6.927 -0.1771  0.0460 -0.0524
  743loPI   C4A11554   1.150  14.000   7.388 -0.0756  0.1262 -0.4025
  743loPI   C5A11555   1.271  13.903   7.830  0.2210  0.0808 -0.0493
  743loPI   C6A11556   1.341  13.715   8.140 -0.2656  0.0382 -0.1488
  743loPI   C1B11557   1.487  13.612   6.133 -0.2316 -0.0293 -0.0573
  743loPI   C2B11558   1.360  13.515   6.564  0.2336 -0.2412  0.3308
  743loPI   C3B11559   1.406  13.571   7.063  0.2324 -0.1431 -0.1960
  743loPI   C4B11560   1.323  13.390   7.424  0.0453  0.2154  0.1047
  744loPI    C111561   3.078   9.167   5.206 -0.1025 -0.1070 -0.0660
  744loPI    C211562   3.382   9.280   4.972  0.0436 -0.1409  0.1057
  744loPI    C311563   3.127   8.999   4.847  0.0004 -0.0138 -0.0962
  744loPI   PO411564   3.224   9.117   5.430 -0.1061 -0.1496  0.2303
  744loPI   GL111565   3.467   8.932   5.759  0.2684  0.3222  0.3113
  744loPI   GL211566   3.648   8.763   5.988 -0.1662 -0.4693 -0.1073
  744loPI   C1A11567   3.332   9.197   6.043  0.1327 -0.0947  0.0738
  744loPI   C2A11568   3.511   9.311   6.467 -0.0361  0.2267  0.1155
  744loPI   C3A11569   3.533   9.292   6.842 -0.1001 -0.0209 -0.1766
  744loPI   C4A11570   3.677   9.248   7.257 -0.1818 -0.0858 -0.0721
  744loPI   C5A11571   3.631   9.331   7.676  0.1995 -0.3943  0.0458
  744loPI   C6A11572   4.018   9.507   7.906  0.3016 -0.2364 -0.0120
  744loPI   C1B11573   3.532   8.801   6.342 -0.0340  0.3353  0.0826
  744loPI   C2B11574   3.749   8.759   6.680  0.0096 -0.1768  0.0314
  744loPI   C3B11575   3.736   8.732   7.068  0.3568  0.0627  0.0842
  744loPI   C4B11576   3.700   8.769   7.522  0.3033 -0.1394  0.1240
  745loPI    C111577  16.053  12.232   5.563 -0.0787 -0.0604 -0.0451
  745loPI    C211578  16.127  12.055   5.212  0.0659 -0.0649 -0.0129
  745loPI    C311579  16.080  12.452   5.230  0.0897 -0.0611 -0.0327
  745loPI   PO411580  16.285  12.184   5.753  0.1266 -0.0517 -0.0459
  745loPI   GL111581  16.085  12.182   6.077 -0.0732  0.0535  0.0307
  745loPI   GL211582  15.809  11.978   6.134  0.0411  0.0981  0.1913
  745loPI   C1A11583  15.922  12.395   6.399  0.0421  0.1485  0.0035
  745loPI   C2A11584  15.915  12.413   6.821 -0.0150  0.1454 -0.0490
  745loPI   C3A11585  15.925  12.382   7.237  0.1112  0.0187  0.2829
  745loPI   C4A11586  15.998  12.174   7.602  0.1796  0.2685 -0.0982
  745loPI   C5A11587  15.791  11.928   7.976  0.0302  0.0548  0.1279
  745loPI   C6A11588  15.605  11.954   8.287  0.1092 -0.0580  0.3192
  745loPI   C1B11589  16.009  11.796   6.538  0.0600  0.1315  0.0649
  745loPI   C2B11590  16.258  11.439   6.636  0.4456  0.1596  0.0335
  745loPI   C3B11591  16.243  11.000   6.865 -0.1808  0.4546  0.1016
  745loPI   C4B11592  16.248  10.531   6.851  0.1521  0.3885  0.0924
  746loPI    C111593   6.299   4.318   4.835 -0.0563  0.0390  0.0217
  746loPI    C211594   6.635   4.523   4.765 -0.0108  0.0669  0.3128
  746loPI    C311595   6.306   4.602   4.553  0.1733  0.0153  0.0019
  746loPI   PO411596   6.394   4.277   5.163 -0.1971  0.0338 -0.0017
  746loPI   GL111597   6.380   4.155   5.587 -0.2142  0.1670  0.1327
  746loPI   GL211598   6.616   3.925   5.652  0.3479 -0.0709 -0.1718
  746loPI   C1A11599   6.120   3.884   5.896  0.1324  0.0357 -0.2249
  746loPI   C2A11600   6.163   3.719   6.246 -0.0273  0.0556  0.0044
  746loPI   C3A11601   6.203   3.700   6.652 -0.1748 -0.1008 -0.0750
  746loPI   C4A11602   6.292   3.644   7.074 -0.2538 -0.0434  0.0185
  746loPI   C5A11603   6.074   3.498   7.475 -0.2417  0.2696  0.1249
  746loPI   C6A11604   5.763   3.290   7.542 -0.2360 -0.0975 -0.2856
  746loPI   C1B11605   6.635   3.682   5.995  0.2986  0.1215  0.1438
  746loPI   C2B11606   6.701   3.594   6.489 -0.3041  0.1867 -0.0869
  746loPI   C3B11607   6.749   3.520   6.912 -0.1099  0.3902  0.2135
  746loPI   C4B11608   6.728   3.503   7.376  0.0054 -0.0307  0.1571
  747loPI    C111609   5.505   5.920   4.834  0.0159  0.0948 -0.2041
  747loPI    C211610   5.133   5.779   4.792  0.0611  0.0249 -0.3775
  747loPI    C311611   5.444   5.528   4.786  0.1033  0.0669 -0.0916
  747loPI   PO411612   5.610   6.059   5.089  0.1993 -0.0222 -0.2387
  747loPI   GL111613   5.579   6.050   5.442  0.1075  0.0274 -0.1512
  747loPI   GL211614   5.613   5.845   5.660 -0.1652  0.0426  0.0666
  747loPI   C1A11615   5.575   6.286   5.868 -0.0434 -0.1720  0.0749
  747loPI   C2A11616   5.567   6.353   6.283 -0.1671 -0.0447  0.0207
  747loPI   C3A11617   5.536   6.333   6.752 -0.1642 -0.1781 -0.2424
  747loPI   C4A11618   5.686   6.185   7.246  0.1012  0.1424 -0.2283
  747loPI   C5A11619   5.617   6.148   7.680  0.2626 -0.1564 -0.1083
  747loPI   C6A11620   5.654   6.111   8.115  0.0900  0.4225  0.0287
  747loPI   C1B11621   5.704   5.891   6.124  0.2115  0.0963 -0.0536
  747loPI   C2B11622   5.737   5.832   6.632  0.1605 -0.0865  0.1401
  747loPI   C3B11623   5.719   5.757   7.050 -0.0793  0.3788  0.0049
  747loPI   C4B11624   5.774   5.674   7.471 -0.1388 -0.2073 -0.0438
  748loPI    C111625   5.729   0.819   4.861  0.0642  0.0604  0.1693
  748loPI    C211626   5.903   0.700   4.521  0.1197 -0.0310  0.2289
  748loPI    C311627   5.572   0.925   4.509 -0.0177 -0.2356  0.1136
  748loPI   PO411628   5.876   0.943   4.959 -0.0516 -0.3715 -0.4113
  748loPI   GL111629   5.939   1.118   5.357 -0.0887  0.3461  0.2261
  748loPI   GL211630   6.064   0.874   5.411 -0.0761  0.0736  0.3926
  748loPI   C1A11631   6.015   1.132   5.856  0.0250 -0.1317  0.0210
  748loPI   C2A11632   5.948   1.059   6.248  0.0112  0.1615 -0.2016
  748loPI   C3A11633   5.940   1.041   6.636 -0.2390  0.3360 -0.0049
  748loPI   C4A11634   5.935   1.090   7.018 -0.0555 -0.0906 -0.0439
  748loPI   C5A11635   6.272   1.395   7.308  0.1267 -0.0019 -0.1018
  748loPI   C6A11636   6.435   1.647   7.618 -0.0525  0.0335  0.3602
  748loPI   C1B11637   6.144   0.558   5.722 -0.0327 -0.3983 -0.1124
  748loPI   C2B11638   6.166   0.495   6.079  0.1376  0.0451 -0.1528
  748loPI   C3B11639   6.036   0.555   6.537  0.0239  0.0204  0.1153
  748loPI   C4B11640   6.010   0.609   6.971  0.0034 -0.1252 -0.2602
  749loPI    C111641  18.014   7.487   5.149  0.0896 -0.0572  0.1732
  749loPI    C211642  17.919   7.407   4.769  0.0522 -0.1270  0.1970
  749loPI    C311643  18.146   7.724   4.855 -0.1578  0.0417  0.1389
  749loPI   PO411644  18.011   7.200   5.283  0.0562 -0.1316 -0.2062
  749loPI   GL111645  18.174   7.120   5.651  0.0741 -0.0110  0.2389
  749loPI   GL211646  18.332   6.891   5.546  0.1591 -0.0637  0.0818
  749loPI   C1A11647  18.340   7.090   6.163  0.3172 -0.0943 -0.0075
  749loPI   C2A11648  18.309   7.272   6.559  0.2149  0.2234 -0.0896
  749loPI   C3A11649  18.404   7.258   7.072 -0.0812  0.1514 -0.0749
  749loPI   C4A11650  18.650   7.144   7.493  0.0088  0.0638 -0.1669
  749loPI   C5A11651  18.753   6.846   7.719  0.0964 -0.1735  0.0431
  749loPI   C6A11652  18.478   6.479   7.608  0.0741  0.0450 -0.0358
  749loPI   C1B11653  18.405   6.725   5.913  0.1970 -0.1625 -0.3382
  749loPI   C2B11654  18.391   6.640   6.342 -0.1372 -0.1268 -0.1390
  749loPI   C3B11655  18.343   6.749   6.713 -0.2254  0.0470 -0.2031
  749loPI   C4B11656  18.456   6.716   7.136  0.1163 -0.1815  0.1471
  750loPI    C111657  17.701   5.320   5.482  0.0714  0.2462  0.2519
  750loPI    C211658  18.028   5.492   5.328  0.0563  0.2461  0.2197
  750loPI    C311659  17.765   5.310   5.087  0.1066  0.1182  0.2603
  750loPI   PO411660  17.584   5.483   5.576 -0.0380  0.0229  0.1076
  750loPI   GL111661  17.461   5.691   5.974 -0.0846 -0.0987  0.0391
  750loPI   GL211662  17.351   6.040   5.924 -0.2444 -0.2723  0.0248
  750loPI   C1A11663  17.610   5.542   6.459  0.0974 -0.1366  0.2063
  750loPI   C2A11664  17.661   5.492   6.903 -0.1013  0.1430 -0.0903
  750loPI   C3A11665  17.616   5.470   7.311  0.2078  0.2304 -0.2110
  750loPI   C4A11666  17.520   5.655   7.700 -0.0226 -0.0952  0.4046
  750loPI   C5A11667  17.310   5.932   7.914  0.1885  0.0542  0.0053
  750loPI   C6A11668  17.281   6.189   8.283 -0.3498 -0.0105 -0.0977
  750loPI   C1B11669  17.570   6.153   6.273 -0.0106  0.1334 -0.1858
  750loPI   C2B11670  17.563   6.006   6.681  0.0487  0.0731  0.1519
  750loPI   C3B11671  17.560   5.983   7.158  0.0410  0.3136  0.4747
  750loPI   C4B11672  17.546   6.200   7.530  0.0215 -0.2507 -0.0602
  751loPI    C111673  13.692   6.614   5.287 -0.1187 -0.1900 -0.0123
  751loPI    C211674  13.623   6.645   4.895  0.0885 -0.2738 -0.0569
  751loPI    C311675  13.680   6.974   5.114  0.0723 -0.2319 -0.1155
  751loPI   PO411676  13.491   6.369   5.400 -0.1009 -0.2479  0.2195
  751loPI   GL111677  13.340   6.305   5.744 -0.1114 -0.0028 -0.2453
  751loPI   GL211678  13.184   6.613   5.929 -0.1227 -0.1920  0.0074
  751loPI   C1A11679  13.501   6.187   6.067 -0.1841  0.0443 -0.0852
  751loPI   C2A11680  13.485   6.195   6.563 -0.3138  0.2701 -0.1776
  751loPI   C3A11681  13.466   6.221   7.005 -0.2587  0.1578  0.1860
  751loPI   C4A11682  13.338   6.044   7.421 -0.1284  0.1806 -0.0871
  751loPI   C5A11683  13.309   5.688   7.571  0.1867  0.1956 -0.4726
  751loPI   C6A11684  13.340   5.714   8.094  0.0662  0.0973 -0.1229
  751loPI   C1B11685  13.060   6.645   6.382 -0.2313 -0.1479 -0.0228
  751loPI   C2B11686  13.135   6.560   6.878 -0.4442  0.2680  0.2170
  751loPI   C3B11687  13.173   6.514   7.324 -0.0346 -0.1862 -0.0539
  751loPI   C4B11688  13.373   6.479   7.718 -0.1367  0.2021  0.0383
  752loPI    C111689  17.678  17.806   5.277  0.0553  0.0232 -0.0377
  752loPI    C211690  17.939  18.056   5.105 -0.0231  0.2174  0.1220
  752loPI    C311691  17.561  18.040   4.974  0.0610 -0.0484 -0.0955
  752loPI   PO411692  17.928  17.699   5.481  0.4951  0.2192 -0.0845
  752loPI   GL111693  17.978  17.549   5.760 -0.1161 -0.4662 -0.0325
  752loPI   GL211694  18.165  17.330   5.809  0.0850  0.1919 -0.1922
  752loPI   C1A11695  18.195  17.739   6.120 -0.1102 -0.1499  0.0596
  752loPI   C2A11696  18.206  17.731   6.585  0.0299 -0.0886  0.0497
  752loPI   C3A11697  18.096  17.685   7.054 -0.1009 -0.1727 -0.3928
  752loPI   C4A11698  17.985  17.561   7.421  0.0349  0.0208 -0.0857
  752loPI   C5A11699  18.048  17.630   7.841 -0.0377  0.0792  0.0574
  752loPI   C6A11700  18.188  17.695   8.299 -0.0044 -0.1479  0.2649
  752loPI   C1B11701  18.270  17.297   6.291  0.1750 -0.0074  0.1010
  752loPI   C2B11702  18.036  17.269   6.655  0.0543 -0.0615  0.0231
  752loPI   C3B11703  17.719  17.344   6.981  0.3309  0.2460 -0.0953
  752loPI   C4B11704  17.363  17.348   7.217 -0.0643  0.0395  0.1978
  753loPI    C111705  15.878   8.156   5.436  0.2123  0.0499 -0.1062
  753loPI    C211706  15.967   8.102   5.050  0.0420 -0.0838 -0.1281
  753loPI    C311707  15.644   8.314   5.152  0.1517  0.0502 -0.0562
  753loPI   PO411708  16.062   8.319   5.573  0.0854 -0.0465  0.1777
  753loPI   GL111709  16.002   8.371   6.055 -0.2668  0.0172 -0.1546
  753loPI   GL211710  15.657   8.482   6.047  0.0613 -0.2319  0.0905
  753loPI   C1A11711  16.181   8.297   6.435  0.1143 -0.0413  0.0888
  753loPI   C2A11712  16.112   8.251   6.858 -0.3542  0.3136  0.3597
  753loPI   C3A11713  16.099   8.257   7.323  0.0912 -0.0779  0.2192
  753loPI   C4A11714  15.946   8.288   7.799 -0.2481  0.2027 -0.3790
  753loPI   C5A11715  15.503   8.339   7.761  0.1663  0.1638  0.0744
  753loPI   C6A11716  15.172   8.364   8.123 -0.1461  0.1347  0.2170
  753loPI   C1B11717  15.711   8.424   6.429  0.2468  0.1948  0.1809
  753loPI   C2B11718  15.629   8.519   6.844  0.0218 -0.1472 -0.1268
  753loPI   C3B11719  15.657   8.520   7.273 -0.0690  0.0969  0.1982
  753loPI   C4B11720  15.594   8.808   7.555 -0.1875  0.2172 -0.1294
  754loPI    C111721   9.141   9.260   5.791 -0.1350 -0.0920 -0.2311
  754loPI    C211722   9.180   9.656   5.751  0.0609 -0.0814  0.0410
  754loPI    C311723   8.899   9.506   5.994  0.0244 -0.1087 -0.0181
  754loPI   PO411724   9.391   9.161   5.774  0.0973  0.2163  0.0083
  754loPI   GL111725   9.553   9.052   6.175  0.1117  0.1913 -0.0711
  754loPI   GL211726   9.517   8.651   5.938  0.1739  0.3059 -0.0178
  754loPI   C1A11727   9.458   8.893   6.591  0.0466 -0.1031  0.0362
  754loPI   C2A11728   9.213   8.856   6.975 -0.0366 -0.1355  0.0790
  754loPI   C3A11729   9.066   8.891   7.481 -0.1687 -0.0423 -0.2008
  754loPI   C4A11730   9.097   8.997   7.853 -0.4142 -0.2029  0.1277
  754loPI   C5A11731   9.259   8.978   8.218  0.1827 -0.3891  0.1805
  754loPI   C6A11732   9.685   9.120   8.292  0.1243  0.1528 -0.0970
  754loPI   C1B11733   9.473   8.529   6.234  0.0691 -0.0899 -0.0679
  754loPI   C2B11734   9.446   8.329   6.655  0.1357 -0.0009  0.3586
  754loPI   C3B11735   9.403   8.077   6.963  0.1786 -0.0556 -0.0324
  754loPI   C4B11736   9.315   7.888   7.369 -0.0384  0.2066  0.1293
  755loPI    C111737  12.499   1.833   5.101  0.0044 -0.0681 -0.2986
  755loPI    C211738  12.791   2.021   4.902  0.0548  0.1679 -0.0089
  755loPI    C311739  12.432   2.193   4.939 -0.0004  0.0569 -0.0241
  755loPI   PO411740  12.694   1.695   5.324 -0.1036  0.0493 -0.1093
  755loPI   GL111741  12.806   1.867   5.742  0.2261 -0.3017 -0.4194
  755loPI   GL211742  12.780   1.483   5.777  0.0522  0.2121  0.3433
  755loPI   C1A11743  12.494   1.884   6.086  0.2905 -0.1670  0.0469
  755loPI   C2A11744  12.489   1.827   6.441  0.2181 -0.2671  0.0950
  755loPI   C3A11745  12.436   1.805   6.877  0.0888  0.1036  0.2653
  755loPI   C4A11746  12.340   1.699   7.378 -0.0096  0.2604 -0.2074
  755loPI   C5A11747  12.548   1.775   7.802 -0.0705  0.4459 -0.1145
  755loPI   C6A11748  12.548   1.816   8.281 -0.1086  0.0183 -0.0615
  755loPI   C1B11749  12.745   1.474   6.240 -0.0526  0.2642 -0.2620
  755loPI   C2B11750  12.636   1.376   6.595 -0.0091 -0.2978 -0.0477
  755loPI   C3B11751  12.511   1.290   7.022  0.1110  0.1465  0.0397
  755loPI   C4B11752  12.437   1.230   7.430  0.1058  0.1537  0.0817
  756loPI    C111753  12.942   6.237   5.241 -0.0497  0.0674  0.1157
  756loPI    C211754  12.821   6.569   5.054  0.0045  0.1370  0.2031
  756loPI    C311755  13.190   6.428   4.992  0.0453  0.1974  0.3078
  756loPI   PO411756  12.909   6.341   5.519  0.1170  0.2794 -0.2987
  756loPI   GL111757  12.704   6.435   5.867 -0.3632  0.0826 -0.1225
  756loPI   GL211758  12.857   6.162   6.044  0.2258 -0.0879 -0.4329
  756loPI   C1A11759  12.537   6.562   6.230 -0.0585 -0.0327  0.0322
  756loPI   C2A11760  12.610   6.538   6.701 -0.2244  0.3159  0.4612
  756loPI   C3A11761  12.593   6.395   7.109  0.0378 -0.1077 -0.0603
  756loPI   C4A11762  12.834   6.180   7.460  0.0375 -0.2261 -0.4229
  756loPI   C5A11763  12.969   6.107   7.867 -0.0018 -0.1346  0.3834
  756loPI   C6A11764  12.900   5.942   8.303 -0.2836  0.2685 -0.1598
  756loPI   C1B11765  12.936   6.175   6.550  0.1972 -0.1455  0.2150
  756loPI   C2B11766  12.943   6.088   6.958  0.2218  0.0955  0.3188
  756loPI   C3B11767  12.910   5.751   7.236 -0.0487 -0.2559 -0.0572
  756loPI   C4B11768  12.830   5.456   7.453 -0.1201  0.2111  0.0371
  757loPI    C111769  11.603   4.689   5.225  0.3019 -0.2485 -0.2009
  757loPI    C211770  11.540   4.997   4.977  0.0582 -0.0188  0.1374
  757loPI    C311771  11.281   4.692   4.988  0.0570 -0.0182  0.1245
  757loPI   PO411772  11.573   4.754   5.480 -0.2189 -0.2689  0.1713
  757loPI   GL111773  11.534   4.612   5.933  0.3679  0.1083 -0.0689
  757loPI   GL211774  11.479   4.788   6.150 -0.0802 -0.1103  0.2881
  757loPI   C1A11775  11.604   4.256   6.183  0.3017 -0.3268 -0.2124
  757loPI   C2A11776  11.565   4.180   6.666  0.1382 -0.0250  0.0439
  757loPI   C3A11777  11.309   4.251   7.122 -0.1039  0.2180  0.1504
  757loPI   C4A11778  11.148   4.238   7.498 -0.0436  0.0311  0.1930
  757loPI   C5A11779  11.080   4.186   7.923  0.1656 -0.1289  0.0429
  757loPI   C6A11780  10.963   4.341   8.308 -0.1626  0.0293 -0.3035
  757loPI   C1B11781  11.398   4.665   6.527  0.0993 -0.2487 -0.4065
  757loPI   C2B11782  11.232   4.737   6.943 -0.1914  0.0826  0.2289
  757loPI   C3B11783  11.089   4.769   7.386  0.0571 -0.1087  0.0417
  757loPI   C4B11784  11.023   4.721   7.794 -0.0652 -0.0231 -0.2539
  758loPI    C111785   3.031   1.630   5.204 -0.3113  0.1865  0.2460
  758loPI    C211786   2.789   1.947   5.227  0.0630  0.5008 -0.0082
  758loPI    C311787   2.962   1.853   4.879  0.0426  0.0773  0.0906
  758loPI   PO411788   3.160   1.640   5.405 -0.1250  0.1047  0.0583
  758loPI   GL111789   3.264   1.731   5.825 -0.2641  0.1460 -0.0495
  758loPI   GL211790   2.807   1.714   5.763  0.0691 -0.0914  0.3418
  758loPI   C1A11791   3.529   1.643   6.171 -0.0379 -0.0094 -0.0396
  758loPI   C2A11792   3.492   1.617   6.526  0.0766  0.2017  0.0992
  758loPI   C3A11793   3.530   1.735   6.999  0.4190 -0.2217 -0.0167
  758loPI   C4A11794   3.545   1.761   7.441  0.1798 -0.2261  0.2507
  758loPI   C5A11795   3.717   1.972   7.850  0.0700 -0.2999 -0.1858
  758loPI   C6A11796   3.997   2.168   8.207 -0.0822 -0.0318 -0.2667
  758loPI   C1B11797   2.726   1.497   6.068 -0.0184 -0.0297  0.2408
  758loPI   C2B11798   2.734   1.567   6.554 -0.0119  0.0204 -0.1941
  758loPI   C3B11799   2.569   1.483   7.102 -0.1146  0.0466  0.0373
  758loPI   C4B11800   2.640   1.601   7.535  0.0287 -0.0950  0.2408
  759loPI    C111801   4.784   8.345   5.106 -0.1261  0.2086 -0.1245
  759loPI    C211802   4.472   8.566   4.986 -0.2682 -0.0771 -0.2931
  759loPI    C311803   4.491   8.178   4.890 -0.0059 -0.1333 -0.0295
  759loPI   PO411804   4.859   8.414   5.410  0.2498 -0.1722 -0.2026
  759loPI   GL111805   4.586   8.446   5.751  0.1282  0.2393  0.0779
  759loPI   GL211806   4.503   8.695   5.936 -0.0958 -0.2689 -0.0013
  759loPI   C1A11807   4.627   8.129   6.112  0.2562  0.0394  0.0158
  759loPI   C2A11808   4.726   8.112   6.579  0.1486 -0.1146  0.2315
  759loPI   C3A11809   4.847   7.952   6.944 -0.1818  0.1804 -0.1997
  759loPI   C4A11810   4.864   7.876   7.372 -0.1362  0.1765  0.1253
  759loPI   C5A11811   5.258   7.856   7.656 -0.1602  0.4209 -0.2695
  759loPI   C6A11812   5.363   7.678   8.040 -0.0074 -0.3067  0.1425
  759loPI   C1B11813   4.643   8.602   6.333 -0.1729 -0.1215  0.0961
  759loPI   C2B11814   4.708   8.526   6.791  0.0105 -0.1427 -0.1774
  759loPI   C3B11815   4.677   8.532   7.264 -0.1018  0.1872 -0.0437
  759loPI   C4B11816   4.721   8.695   7.725 -0.1367 -0.0812  0.2118
  760loPI    C111817  13.283  17.867   5.875 -0.2918  0.3436 -0.0635
  760loPI    C211818  13.581  18.057   5.687  0.1704 -0.0118  0.2852
  760loPI    C311819  13.414  17.733   5.522 -0.1274  0.2679  0.0248
  760loPI   PO411820  13.393  17.752   6.033  0.1547 -0.0444  0.0019
  760loPI   GL111821  13.544  17.882   6.343  0.0210 -0.2200  0.1871
  760loPI   GL211822  13.925  18.020   6.346 -0.0064  0.3040  0.3225
  760loPI   C1A11823  13.457  17.800   6.824  0.1693  0.4147 -0.1447
  760loPI   C2A11824  13.440  17.815   7.243 -0.1711 -0.4124 -0.0324
  760loPI   C3A11825  13.567  17.740   7.739 -0.3756  0.1502 -0.1062
  760loPI   C4A11826  13.696  17.812   8.029  0.2544  0.0017  0.2519
  760loPI   C5A11827  13.812  17.876   8.399  0.4612  0.1984  0.1956
  760loPI   C6A11828  14.080  18.320   8.534  0.0864  0.0493 -0.0572
  760loPI   C1B11829  13.869  18.043   6.799 -0.0532  0.1846  0.0309
  760loPI   C2B11830  13.869  18.041   7.296  0.1189  0.1270  0.1440
  760loPI   C3B11831  13.833  18.249   7.670  0.0336 -0.1697  0.3080
  760loPI   C4B11832  13.944  18.260   8.019  0.3743  0.1032 -0.3248
  761loPI    C111833  16.616  16.496   5.106  0.1793 -0.1019  0.1116
  761loPI    C211834  16.678  16.154   4.908 -0.0958 -0.1401  0.0875
  761loPI    C311835  16.351  16.372   4.833  0.0648  0.1166  0.1214
  761loPI   PO411836  16.725  16.381   5.418 -0.1740  0.1156 -0.2055
  761loPI   GL111837  16.727  16.546   5.841  0.1570  0.0278 -0.1845
  761loPI   GL211838  16.494  16.690   5.966  0.1923  0.1177  0.1260
  761loPI   C1A11839  17.079  16.557   6.130  0.1235  0.0442 -0.1559
  761loPI   C2A11840  17.094  16.724   6.481  0.1591 -0.1674 -0.2431
  761loPI   C3A11841  17.166  16.780   6.794  0.0026  0.2071  0.2331
  761loPI   C4A11842  17.392  16.764   7.130 -0.1649 -0.2237  0.2392
  761loPI   C5A11843  17.257  16.944   7.503 -0.0045 -0.2562  0.1778
  761loPI   C6A11844  16.964  16.784   7.837 -0.0211  0.1178 -0.1726
  761loPI   C1B11845  16.562  16.504   6.356  0.0710 -0.2001  0.3061
  761loPI   C2B11846  16.540  16.408   6.875 -0.0659 -0.1013 -0.1930
  761loPI   C3B11847  16.468  16.340   7.168  0.1779  0.1686  0.0291
  761loPI   C4B11848  16.487  16.117   7.566  0.1641  0.0495 -0.1527
  762loPI    C111849   4.055   9.947   5.149  0.2855  0.2435 -0.0053
  762loPI    C211850   4.275   9.901   4.818 -0.0724  0.1076 -0.2314
  762loPI    C311851   3.956  10.141   4.814  0.0705  0.3105  0.0954
  762loPI   PO411852   4.231  10.001   5.325  0.0954 -0.1742 -0.0842
  762loPI   GL111853   4.148  10.057   5.666 -0.0365  0.0079  0.1922
  762loPI   GL211854   3.965  10.196   5.891 -0.0836 -0.3793 -0.0063
  762loPI   C1A11855   4.142   9.717   5.900  0.1793 -0.2019  0.0781
  762loPI   C2A11856   4.276   9.598   6.312  0.1469  0.1123  0.1259
  762loPI   C3A11857   4.374   9.581   6.790 -0.1651  0.2185  0.0872
  762loPI   C4A11858   4.467   9.504   7.168  0.1521  0.0750 -0.1058
  762loPI   C5A11859   4.527   9.551   7.591 -0.0112 -0.2956  0.1609
  762loPI   C6A11860   4.542   9.632   8.017  0.1349 -0.1512 -0.1085
  762loPI   C1B11861   3.782  10.178   6.331  0.0791  0.1818  0.3757
  762loPI   C2B11862   3.752  10.189   6.807 -0.1245 -0.2672 -0.1269
  762loPI   C3B11863   3.687  10.101   7.217  0.1194  0.2838 -0.3492
  762loPI   C4B11864   3.765  10.142   7.713 -0.0008 -0.0840  0.0857
  763loPI    C111865  14.615   4.377   5.353 -0.0174 -0.0433  0.2625
  763loPI    C211866  14.968   4.384   5.164 -0.0246  0.0173  0.2512
  763loPI    C311867  14.765   4.041   5.196  0.0289 -0.0149  0.2457
  763loPI   PO411868  14.624   4.428   5.574 -0.0234  0.1389  0.1118
  763loPI   GL111869  14.400   4.333   6.003 -0.2890  0.0499 -0.1487
  763loPI   GL211870  14.702   4.215   6.090 -0.0393  0.1376  0.3935
  763loPI   C1A11871  14.427   4.482   6.384 -0.0812 -0.0926 -0.2941
  763loPI   C2A11872  14.257   4.432   6.822  0.2666 -0.0778 -0.3220
  763loPI   C3A11873  14.250   4.483   7.247  0.0831 -0.2060 -0.2037
  763loPI   C4A11874  13.930   4.391   7.686 -0.2216  0.2347 -0.0702
  763loPI   C5A11875  13.789   4.301   8.078 -0.0783 -0.0750  0.1166
  763loPI   C6A11876  13.816   3.855   8.281  0.3861  0.0186 -0.1889
  763loPI   C1B11877  14.518   3.877   6.403 -0.0095  0.2167 -0.0422
  763loPI   C2B11878  14.621   4.052   6.823  0.1415  0.0582  0.1309
  763loPI   C3B11879  14.710   4.354   7.151  0.0980 -0.3137 -0.0123
  763loPI   C4B11880  14.780   4.470   7.514 -0.1401  0.1424 -0.2315
  764loPI    C111881   0.436   4.277   5.102  0.2380  0.2859 -0.1742
  764loPI    C211882   0.094   4.105   4.987  0.3542 -0.1107  0.0556
  764loPI    C311883   0.200   4.460   4.835 -0.1034 -0.0329 -0.0980
  764loPI   PO411884   0.437   4.257   5.324 -0.0326  0.1042  0.1395
  764loPI   GL111885   0.729   4.435   5.525 -0.0617 -0.0944  0.0631
  764loPI   GL211886   0.956   4.508   5.712 -0.1097 -0.0895 -0.2240
  764loPI   C1A11887   0.522   4.501   5.968  0.1099 -0.0487  0.0692
  764loPI   C2A11888   0.421   4.570   6.418  0.0660 -0.2211 -0.0781
  764loPI   C3A11889   0.521   4.626   6.902  0.1482 -0.0901 -0.2571
  764loPI   C4A11890   0.562   4.491   7.326 -0.0393 -0.1169  0.1949
  764loPI   C5A11891   0.502   4.281   7.734 -0.0119  0.1365  0.1280
  764loPI   C6A11892   0.525   4.114   8.158  0.0982  0.1580 -0.1129
  764loPI   C1B11893   0.987   4.330   6.092 -0.0877 -0.0444  0.1683
  764loPI   C2B11894   0.905   4.314   6.475  0.1989  0.0613  0.0604
  764loPI   C3B11895   0.961   4.281   6.870 -0.2241  0.2331 -0.0684
  764loPI   C4B11896   1.035   4.309   7.371  0.1094  0.0724 -0.1677
  765loPI    C111897   9.915  13.155   5.342 -0.0467 -0.0413 -0.0387
  765loPI    C211898  10.013  12.874   5.075 -0.2144 -0.1457  0.0084
  765loPI    C311899   9.845  13.216   4.953  0.4207  0.1415 -0.1007
  765loPI   PO411900  10.095  13.242   5.514 -0.1679 -0.1343 -0.0249
  765loPI   GL111901  10.091  13.261   5.953  0.0106  0.0326 -0.2457
  765loPI   GL211902  10.260  12.953   6.079 -0.2668 -0.4563  0.0108
  765loPI   C1A11903  10.234  13.524   6.336  0.0537 -0.1916  0.0065
  765loPI   C2A11904  10.195  13.615   6.742 -0.4597  0.0812  0.0036
  765loPI   C3A11905  10.281  13.603   7.273 -0.0768 -0.0545 -0.0592
  765loPI   C4A11906  10.400  13.648   7.687  0.0503  0.0518  0.2540
  765loPI   C5A11907  10.578  13.885   8.012 -0.0352  0.2412 -0.0125
  765loPI   C6A11908  10.746  14.085   8.347 -0.0502 -0.0456 -0.0239
  765loPI   C1B11909  10.419  13.065   6.449 -0.3042  0.1411 -0.2134
  765loPI   C2B11910  10.486  13.097   6.854 -0.0497 -0.0726  0.1307
  765loPI   C3B11911  10.526  13.031   7.212  0.3102  0.1123  0.0778
  765loPI   C4B11912  10.525  13.149   7.733 -0.2181 -0.1128  0.1554
  766loPI    C111913   8.322  15.561   5.175 -0.0501 -0.2668 -0.0662
  766loPI    C211914   8.080  15.279   5.026  0.0196 -0.2900 -0.1365
  766loPI    C311915   8.468  15.280   4.931 -0.0225 -0.0385 -0.3181
  766loPI   PO411916   8.289  15.559   5.440 -0.0640 -0.1594  0.0750
  766loPI   GL111917   8.380  15.431   5.831 -0.1849  0.1907 -0.1756
  766loPI   GL211918   8.103  15.460   6.053 -0.1452 -0.3173 -0.1353
  766loPI   C1A11919   8.509  15.260   6.221 -0.0863  0.2449  0.0705
  766loPI   C2A11920   8.520  15.081   6.649 -0.0550 -0.0871  0.1225
  766loPI   C3A11921   8.467  15.177   7.106  0.3049 -0.1787 -0.0256
  766loPI   C4A11922   8.586  15.185   7.395 -0.0429 -0.1947  0.1321
  766loPI   C5A11923   8.671  15.313   7.838 -0.2145  0.3312 -0.2383
  766loPI   C6A11924   8.872  15.679   7.830 -0.0876  0.3882  0.1549
  766loPI   C1B11925   8.081  15.250   6.487  0.0479 -0.0182 -0.1246
  766loPI   C2B11926   8.003  15.093   6.812  0.0594  0.1928  0.1347
  766loPI   C3B11927   7.920  15.174   7.264 -0.0070 -0.1859  0.2475
  766loPI   C4B11928   7.718  15.053   7.744 -0.2033  0.2702 -0.2933
  767loPI    C111929  13.463  10.721   5.309 -0.0247  0.1746  0.0065
  767loPI    C211930  13.738  11.011   5.289  0.1085  0.0367 -0.1975
  767loPI    C311931  13.365  11.080   5.162  0.1046  0.1582 -0.1220
  767loPI   PO411932  13.469  10.624   5.502 -0.0007  0.0740 -0.3021
  767loPI   GL111933  13.625  10.416   5.827 -0.1283 -0.1270  0.0394
  767loPI   GL211934  13.839  10.423   6.023  0.2208  0.0610 -0.0251
  767loPI   C1A11935  13.503  10.103   6.162 -0.3318  0.1597 -0.1320
  767loPI   C2A11936  13.509  10.047   6.595  0.1511  0.2391  0.1859
  767loPI   C3A11937  13.383   9.968   6.928  0.0940 -0.1091  0.0717
  767loPI   C4A11938  13.187   9.816   7.392 -0.0479  0.0265  0.1618
  767loPI   C5A11939  13.011   9.931   7.799 -0.0189 -0.1049 -0.1217
  767loPI   C6A11940  12.701   9.826   8.144  0.2543 -0.1492  0.0445
  767loPI   C1B11941  13.625  10.503   6.432 -0.0569  0.4256 -0.1433
  767loPI   C2B11942  13.550  10.564   6.885 -0.2356 -0.2124  0.1006
  767loPI   C3B11943  13.437  10.532   7.230 -0.0780  0.0474  0.0305
  767loPI   C4B11944  13.260  10.354   7.628 -0.2755 -0.0423  0.2690
  768loPI    C111945   9.804  14.983   4.984 -0.2658 -0.0808  0.0842
  768loPI    C211946   9.597  15.177   4.702 -0.0098  0.1254  0.0338
  768loPI    C311947   9.951  15.013   4.613 -0.1621 -0.2563  0.1101
  768loPI   PO411948   9.860  15.187   5.163  0.0609 -0.4056 -0.0359
  768loPI   GL111949   9.748  15.444   5.469 -0.2463  0.2206  0.1229
  768loPI   GL211950   9.546  15.677   5.476  0.0954  0.1679 -0.0475
  768loPI   C1A11951   9.839  15.386   5.892  0.1262  0.2518 -0.1855
  768loPI   C2A11952   9.813  15.460   6.322  0.0109 -0.1720 -0.0948
  768loPI   C3A11953   9.812  15.521   6.745 -0.1335  0.1139 -0.1252
  768loPI   C4A11954   9.827  15.410   7.196 -0.0765 -0.0939 -0.1438
  768loPI   C5A11955   9.787  15.446   7.691 -0.1177  0.0472 -0.2508
  768loPI   C6A11956   9.731  15.451   8.099  0.1963  0.1458 -0.2210
  768loPI   C1B11957   9.381  15.540   5.854  0.2125 -0.0114  0.3260
  768loPI   C2B11958   9.269  15.525   6.255  0.1620 -0.0494  0.1017
  768loPI   C3B11959   9.346  15.514   6.725 -0.0877 -0.1231  0.1070
  768loPI   C4B11960   9.355  15.423   7.157  0.1900  0.5700  0.1122
  769loPI    C111961   1.635  14.842   5.237  0.2006 -0.2084 -0.1119
  769loPI    C211962   1.542  14.694   4.877  0.1136 -0.1478 -0.1148
  769loPI    C311963   1.524  15.088   4.942  0.2398 -0.1478 -0.0763
  769loPI   PO411964   1.722  14.620   5.338  0.1872  0.1906  0.3322
  769loPI   GL111965   1.639  14.287   5.656 -0.4152 -0.1537 -0.5723
  769loPI   GL211966   1.937  14.412   5.877  0.0855 -0.0652 -0.0715
  769loPI   C1A11967   1.781  14.010   6.047  0.2183  0.0428  0.0093
  769loPI   C2A11968   1.758  13.861   6.432 -0.1487 -0.1040 -0.0248
  769loPI   C3A11969   1.768  13.901   6.982  0.0064 -0.0508  0.5127
  769loPI   C4A11970   1.675  13.815   7.368  0.0633  0.0086 -0.0332
  769loPI   C5A11971   1.785  13.733   7.799 -0.1629  0.1225  0.3423
  769loPI   C6A11972   1.874  13.417   8.220  0.0978 -0.1826 -0.0289
  769loPI   C1B11973   2.125  14.395   6.285  0.1939 -0.2647  0.1087
  769loPI   C2B11974   2.242  14.291   6.662  0.0866  0.1976 -0.2759
  769loPI   C3B11975   2.104  14.252   7.058 -0.0391 -0.1469  0.0996
  769loPI   C4B11976   2.089  14.091   7.511 -0.1264  0.0202 -0.1360
  770loPI    C111977  13.870   5.926   5.326 -0.1573 -0.0174  0.1068
  770loPI    C211978  14.025   6.267   5.184 -0.0915 -0.0424  0.1179
  770loPI    C311979  13.727   6.086   4.988 -0.1321  0.0257  0.1164
  770loPI   PO411980  14.090   5.799   5.456  0.1259  0.3252 -0.2282
  770loPI   GL111981  14.026   5.616   5.861 -0.0951 -0.1496  0.1852
  770loPI   GL211982  14.011   5.874   6.012 -0.1003  0.0733  0.2140
  770loPI   C1A11983  14.113   5.378   6.315  0.3536 -0.2742  0.0087
  770loPI   C2A11984  14.261   5.517   6.783 -0.0858  0.2452  0.3826
  770loPI   C3A11985  14.222   5.888   7.059  0.1466 -0.0706  0.1835
  770loPI   C4A11986  14.202   5.894   7.538  0.0963  0.0768 -0.2961
  770loPI   C5A11987  14.318   6.249   7.781  0.0765  0.1591 -0.1986
  770loPI   C6A11988  14.615   6.483   8.004 -0.1727  0.3513 -0.2051
  770loPI   C1B11989  13.882   5.826   6.462 -0.0129  0.0635 -0.0824
  770loPI   C2B11990  13.760   5.838   6.866 -0.2937 -0.4480 -0.2292
  770loPI   C3B11991  13.758   5.765   7.349 -0.1763  0.0040 -0.0591
  770loPI   C4B11992  13.757   5.781   7.800  0.1157 -0.2126 -0.0167
  771loPI    C111993  16.079  12.852   5.513 -0.0703 -0.0235  0.1907
  771loPI    C211994  16.301  13.045   5.785  0.0110  0.2292 -0.0500
  771loPI    C311995  16.438  12.708   5.617  0.0946  0.2390 -0.0016
  771loPI   PO411996  15.871  12.749   5.616 -0.2462  0.0862 -0.3015
  771loPI   GL111997  15.906  12.784   6.033  0.2395 -0.1934  0.3342
  771loPI   GL211998  16.271  12.672   6.077  0.2111  0.0166  0.1938
  771loPI   C1A11999  15.582  12.892   6.404 -0.0383  0.1550 -0.0422
  771loPI   C2A12000  15.641  12.799   6.813  0.1323  0.0563 -0.0619
  771loPI   C3A12001  15.537  12.692   7.242  0.0671  0.2370 -0.1867
  771loPI   C4A12002  15.474  12.826   7.772 -0.3628  0.1713 -0.2653
  771loPI   C5A12003  15.636  12.902   8.222 -0.2505  0.0599  0.0148
  771loPI   C6A12004  15.763  12.576   8.449 -0.1555  0.2961  0.2272
  771loPI   C1B12005  16.419  12.532   6.440 -0.0805 -0.0750  0.1338
  771loPI   C2B12006  16.355  12.252   6.764  0.0886 -0.0309  0.1166
  771loPI   C3B12007  16.400  12.184   7.253 -0.0558 -0.0646  0.0724
  771loPI   C4B12008  16.624  12.186   7.674  0.0400 -0.2382 -0.2629
  772loPI    C112009  17.124  11.261   5.434 -0.0311 -0.1012 -0.2064
  772loPI    C212010  16.999  11.595   5.252 -0.1327  0.0462  0.1276
  772loPI    C312011  16.733  11.343   5.414 -0.0688 -0.2931 -0.2781
  772loPI   PO412012  17.473  11.310   5.478  0.1710 -0.0251  0.0427
  772loPI   GL112013  17.728  11.375   5.874  0.2963  0.0321  0.0319
  772loPI   GL212014  17.834  11.139   6.027  0.1110  0.2297  0.1485
  772loPI   C1A12015  17.424  11.370   6.327 -0.0418  0.1615 -0.0091
  772loPI   C2A12016  17.233  11.275   6.679  0.1783  0.1284 -0.0538
  772loPI   C3A12017  17.194  11.275   7.085 -0.0758 -0.0924  0.1173
  772loPI   C4A12018  16.946  11.231   7.432  0.0790  0.2331 -0.1405
  772loPI   C5A12019  16.637  10.965   7.694 -0.2477 -0.0496  0.1571
  772loPI   C6A12020  16.255  10.958   7.834  0.0670  0.1455  0.0588
  772loPI   C1B12021  17.946  10.962   6.341  0.3188  0.0678 -0.1087
  772loPI   C2B12022  18.074  10.828   6.782 -0.4199 -0.0876 -0.0957
  772loPI   C3B12023  18.063  10.766   7.199 -0.0615  0.1981  0.0645
  772loPI   C4B12024  18.022  10.755   7.653 -0.0889 -0.1596 -0.1587
  773loPI    C112025  17.114   1.415   5.323  0.1071  0.0671  0.1108
  773loPI    C212026  16.824   1.500   5.061  0.0504 -0.1029  0.1174
  773loPI    C312027  17.197   1.626   4.993 -0.0448  0.2132  0.1647
  773loPI   PO412028  16.969   1.429   5.566  0.0176  0.1812  0.3180
  773loPI   GL112029  17.133   1.251   5.956  0.2133  0.0796 -0.1489
  773loPI   GL212030  17.231   1.553   5.978 -0.0294  0.1024 -0.3037
  773loPI   C1A12031  17.179   1.116   6.434  0.1546  0.0179  0.0092
  773loPI   C2A12032  17.255   1.197   6.902 -0.0589 -0.2450  0.1416
  773loPI   C3A12033  17.310   1.261   7.346  0.0450 -0.4484 -0.2587
  773loPI   C4A12034  17.147   0.988   7.703 -0.1198  0.0968 -0.0995
  773loPI   C5A12035  17.038   1.008   8.061 -0.0079 -0.2609 -0.1567
  773loPI   C6A12036  16.633   0.744   8.314  0.0385 -0.3500  0.0720
  773loPI   C1B12037  17.123   1.682   6.279  0.1162  0.0555 -0.0785
  773loPI   C2B12038  17.137   1.637   6.630  0.0041  0.1646  0.1888
  773loPI   C3B12039  17.096   1.755   7.029  0.1359  0.1678  0.1577
  773loPI   C4B12040  17.039   1.823   7.536 -0.0077  0.0897  0.0478
  774loPI    C112041   1.849  11.062   5.005  0.1803  0.1283  0.0012
  774loPI    C212042   1.802  11.416   4.824  0.0278  0.0535 -0.1072
  774loPI    C312043   1.659  11.083   4.654  0.1307 -0.0550  0.0160
  774loPI   PO412044   1.847  11.082   5.233 -0.0069 -0.2535  0.0757
  774loPI   GL112045   1.856  11.146   5.711  0.0543  0.1540  0.2018
  774loPI   GL212046   2.178  11.000   5.646 -0.0409  0.0344  0.3646
  774loPI   C1A12047   1.706  11.476   6.084  0.1585  0.4424 -0.0381
  774loPI   C2A12048   1.727  11.605   6.474  0.1532 -0.1566 -0.1918
  774loPI   C3A12049   1.922  11.422   6.919 -0.2395  0.0766 -0.0215
  774loPI   C4A12050   1.656  11.294   7.266 -0.0019  0.1734  0.1330
  774loPI   C5A12051   1.692  11.156   7.685  0.0667  0.2147 -0.1182
  774loPI   C6A12052   1.551  11.093   8.140  0.0092 -0.2574 -0.2259
  774loPI   C1B12053   2.055  10.893   6.086 -0.1272 -0.2818 -0.3765
  774loPI   C2B12054   2.001  10.882   6.593 -0.2129 -0.1217  0.2818
  774loPI   C3B12055   1.996  10.848   7.061  0.0218  0.0927 -0.2412
  774loPI   C4B12056   2.051  11.004   7.358 -0.0741 -0.1008 -0.1622
  775loPI    C112057   8.781  14.117   5.212  0.0140  0.0189 -0.0606
  775loPI    C212058   8.760  14.434   4.968  0.0692  0.0455 -0.0308
  775loPI    C312059   8.791  14.066   4.815  0.1267  0.0639 -0.0639
  775loPI   PO412060   8.838  14.284   5.413 -0.0188  0.0040 -0.0926
  775loPI   GL112061   8.765  14.274   5.850 -0.1685 -0.2664 -0.2161
  775loPI   GL212062   9.048  14.123   5.961 -0.2420 -0.2072  0.0010
  775loPI   C1A12063   8.761  14.581   6.139 -0.0064  0.1368  0.2697
  775loPI   C2A12064   8.756  14.673   6.528  0.1189 -0.2254  0.3417
  775loPI   C3A12065   8.755  14.747   6.992 -0.2789  0.0297 -0.2493
  775loPI   C4A12066   8.783  14.673   7.399  0.0615  0.0443  0.0844
  775loPI   C5A12067   8.747  14.371   7.746 -0.2251  0.1202  0.0315
  775loPI   C6A12068   8.975  14.302   8.087  0.0041  0.1537  0.1258
  775loPI   C1B12069   8.978  14.145   6.421 -0.2090  0.1731 -0.3465
  775loPI   C2B12070   8.932  14.207   6.928  0.0073 -0.3007 -0.0631
  775loPI   C3B12071   9.100  14.152   7.316 -0.0859  0.2981 -0.0104
  775loPI   C4B12072   9.379  14.058   7.654 -0.1352 -0.2622  0.1961
  776loPI    C112073  15.116   0.824   5.454  0.3657  0.2119 -0.1453
  776loPI    C212074  15.161   0.625   5.110 -0.0094 -0.1203 -0.0102
  776loPI    C312075  15.044   1.008   5.106 -0.0950 -0.1474 -0.2494
  776loPI   PO412076  15.259   0.725   5.640 -0.0660  0.0792 -0.1157
  776loPI   GL112077  15.202   0.520   6.002 -0.2346 -0.0608  0.0481
  776loPI   GL212078  15.531   0.652   6.105 -0.0252 -0.0356 -0.1717
  776loPI   C1A12079  15.169   0.658   6.470 -0.2954  0.1537  0.3235
  776loPI   C2A12080  15.278   0.646   6.872  0.0254  0.1430  0.1958
  776loPI   C3A12081  15.316   0.584   7.338  0.0587 -0.1269  0.2212
  776loPI   C4A12082  15.378   0.591   7.731 -0.0009  0.0466 -0.0675
  776loPI   C5A12083  15.608   0.809   8.008  0.0489 -0.1375 -0.1275
  776loPI   C6A12084  15.662   1.230   7.916  0.0292  0.0721 -0.0401
  776loPI   C1B12085  15.694   0.809   6.579  0.0424  0.3623 -0.0434
  776loPI   C2B12086  15.675   0.911   7.081 -0.0378 -0.0139 -0.2819
  776loPI   C3B12087  15.708   0.913   7.493  0.0236  0.0143  0.2672
  776loPI   C4B12088  16.042   0.926   7.777 -0.0745  0.0683  0.2124
  777loPI    C112089   0.615  17.263   4.876  0.1363  0.0659 -0.0875
  777loPI    C212090   0.669  17.536   4.588  0.2628 -0.0842 -0.2075
  777loPI    C312091   0.498  17.185   4.501 -0.2804  0.1121  0.0279
  777loPI   PO412092   0.492  17.386   5.086  0.0201 -0.0558  0.1726
  777loPI   GL112093   0.483  17.471   5.516  0.0524 -0.1969  0.0368
  777loPI   GL212094   0.397  17.206   5.639  0.0600  0.0273  0.1224
  777loPI   C1A12095   0.434  17.578   5.945  0.2180 -0.1038 -0.1981
  777loPI   C2A12096   0.518  17.614   6.379  0.2167  0.0184  0.0767
  777loPI   C3A12097   0.413  17.567   6.805 -0.0255 -0.0372 -0.2246
  777loPI   C4A12098   0.494  17.564   7.185 -0.0014 -0.0408  0.0035
  777loPI   C5A12099   0.424  17.565   7.543  0.0465  0.1749 -0.0155
  777loPI   C6A12100   0.366  17.470   8.023  0.0904  0.1832 -0.3014
  777loPI   C1B12101   0.545  17.100   6.049  0.1133  0.0561 -0.2853
  777loPI   C2B12102   0.607  17.120   6.525  0.0123  0.0809 -0.2080
  777loPI   C3B12103   0.601  17.049   6.962  0.2049 -0.0481 -0.0280
  777loPI   C4B12104   0.558  17.114   7.375 -0.1636 -0.0064 -0.1247
  778loPI    C112105   7.799   5.050   4.898  0.0350 -0.0829 -0.2956
  778loPI    C212106   7.515   5.274   4.727  0.1230  0.1856 -0.0966
  778loPI    C312107   7.797   5.102   4.501 -0.0076  0.1860 -0.2618
  778loPI   PO412108   7.640   5.143   5.259 -0.0610 -0.0137 -0.1242
  778loPI   GL112109   7.721   4.959   5.608  0.0820  0.0930  0.1728
  778loPI   GL212110   7.995   4.971   5.688  0.1854  0.1711 -0.2164
  778loPI   C1A12111   7.405   4.842   6.030 -0.3721  0.1019  0.0302
  778loPI   C2A12112   7.298   4.774   6.466  0.3397  0.2258  0.0375
  778loPI   C3A12113   7.362   4.812   6.888  0.1607  0.0739 -0.3276
  778loPI   C4A12114   7.411   4.831   7.375  0.1448  0.3312  0.0801
  778loPI   C5A12115   7.420   4.600   7.769  0.1749  0.0954 -0.2366
  778loPI   C6A12116   7.187   4.496   8.092  0.2233  0.0700  0.0192
  778loPI   C1B12117   7.863   5.255   6.042  0.0242 -0.3901  0.0540
  778loPI   C2B12118   7.711   5.162   6.429  0.1129 -0.4336  0.0097
  778loPI   C3B12119   7.730   5.195   6.853 -0.1622  0.1946 -0.1095
  778loPI   C4B12120   7.745   5.205   7.325  0.0698 -0.3613  0.0942
  779loPI    C112121   4.102   7.483   5.332  0.2847 -0.0394 -0.0839
  779loPI    C212122   4.166   7.824   5.132 -0.2258  0.1871  0.1212
  779loPI    C312123   4.024   7.503   4.940 -0.2176  0.2423  0.0221
  779loPI   PO412124   4.383   7.429   5.404  0.1822  0.1035 -0.2168
  779loPI   GL112125   4.574   7.229   5.687 -0.2598 -0.0583  0.0031
  779loPI   GL212126   4.829   7.421   5.646  0.0365  0.3622 -0.5716
  779loPI   C1A12127   4.535   7.093   6.056 -0.5471 -0.0869 -0.1167
  779loPI   C2A12128   4.562   7.103   6.489  0.2213  0.1674 -0.1968
  779loPI   C3A12129   4.554   7.143   6.916  0.3670  0.0424  0.0473
  779loPI   C4A12130   4.495   7.168   7.379 -0.2667  0.2824  0.4279
  779loPI   C5A12131   4.531   6.991   7.828 -0.2124  0.3866  0.2202
  779loPI   C6A12132   4.812   6.661   7.995  0.2742 -0.0109  0.1009
  779loPI   C1B12133   4.912   7.433   6.093  0.2114 -0.2933  0.1275
  779loPI   C2B12134   4.897   7.496   6.573 -0.2633 -0.0948  0.1137
  779loPI   C3B12135   4.955   7.458   7.050  0.1436  0.0669 -0.1351
  779loPI   C4B12136   4.879   7.381   7.573  0.1773 -0.5218  0.0012
  780loPI    C112137  11.345  11.347   5.430  0.1249 -0.0670 -0.1374
  780loPI    C212138  11.449  11.608   5.145 -0.1926  0.1440 -0.0650
  780loPI    C312139  11.392  11.222   5.053 -0.2260  0.1975 -0.2741
  780loPI   PO412140  11.491  11.424   5.685 -0.0640  0.0240  0.1975
  780loPI   GL112141  11.472  11.511   5.995 -0.0404 -0.0605  0.0864
  780loPI   GL212142  11.404  11.227   6.172  0.1725  0.3320  0.2181
  780loPI   C1A12143  11.269  11.754   6.216 -0.2262  0.0961 -0.2036
  780loPI   C2A12144  11.331  11.793   6.626 -0.1132 -0.3092  0.2837
  780loPI   C3A12145  11.331  11.864   7.053 -0.0826 -0.0489 -0.0673
  780loPI   C4A12146  11.299  11.661   7.403 -0.0140 -0.0429  0.1833
  780loPI   C5A12147  11.276  11.846   7.686 -0.2318 -0.1821 -0.1522
  780loPI   C6A12148  11.158  11.917   8.140  0.2469  0.4155 -0.3998
  780loPI   C1B12149  11.514  11.310   6.487 -0.0615  0.1056 -0.1038
  780loPI   C2B12150  11.598  11.427   6.884  0.1915  0.1888 -0.0472
  780loPI   C3B12151  11.718  11.338   7.225  0.2405 -0.4710  0.0211
  780loPI   C4B12152  11.450  11.127   7.487  0.0330 -0.1010  0.0381
  781loPI    C112153  14.563   5.465   5.209  0.0118 -0.0691  0.0479
  781loPI    C212154  14.757   5.652   4.913  0.2175 -0.0783  0.1748
  781loPI    C312155  14.526   5.336   4.832  0.2444 -0.0592  0.0201
  781loPI   PO412156  14.773   5.387   5.395  0.0771  0.0422  0.0653
  781loPI   GL112157  14.842   5.526   5.815 -0.0295  0.0820 -0.2248
  781loPI   GL212158  14.524   5.769   5.737 -0.0799  0.0143  0.4362
  781loPI   C1A12159  14.611   5.503   6.238  0.1723 -0.0333 -0.0131
  781loPI   C2A12160  14.428   5.880   6.531  0.0603 -0.3052  0.3022
  781loPI   C3A12161  14.500   6.271   6.680 -0.0945 -0.2790  0.1499
  781loPI   C4A12162  14.445   6.650   6.954 -0.1655  0.1245  0.1752
  781loPI   C5A12163  14.554   6.859   7.313  0.4178 -0.0362  0.0003
  781loPI   C6A12164  14.898   6.884   7.696 -0.0558  0.0753  0.2027
  781loPI   C1B12165  14.466   6.115   6.063  0.0464  0.0829  0.1668
  781loPI   C2B12166  14.159   6.342   6.157  0.0620 -0.1518  0.1963
  781loPI   C3B12167  13.958   6.409   6.505  0.3346  0.1675 -0.0504
  781loPI   C4B12168  13.974   6.375   6.922  0.1022 -0.0937  0.1164
  782loPI    C112169  16.063   4.089   5.331  0.1588 -0.0418 -0.0741
  782loPI    C212170  16.291   4.039   5.006  0.2343 -0.1911  0.0007
  782loPI    C312171  15.898   3.962   4.990  0.1833  0.0851 -0.1337
  782loPI   PO412172  16.121   4.098   5.511  0.2101  0.0080  0.0047
  782loPI   GL112173  16.171   4.140   5.951 -0.0645 -0.0166  0.0311
  782loPI   GL212174  16.082   3.940   6.018  0.4053 -0.0548 -0.1389
  782loPI   C1A12175  16.452   4.145   6.343 -0.3048 -0.2505 -0.0425
  782loPI   C2A12176  16.656   4.328   6.547  0.0709  0.0750  0.2111
  782loPI   C3A12177  16.826   4.590   6.838  0.3400 -0.1579  0.1502
  782loPI   C4A12178  16.937   4.656   7.223 -0.0523 -0.1908 -0.4248
  782loPI   C5A12179  17.022   4.643   7.646 -0.5862 -0.1254 -0.0277
  782loPI   C6A12180  17.101   4.485   7.982 -0.3204 -0.1346 -0.0307
  782loPI   C1B12181  16.015   3.994   6.493  0.1064 -0.0801 -0.1655
  782loPI   C2B12182  16.336   4.115   6.825 -0.0421  0.2087  0.1413
  782loPI   C3B12183  16.533   4.345   7.203  0.1260 -0.0676 -0.2211
  782loPI   C4B12184  16.815   4.214   7.443 -0.2033  0.2641  0.0071
  783loPI    C112185  13.116   0.110   5.635  0.1522 -0.0492 -0.1795
  783loPI    C212186  13.264  -0.051   5.300 -0.1749 -0.1636 -0.2731
  783loPI    C312187  12.971   0.221   5.279 -0.0434 -0.0043 -0.0876
  783loPI   PO412188  13.273   0.231   5.761  0.2357 -0.0912  0.0462
  783loPI   GL112189  13.432   0.096   6.110 -0.2170 -0.0227 -0.1607
  783loPI   GL212190  13.652   0.239   6.132  0.1886 -0.2243  0.0773
  783loPI   C1A12191  13.491   0.131   6.599  0.0874  0.0547 -0.2476
  783loPI   C2A12192  13.404   0.294   6.920 -0.1448  0.1590  0.1869
  783loPI   C3A12193  13.508   0.291   7.324  0.2416 -0.0820  0.2548
  783loPI   C4A12194  13.399   0.438   7.631  0.2646 -0.1504  0.0221
  783loPI   C5A12195  13.323   0.759   7.876  0.1598  0.0557 -0.1600
  783loPI   C6A12196  13.268   1.230   7.878 -0.0888  0.4925  0.0390
  783loPI   C1B12197  13.642   0.630   6.368  0.1941 -0.1767 -0.1089
  783loPI   C2B12198  13.284   0.704   6.644 -0.0793 -0.2373  0.0212
  783loPI   C3B12199  13.175   0.716   7.026  0.0246 -0.1214 -0.2863
  783loPI   C4B12200  13.290   0.905   7.338 -0.1206 -0.1097 -0.3643
  784loPI    C112201  14.788   9.300   5.400 -0.0501  0.0371  0.1736
  784loPI    C212202  15.122   9.518   5.424  0.0414 -0.0708 -0.0909
  784loPI    C312203  14.889   9.544   5.100 -0.1217 -0.1181  0.0214
  784loPI   PO412204  14.683   9.336   5.666  0.0721  0.1337  0.2692
  784loPI   GL112205  14.773   9.560   5.911  0.2579  0.3711  0.3258
  784loPI   GL212206  14.541   9.836   5.940 -0.0452 -0.1040 -0.6523
  784loPI   C1A12207  14.930   9.773   6.301 -0.0329 -0.0064  0.1274
  784loPI   C2A12208  14.865   9.734   6.758  0.0303  0.0066 -0.2602
  784loPI   C3A12209  14.728   9.889   7.171  0.0035  0.1388 -0.0729
  784loPI   C4A12210  14.519  10.078   7.544 -0.0934 -0.1826 -0.0307
  784loPI   C5A12211  14.130  10.112   7.900 -0.1788  0.1548  0.0414
  784loPI   C6A12212  14.125   9.909   8.251  0.0988 -0.0205  0.2230
  784loPI   C1B12213  14.410   9.641   6.359 -0.1903 -0.2871  0.0633
  784loPI   C2B12214  14.292   9.515   6.757 -0.3494 -0.0596  0.0713
  784loPI   C3B12215  14.415   9.517   7.200  0.0828  0.0160 -0.4324
  784loPI   C4B12216  14.442   9.377   7.648  0.1605 -0.0488 -0.0189
  785loPI    C112217   8.857  11.997   5.690  0.2564  0.0805 -0.0214
  785loPI    C212218   9.123  11.794   5.909  0.1440  0.1473  0.1797
  785loPI    C312219   9.129  11.766   5.510  0.0873 -0.3054  0.2060
  785loPI   PO412220   8.680  12.035   5.840 -0.0212  0.1811  0.0639
  785loPI   GL112221   8.647  12.154   6.214 -0.2152  0.1439 -0.0201
  785loPI   GL212222   8.414  12.062   6.427 -0.0944  0.3871  0.0534
  785loPI   C1A12223   8.864  12.383   6.528 -0.0372 -0.1463 -0.3593
  785loPI   C2A12224   8.759  12.496   6.910  0.0330 -0.2204  0.2467
  785loPI   C3A12225   8.692  12.380   7.256 -0.2906  0.0699 -0.3075
  785loPI   C4A12226   8.954  12.034   7.377  0.0630  0.0780  0.2360
  785loPI   C5A12227   9.228  11.733   7.264 -0.0405 -0.1486 -0.1524
  785loPI   C6A12228   9.531  11.316   7.087 -0.0001  0.1792 -0.0052
  785loPI   C1B12229   8.393  12.449   6.568 -0.3671 -0.2578 -0.1832
  785loPI   C2B12230   8.234  12.610   6.991 -0.4212  0.2082 -0.0162
  785loPI   C3B12231   8.336  12.717   7.436  0.2707 -0.2300 -0.0835
  785loPI   C4B12232   8.550  12.518   7.764 -0.2355  0.0745  0.1610
  786loPI    C112233  17.611   3.651   5.447 -0.0358  0.1451  0.1560
  786loPI    C212234  17.906   3.508   5.218  0.0138  0.1696  0.2042
  786loPI    C312235  17.583   3.284   5.292  0.1009  0.0739  0.2970
  786loPI   PO412236  17.823   3.789   5.651 -0.1014  0.0424 -0.2970
  786loPI   GL112237  18.230   3.808   6.015 -0.1691 -0.2230 -0.1363
  786loPI   GL212238  18.427   4.003   5.882 -0.1721  0.0514 -0.1000
  786loPI   C1A12239  18.038   3.885   6.465  0.0019 -0.0708  0.1110
  786loPI   C2A12240  17.889   3.717   6.758  0.0445  0.3395  0.1335
  786loPI   C3A12241  18.022   3.852   7.093 -0.0016 -0.2641 -0.0388
  786loPI   C4A12242  17.950   3.625   7.504  0.0018 -0.1813 -0.2999
  786loPI   C5A12243  18.203   3.357   7.716 -0.0351 -0.0500 -0.0054
  786loPI   C6A12244  18.563   3.225   7.923  0.1135 -0.0700  0.1805
  786loPI   C1B12245  18.625   4.002   6.260  0.2259  0.0261 -0.0466
  786loPI   C2B12246  18.855   3.891   6.517  0.0442  0.0482 -0.1371
  786loPI   C3B12247  19.175   3.780   6.905  0.0306 -0.0252 -0.3634
  786loPI   C4B12248  19.360   3.890   7.213 -0.3895 -0.0432 -0.3198
  787loPI    C112249   2.525   4.351   5.040  0.1179 -0.0064  0.0034
  787loPI    C212250   2.615   4.559   4.710  0.2157 -0.1262 -0.0462
  787loPI    C312251   2.369   4.244   4.688  0.1027 -0.0435  0.0214
  787loPI   PO412252   2.564   4.548   5.249 -0.1563  0.2071  0.2344
  787loPI   GL112253   2.398   4.719   5.637 -0.2444 -0.1659  0.1215
  787loPI   GL212254   2.342   5.022   5.821 -0.0801 -0.0544  0.1111
  787loPI   C1A12255   2.319   4.631   6.152 -0.0681  0.0994  0.1598
  787loPI   C2A12256   2.217   4.653   6.579  0.1573  0.0768  0.0317
  787loPI   C3A12257   2.167   4.544   6.965  0.0281 -0.2289  0.1156
  787loPI   C4A12258   2.048   4.595   7.370  0.1844  0.1464  0.0719
  787loPI   C5A12259   1.798   4.840   7.761  0.1864 -0.2166  0.0038
  787loPI   C6A12260   1.706   5.176   7.983  0.3167 -0.2562  0.1586
  787loPI   C1B12261   2.160   5.151   6.219  0.2359  0.2453  0.1594
  787loPI   C2B12262   2.135   5.146   6.735  0.1705  0.3243  0.1037
  787loPI   C3B12263   2.159   5.125   7.074 -0.1381  0.0276  0.1303
  787loPI   C4B12264   2.243   5.065   7.564 -0.1493 -0.2286 -0.1706
  788loPI    C112265   5.970  15.344   4.784  0.0909  0.2018 -0.1467
  788loPI    C212266   5.712  15.525   4.537  0.0001  0.0480 -0.1656
  788loPI    C312267   5.754  15.127   4.526  0.1458  0.0604 -0.0744
  788loPI   PO412268   6.010  15.467   4.972 -0.1420 -0.2929 -0.0587
  788loPI   GL112269   5.899  15.580   5.403  0.0269  0.1686  0.1670
  788loPI   GL212270   5.930  15.800   5.724 -0.4791 -0.2527  0.0098
  788loPI   C1A12271   5.983  15.265   5.811  0.0317  0.0909  0.0223
  788loPI   C2A12272   5.963  15.193   6.176 -0.0059 -0.0706 -0.1280
  788loPI   C3A12273   5.899  15.162   6.612 -0.0492  0.2327 -0.1346
  788loPI   C4A12274   5.878  15.348   6.980  0.1584 -0.2616 -0.0656
  788loPI   C5A12275   5.849  15.358   7.318  0.0794 -0.0233 -0.0781
  788loPI   C6A12276   5.751  15.414   7.720 -0.0205 -0.0017  0.0173
  788loPI   C1B12277   5.771  15.816   6.119 -0.0881  0.0240  0.3303
  788loPI   C2B12278   5.723  15.741   6.549  0.1155 -0.3428 -0.2140
  788loPI   C3B12279   5.577  15.766   7.002  0.1715  0.0540  0.1475
  788loPI   C4B12280   5.469  15.749   7.385 -0.0367  0.0143  0.1582
  789loPI    C112281  14.390   1.016   5.633  0.0190 -0.0340 -0.0038
  789loPI    C212282  14.555   0.686   5.789  0.0840  0.0122  0.0253
  789loPI    C312283  14.623   0.782   5.407  0.0048 -0.0479 -0.0041
  789loPI   PO412284  14.325   1.157   5.820 -0.0086 -0.1834  0.3631
  789loPI   GL112285  14.365   1.396   6.186 -0.0337  0.2456  0.1777
  789loPI   GL212286  14.040   1.678   6.177  0.2525 -0.3710 -0.0731
  789loPI   C1A12287  14.391   1.215   6.573  0.1548  0.1389 -0.1363
  789loPI   C2A12288  14.303   1.198   7.003 -0.3513  0.0879 -0.0128
  789loPI   C3A12289  14.133   1.268   7.419 -0.2570 -0.0788 -0.2208
  789loPI   C4A12290  14.164   1.194   7.820  0.0760 -0.1448 -0.0311
  789loPI   C5A12291  13.813   1.042   8.088  0.0002  0.0947 -0.4125
  789loPI   C6A12292  13.826   1.371   8.371  0.1032  0.2473 -0.1214
  789loPI   C1B12293  14.030   1.681   6.694  0.1312 -0.3362  0.0401
  789loPI   C2B12294  13.894   1.729   7.046 -0.0041  0.2558 -0.0133
  789loPI   C3B12295  13.908   1.905   7.450 -0.1608  0.1442 -0.1298
  789loPI   C4B12296  13.985   2.253   7.718 -0.2556 -0.1565 -0.1864
  790loPI    C112297   2.512   2.294   5.544  0.3014 -0.1588 -0.0101
  790loPI    C212298   2.322   2.615   5.401  0.0545 -0.2497  0.1071
  790loPI    C312299   2.708   2.556   5.314  0.0986  0.0690  0.0723
  790loPI   PO412300   2.407   2.066   5.512 -0.0317  0.1498  0.0478
  790loPI   GL112301   2.166   1.756   5.803  0.1299 -0.3198  0.0868
  790loPI   GL212302   1.758   1.809   5.739  0.1891 -0.0822 -0.1020
  790loPI   C1A12303   2.183   1.629   6.316 -0.2984 -0.1691 -0.1322
  790loPI   C2A12304   2.205   1.694   6.763  0.4113  0.1423 -0.1812
  790loPI   C3A12305   2.152   1.729   7.135  0.0525  0.1329  0.1107
  790loPI   C4A12306   2.173   1.857   7.496  0.1831 -0.0459 -0.0217
  790loPI   C5A12307   2.189   1.805   7.936  0.0783 -0.3594 -0.2373
  790loPI   C6A12308   1.847   2.013   8.145 -0.0350 -0.1047  0.2023
  790loPI   C1B12309   1.700   1.738   6.225  0.1586 -0.2881  0.0312
  790loPI   C2B12310   1.732   1.822   6.576  0.1437 -0.1411  0.0612
  790loPI   C3B12311   1.618   1.783   7.044 -0.0941  0.1154 -0.1967
  790loPI   C4B12312   1.658   1.822   7.496  0.1337  0.1448 -0.0836
  791loPI    C112313  15.964  17.125   5.477 -0.0413 -0.1141 -0.5185
  791loPI    C212314  15.933  17.489   5.641  0.1204 -0.3104 -0.0337
  791loPI    C312315  15.677  17.375   5.356 -0.1663  0.0455  0.0749
  791loPI   PO412316  16.036  17.010   5.709  0.1088  0.1020 -0.2531
  791loPI   GL112317  16.078  17.229   6.066 -0.1635  0.3625  0.0540
  791loPI   GL212318  15.732  17.072   6.121 -0.1152 -0.1266  0.3187
  791loPI   C1A12319  16.163  17.403   6.413 -0.0983 -0.1016 -0.2745
  791loPI   C2A12320  16.125  17.284   6.773 -0.2138 -0.0745  0.0980
  791loPI   C3A12321  15.916  17.266   7.021  0.0768 -0.0732  0.0182
  791loPI   C4A12322  15.939  17.452   7.505 -0.0436  0.2481  0.1265
  791loPI   C5A12323  15.737  17.496   7.895  0.1489 -0.0129  0.2080
  791loPI   C6A12324  15.394  17.569   8.203  0.2393  0.3687 -0.0961
  791loPI   C1B12325  15.727  17.124   6.536  0.0990  0.2038 -0.1179
  791loPI   C2B12326  15.467  17.146   6.798  0.0247  0.2127  0.1783
  791loPI   C3B12327  15.178  17.134   7.172 -0.0464  0.1394  0.1668
  791loPI   C4B12328  15.032  16.860   7.459  0.0857  0.2318  0.1344
  792loPI    C112329   0.395  14.088   5.521 -0.0375 -0.3173 -0.0294
  792loPI    C212330   0.549  13.719   5.530  0.3519 -0.1687 -0.3252
  792loPI    C312331   0.684  13.986   5.264  0.1395  0.2172 -0.0556
  792loPI   PO412332   0.450  14.250   5.658 -0.2387 -0.0578  0.0562
  792loPI   GL112333   0.392  14.309   6.076  0.0172  0.2176  0.4403
  792loPI   GL212334   0.356  14.612   6.055 -0.1911  0.0085 -0.0428
  792loPI   C1A12335   0.272  14.337   6.504 -0.2116 -0.1964 -0.0778
  792loPI   C2A12336   0.255  14.772   6.830 -0.0111 -0.2939  0.0426
  792loPI   C3A12337   0.129  14.985   7.208  0.0066  0.3245 -0.0341
  792loPI   C4A12338   0.122  15.061   7.675  0.0001  0.0937  0.0498
  792loPI   C5A12339  -0.214  15.078   7.942 -0.1886  0.0194  0.0458
  792loPI   C6A12340  -0.335  15.451   8.098  0.0372  0.1452 -0.3004
  792loPI   C1B12341   0.630  14.678   6.376 -0.0878 -0.0060  0.3501
  792loPI   C2B12342   0.744  14.622   6.858  0.0698  0.1249 -0.1951
  792loPI   C3B12343   0.735  14.789   7.257 -0.2019 -0.0659 -0.1498
  792loPI   C4B12344   0.852  14.847   7.681 -0.0112  0.3874  0.0680
  793loPI    C112345   9.662  17.177   5.105 -0.2268 -0.0132 -0.0767
  793loPI    C212346   9.710  17.519   4.904 -0.3565  0.1099  0.0993
  793loPI    C312347   9.681  17.173   4.705  0.0010  0.1723 -0.0698
  793loPI   PO412348   9.873  17.179   5.316 -0.0225  0.1068  0.3511
  793loPI   GL112349   9.948  17.480   5.684 -0.1507  0.2631 -0.0443
  793loPI   GL212350   9.816  17.293   5.822  0.1800  0.0959  0.1507
  793loPI   C1A12351   9.979  17.686   6.082 -0.2386 -0.2352 -0.0806
  793loPI   C2A12352   9.883  17.750   6.425 -0.2211  0.0092  0.1647
  793loPI   C3A12353   9.841  17.769   6.831  0.2461  0.3988  0.1383
  793loPI   C4A12354   9.826  17.759   7.253 -0.0092 -0.1043  0.2266
  793loPI   C5A12355   9.694  17.626   7.627 -0.1929 -0.0993 -0.3614
  793loPI   C6A12356   9.471  17.328   7.851  0.2656  0.2054  0.0070
  793loPI   C1B12357   9.627  17.371   6.240 -0.0855 -0.0353 -0.0815
  793loPI   C2B12358   9.520  17.439   6.610 -0.0970 -0.2552 -0.1374
  793loPI   C3B12359   9.557  17.356   7.007 -0.0234 -0.3407 -0.1613
  793loPI   C4B12360   9.502  17.280   7.378 -0.1680  0.1542 -0.0792
  794loPI    C112361   7.491  15.878   4.964 -0.1329 -0.4773 -0.1500
  794loPI    C212362   7.289  16.094   4.694  0.1757  0.2633  0.1852
  794loPI    C312363   7.589  15.857   4.577 -0.1000  0.0857 -0.1802
  794loPI   PO412364   7.264  15.678   5.138  0.1319  0.1656  0.1992
  794loPI   GL112365   7.151  15.467   5.664 -0.1928  0.2258  0.3896
  794loPI   GL212366   7.366  15.582   5.585  0.0434  0.2364  0.0449
  794loPI   C1A12367   6.816  15.552   5.998  0.1827 -0.1767  0.1692
  794loPI   C2A12368   6.728  15.656   6.332 -0.0234 -0.1064 -0.3205
  794loPI   C3A12369   6.779  15.743   6.747 -0.0136  0.2622  0.3640
  794loPI   C4A12370   6.681  15.768   7.180 -0.1100  0.0319 -0.1991
  794loPI   C5A12371   6.588  15.698   7.576 -0.1255 -0.0469  0.2075
  794loPI   C6A12372   6.637  15.538   8.014 -0.3302 -0.0672 -0.1471
  794loPI   C1B12373   7.289  15.896   5.890 -0.1282 -0.1174 -0.1203
  794loPI   C2B12374   7.152  15.941   6.277  0.2185  0.0443 -0.2366
  794loPI   C3B12375   7.187  16.117   6.631 -0.1466 -0.1950 -0.2816
  794loPI   C4B12376   6.805  16.285   7.006 -0.1760 -0.0126  0.0594
  795loPI    C112377   5.073   2.923   5.055  0.0181  0.0799 -0.0593
  795loPI    C212378   5.343   2.657   4.928  0.1083  0.1339  0.0189
  795loPI    C312379   5.312   3.012   4.747 -0.0298  0.0608 -0.1020
  795loPI   PO412380   5.120   2.951   5.287 -0.0969 -0.0687 -0.0825
  795loPI   GL112381   5.207   3.221   5.614 -0.2269  0.1375  0.0119
  795loPI   GL212382   5.184   3.493   5.622 -0.2018 -0.1442 -0.2383
  795loPI   C1A12383   5.367   3.120   5.994  0.1106  0.1572  0.3350
  795loPI   C2A12384   5.450   3.096   6.418 -0.1393 -0.2988  0.3807
  795loPI   C3A12385   5.463   3.099   6.852 -0.1630  0.0639 -0.1168
  795loPI   C4A12386   5.489   2.989   7.238 -0.1885 -0.5471  0.1065
  795loPI   C5A12387   5.289   3.093   7.574  0.1482  0.2434  0.2062
  795loPI   C6A12388   5.135   2.978   7.936 -0.0552  0.1421 -0.0565
  795loPI   C1B12389   5.324   3.606   5.969  0.3220  0.0319 -0.0064
  795loPI   C2B12390   5.361   3.561   6.254  0.1064 -0.1966  0.3888
  795loPI   C3B12391   5.350   3.545   6.679 -0.1244 -0.0470 -0.1308
  795loPI   C4B12392   5.409   3.526   7.157 -0.0865  0.1581 -0.0131
  796loPI    C112393  12.678  14.345   5.234 -0.2024 -0.3068  0.1024
  796loPI    C212394  12.370  14.433   4.995 -0.1328  0.0724  0.1460
  796loPI    C312395  12.729  14.595   4.926 -0.0067 -0.1563  0.2545
  796loPI   PO412396  12.617  14.441   5.467 -0.0127 -0.1418 -0.0670
  796loPI   GL112397  12.444  14.783   5.732  0.1620 -0.2911  0.0059
  796loPI   GL212398  12.162  14.897   5.885  0.2192  0.1844 -0.2794
  796loPI   C1A12399  12.548  15.166   6.087  0.1496 -0.0043  0.2573
  796loPI   C2A12400  12.440  15.290   6.495 -0.2017 -0.0083  0.0526
  796loPI   C3A12401  12.480  15.196   6.863  0.0371  0.0650  0.1040
  796loPI   C4A12402  12.434  15.265   7.327  0.2221 -0.0473 -0.0881
  796loPI   C5A12403  12.428  15.171   7.656  0.1017  0.0529  0.0991
  796loPI   C6A12404  12.401  14.894   7.946 -0.1945  0.3335  0.1655
  796loPI   C1B12405  12.181  14.925   6.271  0.1099  0.0059  0.1168
  796loPI   C2B12406  12.167  14.830   6.693  0.1628  0.0614  0.3136
  796loPI   C3B12407  12.206  14.824   7.130 -0.0215  0.1297  0.0452
  796loPI   C4B12408  12.077  14.824   7.515  0.1384 -0.1543  0.0301
  797loPI    C112409   3.634  17.319   5.093 -0.1389 -0.2439 -0.1786
  797loPI    C212410   3.736  17.314   4.706 -0.0487 -0.2737 -0.1547
  797loPI    C312411   3.350  17.298   4.812 -0.0961  0.1193 -0.2539
  797loPI   PO412412   3.915  17.326   5.209  0.1738  0.1340 -0.1207
  797loPI   GL112413   4.015  17.402   5.515 -0.0069 -0.0784 -0.0279
  797loPI   GL212414   4.184  17.721   5.571 -0.0540  0.1414  0.1702
  797loPI   C1A12415   3.827  17.473   5.890  0.1903  0.4463  0.0696
  797loPI   C2A12416   3.718  17.548   6.306  0.0299  0.1329  0.0199
  797loPI   C3A12417   3.605  17.638   6.748 -0.0601 -0.3404 -0.3238
  797loPI   C4A12418   3.573  17.649   7.229 -0.2296 -0.1754  0.1331
  797loPI   C5A12419   3.580  17.712   7.686  0.1913 -0.2441  0.2632
  797loPI   C6A12420   3.660  17.611   8.156 -0.0775  0.5423 -0.1884
  797loPI   C1B12421   4.076  17.849   6.013 -0.1510  0.2386  0.0197
  797loPI   C2B12422   4.036  17.940   6.403  0.0736  0.3390 -0.1103
  797loPI   C3B12423   4.001  17.927   6.858  0.0674 -0.0994  0.0304
  797loPI   C4B12424   3.929  18.044   7.319 -0.2452 -0.0351  0.2461
  798loPI    C112425  12.133  14.628   5.388 -0.1077 -0.3737  0.1201
  798loPI    C212426  11.765  14.774   5.328 -0.0751 -0.3285  0.0280
  798loPI    C312427  12.070  15.022   5.401 -0.0023 -0.3422 -0.2207
  798loPI   PO412428  12.086  14.456   5.594 -0.0727 -0.1538  0.0547
  798loPI   GL112429  11.756  14.523   5.993  0.0800  0.4833  0.0243
  798loPI   GL212430  11.692  14.711   5.807  0.0413  0.0911 -0.0728
  798loPI   C1A12431  11.844  14.456   6.416  0.0404 -0.3454 -0.2586
  798loPI   C2A12432  11.884  14.401   6.786  0.2885 -0.2274  0.5611
  798loPI   C3A12433  11.858  14.464   7.248 -0.0439  0.0825 -0.0469
  798loPI   C4A12434  11.698  14.308   7.624  0.1757 -0.0216  0.1054
  798loPI   C5A12435  11.532  14.279   7.995  0.0028 -0.0702 -0.0014
  798loPI   C6A12436  11.213  14.329   8.280 -0.3619 -0.0183  0.0711
  798loPI   C1B12437  11.614  14.910   6.266  0.2261 -0.2213  0.2329
  798loPI   C2B12438  11.596  14.862   6.743  0.1105 -0.1966  0.0016
  798loPI   C3B12439  11.568  14.887   7.158  0.1802  0.0292  0.3025
  798loPI   C4B12440  11.570  14.833   7.614  0.0410 -0.3411  0.1527
  799loPI    C112441   2.110   9.077   5.024  0.2465  0.0680  0.0761
  799loPI    C212442   2.257   9.024   4.655 -0.0777  0.1564 -0.0693
  799loPI    C312443   1.922   8.835   4.767  0.0198  0.1282  0.1826
  799loPI   PO412444   2.369   8.986   5.184  0.0632  0.0784 -0.0368
  799loPI   GL112445   2.515   8.830   5.560  0.1403  0.0948  0.0541
  799loPI   GL212446   2.857   8.789   5.611  0.0351 -0.2144  0.1206
  799loPI   C1A12447   2.435   8.965   6.041 -0.3256 -0.2652  0.2366
  799loPI   C2A12448   2.603   8.977   6.459  0.0170  0.2070  0.1096
  799loPI   C3A12449   2.727   8.989   6.896 -0.0714  0.0276 -0.0901
  799loPI   C4A12450   2.716   9.043   7.315 -0.1940 -0.0373  0.0659
  799loPI   C5A12451   2.349   9.165   7.600  0.0633  0.1555 -0.1004
  799loPI   C6A12452   1.976   9.010   7.842  0.2133 -0.1853 -0.1332
  799loPI   C1B12453   2.891   8.929   5.927 -0.0509 -0.0384  0.1185
  799loPI   C2B12454   3.071   8.913   6.338 -0.0077  0.0612 -0.1464
  799loPI   C3B12455   3.230   8.922   6.696  0.0470 -0.1386 -0.0465
  799loPI   C4B12456   3.290   8.996   7.175  0.2386  0.1116  0.1300
  800loPI    C112457  12.795   5.112   5.236  0.0322 -0.0957 -0.1118
  800loPI    C212458  12.524   4.850   5.102 -0.2766  0.2283 -0.1341
  800loPI    C312459  12.850   4.930   4.884 -0.1713 -0.1436 -0.1197
  800loPI   PO412460  12.898   4.994   5.508 -0.5240  0.1274  0.2450
  800loPI   GL112461  13.000   5.169   5.924  0.0513 -0.2323 -0.0653
  800loPI   GL212462  12.641   5.122   6.093  0.0237 -0.0443 -0.3146
  800loPI   C1A12463  13.079   5.280   6.302 -0.5954  0.0663 -0.1279
  800loPI   C2A12464  12.994   5.244   6.709  0.1615  0.1689  0.3336
  800loPI   C3A12465  13.012   5.092   7.108 -0.0300 -0.1698  0.3086
  800loPI   C4A12466  13.159   4.943   7.441 -0.3020 -0.0003 -0.1243
  800loPI   C5A12467  13.219   5.210   7.758  0.0623 -0.0791 -0.0976
  800loPI   C6A12468  13.032   5.290   8.094 -0.1978 -0.2052  0.0608
  800loPI   C1B12469  12.545   5.043   6.486  0.0887 -0.2329  0.1695
  800loPI   C2B12470  12.213   4.921   6.744  0.1673  0.0469  0.3130
  800loPI   C3B12471  12.072   4.959   7.105 -0.0398  0.3624  0.1615
  800loPI   C4B12472  11.996   4.837   7.518  0.1709 -0.2666 -0.0136
  801loPI    C112473  13.519  14.174   5.521 -0.2608  0.1110 -0.2294
  801loPI    C212474  13.868  13.980   5.512 -0.3818 -0.1149 -0.1210
  801loPI    C312475  13.715  14.130   5.175  0.0151  0.3446 -0.1064
  801loPI   PO412476  13.565  14.217   5.797 -0.1379 -0.1640 -0.0109
  801loPI   GL112477  13.632  13.964   6.174  0.0517  0.1165  0.1286
  801loPI   GL212478  13.839  13.647   6.185 -0.0963  0.1501  0.1432
  801loPI   C1A12479  13.552  14.201   6.463  0.2836  0.0492  0.1633
  801loPI   C2A12480  13.571  14.275   6.882 -0.1785  0.0439  0.1278
  801loPI   C3A12481  13.480  14.205   7.332 -0.2856  0.0290 -0.0072
  801loPI   C4A12482  13.663  14.204   7.843 -0.1712 -0.3118  0.0329
  801loPI   C5A12483  13.831  14.268   8.282 -0.0916  0.0922  0.2635
  801loPI   C6A12484  14.041  14.504   8.582 -0.0857  0.0313 -0.1752
  801loPI   C1B12485  13.827  13.731   6.633  0.0551  0.1489 -0.0553
  801loPI   C2B12486  13.914  13.788   6.997  0.0074 -0.1618  0.0731
  801loPI   C3B12487  13.918  13.772   7.311 -0.0345  0.1508 -0.1542
  801loPI   C4B12488  13.982  13.794   7.788 -0.0583 -0.0476 -0.1579
  802loPI    C112489   1.915   1.551   4.895  0.0988  0.1435 -0.0920
  802loPI    C212490   1.624   1.324   4.741  0.0179  0.0684  0.1665
  802loPI    C312491   1.783   1.620   4.524 -0.0918 -0.0359 -0.0593
  802loPI   PO412492   2.116   1.331   4.989  0.2303 -0.0865  0.0000
  802loPI   GL112493   2.209   1.132   5.421 -0.1989  0.0329 -0.0871
  802loPI   GL212494   1.975   1.326   5.625  0.1133 -0.2617 -0.0084
  802loPI   C1A12495   2.417   1.155   5.932  0.0406 -0.3988 -0.0209
  802loPI   C2A12496   2.352   1.096   6.363  0.1582  0.1382 -0.0734
  802loPI   C3A12497   2.299   1.205   6.775  0.2339  0.0154  0.2343
  802loPI   C4A12498   2.244   1.170   7.155  0.1642 -0.0167 -0.0259
  802loPI   C5A12499   2.249   1.336   7.619  0.2001 -0.2480 -0.2511
  802loPI   C6A12500   2.440   1.159   7.947  0.1086  0.0534 -0.0850
  802loPI   C1B12501   1.885   1.234   6.020 -0.1596 -0.0152 -0.0615
  802loPI   C2B12502   1.765   1.326   6.476 -0.1969  0.4957  0.2367
  802loPI   C3B12503   1.823   1.367   6.979  0.1670  0.2201 -0.0338
  802loPI   C4B12504   1.683   1.349   7.409  0.2070  0.1055  0.0286
  803loPI    C112505  10.559   0.146   5.337 -0.1806 -0.0817  0.1579
  803loPI    C212506  10.872   0.371   5.441 -0.2066  0.0695 -0.0840
  803loPI    C312507  10.923   0.058   5.196 -0.2036 -0.0666  0.0888
  803loPI   PO412508  10.398   0.192   5.618 -0.1268 -0.0149  0.1855
  803loPI   GL112509  10.106   0.023   5.915 -0.0412  0.3195 -0.0231
  803loPI   GL212510  10.374  -0.140   5.970 -0.1341 -0.2325 -0.1385
  803loPI   C1A12511   9.833   0.024   6.127 -0.0678 -0.1427 -0.0205
  803loPI   C2A12512   9.746   0.054   6.507 -0.1634  0.1294  0.3167
  803loPI   C3A12513   9.600   0.018   6.951 -0.1965  0.0341 -0.1895
  803loPI   C4A12514   9.626   0.003   7.361  0.0927  0.2555  0.1494
  803loPI   C5A12515   9.365  -0.227   7.625  0.2576 -0.0629  0.1605
  803loPI   C6A12516   9.086  -0.534   7.806 -0.1064 -0.1410  0.1176
  803loPI   C1B12517  10.273  -0.094   6.366  0.1396 -0.3386  0.0445
  803loPI   C2B12518  10.150  -0.009   6.799 -0.1158  0.0827 -0.2853
  803loPI   C3B12519  10.159  -0.011   7.234  0.0377 -0.0056  0.1536
  803loPI   C4B12520  10.017  -0.136   7.603  0.1338 -0.2298 -0.1334
  804loPI    C112521   6.412   7.743   4.995  0.0398 -0.0817 -0.0302
  804loPI    C212522   6.708   7.622   5.236  0.1668  0.0596 -0.1137
  804loPI    C312523   6.515   7.357   5.007  0.0242 -0.0808  0.1648
  804loPI   PO412524   6.295   7.885   5.131  0.2322  0.1989 -0.0034
  804loPI   GL112525   6.159   8.058   5.520  0.3907  0.4198 -0.0520
  804loPI   GL212526   6.134   8.334   5.586  0.2822  0.0142  0.0895
  804loPI   C1A12527   6.120   7.960   5.929  0.3530 -0.0650 -0.2761
  804loPI   C2A12528   6.162   8.132   6.375 -0.0595  0.0207  0.2993
  804loPI   C3A12529   6.145   8.026   6.865  0.0555  0.2537 -0.2317
  804loPI   C4A12530   6.152   7.936   7.295  0.0376 -0.0765 -0.1681
  804loPI   C5A12531   6.390   7.961   7.608  0.0858  0.0938  0.1739
  804loPI   C6A12532   6.650   7.754   7.933 -0.0705 -0.3007  0.0867
  804loPI   C1B12533   6.085   8.463   5.945  0.1390 -0.1523  0.0601
  804loPI   C2B12534   6.064   8.677   6.319 -0.0807 -0.0379 -0.0889
  804loPI   C3B12535   5.944   8.674   6.812  0.2920  0.0027  0.2054
  804loPI   C4B12536   6.026   8.561   7.263  0.2078  0.1243 -0.1021
  805loPI    C112537  15.295  16.507   5.804 -0.2188 -0.1398 -0.0365
  805loPI    C212538  15.127  16.790   5.576 -0.2227 -0.0903  0.0274
  805loPI    C312539  15.320  16.484   5.406  0.2325  0.2233 -0.0388
  805loPI   PO412540  15.473  16.642   6.039  0.0152 -0.1276 -0.0168
  805loPI   GL112541  15.639  16.358   6.503 -0.1178  0.1561 -0.0604
  805loPI   GL212542  15.670  16.055   6.704 -0.2910 -0.2737  0.0142
  805loPI   C1A12543  15.716  16.675   6.864  0.0505 -0.0614 -0.0319
  805loPI   C2A12544  15.688  16.852   7.328 -0.2342 -0.0338  0.0776
  805loPI   C3A12545  15.601  16.754   7.687 -0.1800 -0.0159  0.1922
  805loPI   C4A12546  15.314  16.533   7.937  0.2587  0.2259  0.1209
  805loPI   C5A12547  14.899  16.637   7.982 -0.0632  0.0154  0.1018
  805loPI   C6A12548  14.638  16.865   8.293 -0.1499  0.0524 -0.0761
  805loPI   C1B12549  15.726  15.944   7.080  0.0597 -0.2009  0.0205
  805loPI   C2B12550  15.552  15.698   7.439 -0.1999  0.3685  0.1376
  805loPI   C3B12551  15.557  15.208   7.655  0.1654 -0.1598 -0.3481
  805loPI   C4B12552  15.727  14.970   7.971  0.0277  0.1140 -0.0802
  806loPI    C112553   3.767   0.100   4.565 -0.1492 -0.2257 -0.0782
  806loPI    C212554   3.777  -0.200   4.301  0.0222 -0.2752 -0.0168
  806loPI    C312555   3.749   0.178   4.173  0.2402 -0.2905 -0.1132
  806loPI   PO412556   3.874  -0.007   4.822  0.0829  0.0175  0.0436
  806loPI   GL112557   3.640   0.002   5.266 -0.1223 -0.0355 -0.0625
  806loPI   GL212558   3.317   0.023   5.370  0.1501  0.1592 -0.2502
  806loPI   C1A12559   3.536   0.246   5.753 -0.2017  0.2757 -0.2660
  806loPI   C2A12560   3.438   0.332   6.150  0.1487  0.0387  0.1064
  806loPI   C3A12561   3.403   0.381   6.561  0.0362  0.1089 -0.3027
  806loPI   C4A12562   3.364   0.416   6.969 -0.1518 -0.2846  0.2290
  806loPI   C5A12563   3.379   0.442   7.378  0.0877 -0.0788  0.0924
  806loPI   C6A12564   3.264   0.362   7.752 -0.0044 -0.2395  0.0291
  806loPI   C1B12565   3.137  -0.037   5.838 -0.0260 -0.0609 -0.1572
  806loPI   C2B12566   3.091  -0.001   6.225 -0.0918 -0.0288 -0.0969
  806loPI   C3B12567   3.038   0.029   6.594  0.4859 -0.0859 -0.1079
  806loPI   C4B12568   2.965   0.089   7.077  0.0143  0.1259 -0.2761
  807loPI    C112569   6.549   6.620   4.990  0.1763 -0.2321  0.0026
  807loPI    C212570   6.756   6.700   4.657 -0.0506 -0.0406 -0.0959
  807loPI    C312571   6.506   6.388   4.667 -0.2295  0.0982 -0.1904
  807loPI   PO412572   6.615   6.869   5.117 -0.1287 -0.2377  0.1154
  807loPI   GL112573   6.693   7.064   5.490 -0.0971 -0.0046 -0.0805
  807loPI   GL212574   6.930   7.316   5.550  0.1689 -0.1148 -0.2069
  807loPI   C1A12575   6.497   7.005   5.975 -0.1195  0.0402  0.1856
  807loPI   C2A12576   6.417   7.101   6.306 -0.2301 -0.1944 -0.0136
  807loPI   C3A12577   6.325   6.987   6.788 -0.2305  0.3543 -0.0127
  807loPI   C4A12578   6.317   6.952   7.242  0.0790  0.1056  0.0526
  807loPI   C5A12579   6.373   6.836   7.733 -0.0581 -0.1340 -0.1934
  807loPI   C6A12580   6.348   6.947   8.189  0.0945  0.1016 -0.2041
  807loPI   C1B12581   6.856   7.372   6.025  0.2238  0.0161  0.1121
  807loPI   C2B12582   6.776   7.421   6.475  0.1715 -0.0327  0.0524
  807loPI   C3B12583   6.749   7.385   6.946 -0.2203 -0.1320 -0.0083
  807loPI   C4B12584   6.649   7.269   7.377  0.3872  0.0415 -0.2344
  808loPI    C112585   4.457  12.798   5.335  0.3464 -0.0627 -0.1706
  808loPI    C212586   4.428  12.421   5.467 -0.1792 -0.0573 -0.2525
  808loPI    C312587   4.575  12.495   5.102  0.0184 -0.1736 -0.1976
  808loPI   PO412588   4.250  12.937   5.567 -0.0895 -0.1352 -0.1729
  808loPI   GL112589   4.300  13.306   5.794  0.0011 -0.2817 -0.1286
  808loPI   GL212590   4.575  13.335   5.704 -0.1913  0.0807 -0.0284
  808loPI   C1A12591   4.273  13.274   6.193 -0.1953  0.4073  0.0827
  808loPI   C2A12592   4.289  13.222   6.726 -0.2174 -0.2608  0.2037
  808loPI   C3A12593   4.297  13.125   7.120 -0.0341  0.2429  0.3226
  808loPI   C4A12594   4.232  12.941   7.556 -0.1892  0.0069 -0.3402
  808loPI   C5A12595   4.224  12.524   7.817 -0.1543 -0.0549  0.2945
  808loPI   C6A12596   4.448  12.435   8.148  0.2367  0.2664 -0.2837
  808loPI   C1B12597   4.788  13.231   6.116  0.0983 -0.0072  0.2980
  808loPI   C2B12598   4.742  13.235   6.557  0.0897 -0.0622 -0.0883
  808loPI   C3B12599   4.752  13.069   6.989  0.2013 -0.0628  0.1166
  808loPI   C4B12600   4.680  13.036   7.436  0.1231  0.1343 -0.1205
  809loPI    C112601  17.677  13.684   5.220  0.1487  0.1365  0.0717
  809loPI    C212602  17.557  14.065   5.201  0.1832  0.1374 -0.1507
  809loPI    C312603  17.430  13.801   4.929 -0.0356 -0.0673  0.1428
  809loPI   PO412604  17.567  13.591   5.505  0.0385 -0.3033 -0.2251
  809loPI   GL112605  17.757  13.739   5.921 -0.0263 -0.2281 -0.6744
  809loPI   GL212606  17.960  13.564   5.986 -0.0904  0.4866  0.1887
  809loPI   C1A12607  17.712  13.682   6.438 -0.1826 -0.1572  0.0593
  809loPI   C2A12608  17.650  13.657   6.901 -0.1012 -0.0400 -0.0970
  809loPI   C3A12609  17.554  13.487   7.224  0.1630  0.0826  0.4025
  809loPI   C4A12610  17.699  13.628   7.617  0.0604 -0.1253 -0.2133
  809loPI   C5A12611  17.959  13.876   7.903  0.0879 -0.3453 -0.2479
  809loPI   C6A12612  17.956  13.898   8.357  0.2986 -0.2405  0.1405
  809loPI   C1B12613  18.204  13.600   6.387 -0.2495 -0.2047  0.1217
  809loPI   C2B12614  18.117  13.525   6.808  0.2516 -0.4710  0.1419
  809loPI   C3B12615  18.077  13.408   7.207 -0.0116 -0.0903 -0.1291
  809loPI   C4B12616  18.102  13.333   7.675  0.0557  0.1113  0.0174
  810loPI    C112617   2.765   8.419   5.292 -0.0653 -0.0459  0.1500
  810loPI    C212618   3.116   8.594   5.210 -0.0797 -0.0853  0.0031
  810loPI    C312619   2.777   8.743   5.058 -0.0928 -0.2370 -0.1202
  810loPI   PO412620   2.743   8.129   5.347 -0.0977  0.0608 -0.2972
  810loPI   GL112621   2.979   7.888   5.681 -0.0347 -0.0540 -0.0144
  810loPI   GL212622   2.687   7.811   5.668 -0.2174 -0.1927 -0.0498
  810loPI   C1A12623   2.904   8.072   6.045  0.0545  0.3779 -0.1655
  810loPI   C2A12624   2.895   7.989   6.429  0.0557 -0.1118 -0.1393
  810loPI   C3A12625   2.960   8.101   6.950 -0.1157  0.0714 -0.1273
  810loPI   C4A12626   2.938   8.140   7.337  0.1503 -0.0835 -0.1369
  810loPI   C5A12627   3.073   8.104   7.784  0.1955  0.2519 -0.1803
  810loPI   C6A12628   3.359   8.110   8.187 -0.0969  0.2776 -0.1595
  810loPI   C1B12629   2.563   7.589   6.137  0.1002 -0.1868 -0.2655
  810loPI   C2B12630   2.676   7.321   6.481  0.0845 -0.2036  0.2157
  810loPI   C3B12631   2.738   7.240   6.961  0.2904  0.0471  0.3335
  810loPI   C4B12632   2.787   7.253   7.441  0.0828 -0.1112 -0.1206
  811loPI    C112633   8.640   4.278   5.085 -0.0875  0.0399 -0.0225
  811loPI    C212634   8.307   4.463   5.208 -0.1769 -0.2078  0.1169
  811loPI    C312635   8.285   4.174   4.932 -0.0141  0.1246 -0.2534
  811loPI   PO412636   8.775   4.296   5.260 -0.0306  0.0546  0.0018
  811loPI   GL112637   8.632   4.208   5.723 -0.0189 -0.2146 -0.2884
  811loPI   GL212638   8.664   3.933   5.805 -0.2002 -0.0983 -0.0746
  811loPI   C1A12639   8.386   4.216   6.155  0.0838  0.0573  0.0298
  811loPI   C2A12640   8.418   4.088   6.590 -0.0499 -0.0766  0.1216
  811loPI   C3A12641   8.497   4.028   6.906 -0.2663 -0.1040 -0.0342
  811loPI   C4A12642   8.532   4.086   7.249  0.0413  0.1661 -0.4581
  811loPI   C5A12643   8.683   4.258   7.616  0.2223  0.0577 -0.1780
  811loPI   C6A12644   8.939   4.585   7.797 -0.6507 -0.1955  0.2634
  811loPI   C1B12645   8.960   4.094   6.150 -0.0638  0.1068  0.0967
  811loPI   C2B12646   8.884   3.956   6.581  0.0267  0.2078 -0.1463
  811loPI   C3B12647   9.016   3.885   6.983  0.3299 -0.1248  0.1361
  811loPI   C4B12648   9.048   3.973   7.380 -0.0609 -0.1104 -0.0359
  812loPI    C112649   0.141   3.549   5.561  0.1916  0.1650  0.3552
  812loPI    C212650   0.202   3.678   5.187 -0.1113 -0.1715  0.1822
  812loPI    C312651   0.469   3.761   5.474  0.0879  0.1537 -0.0886
  812loPI   PO412652   0.108   3.213   5.473  0.0038 -0.3699  0.0519
  812loPI   GL112653   0.115   2.873   5.756 -0.0106  0.1765  0.0743
  812loPI   GL212654   0.080   3.217   5.976  0.0138 -0.2286 -0.1850
  812loPI   C1A12655   0.129   2.753   6.189 -0.3726 -0.1369  0.6821
  812loPI   C2A12656   0.062   2.727   6.613 -0.1294 -0.1458  0.0129
  812loPI   C3A12657  -0.012   2.790   6.968  0.0463 -0.1856 -0.2280
  812loPI   C4A12658   0.083   2.733   7.375  0.3310 -0.0546 -0.2562
  812loPI   C5A12659   0.081   2.843   7.778 -0.1520  0.1559  0.0994
  812loPI   C6A12660  -0.238   2.984   8.049  0.2602 -0.1230  0.0592
  812loPI   C1B12661   0.007   3.190   6.394 -0.3154 -0.3466 -0.4103
  812loPI   C2B12662  -0.048   3.246   6.821  0.0192 -0.2596  0.1616
  812loPI   C3B12663  -0.087   3.205   7.228  0.0883  0.1180 -0.0580
  812loPI   C4B12664  -0.338   3.002   7.581  0.1193 -0.1377  0.0172
  813loPI    C112665   0.042   9.761   5.157  0.0583  0.0578  0.0049
  813loPI    C212666   0.113   9.695   4.769 -0.0535  0.2670 -0.0529
  813loPI    C312667   0.084  10.070   4.905 -0.0409  0.1940  0.1536
  813loPI   PO412668  -0.144   9.505   5.228 -0.0583  0.1334  0.0037
  813loPI   GL112669  -0.118   9.314   5.620  0.1822  0.2813 -0.1988
  813loPI   GL212670  -0.366   9.494   5.805  0.1982 -0.0439  0.0372
  813loPI   C1A12671   0.006   9.280   6.100 -0.0506  0.1358  0.1114
  813loPI   C2A12672  -0.069   9.154   6.556 -0.0339 -0.2092  0.2176
  813loPI   C3A12673  -0.110   9.290   7.039 -0.0671 -0.1173  0.1146
  813loPI   C4A12674  -0.100   9.206   7.457  0.2414 -0.0577  0.2483
  813loPI   C5A12675  -0.175   9.292   7.811  0.2974  0.0747 -0.2622
  813loPI   C6A12676  -0.062   9.265   8.337 -0.0469  0.1203  0.0343
  813loPI   C1B12677  -0.432   9.457   6.306  0.3445 -0.1888 -0.1466
  813loPI   C2B12678  -0.517   9.458   6.759 -0.1772  0.2519  0.0100
  813loPI   C3B12679  -0.571   9.439   7.122  0.0283  0.0728 -0.1634
  813loPI   C4B12680  -0.546   9.428   7.479 -0.0782  0.0470  0.0400
  814loPI    C112681   1.626  17.689   4.735  0.2008 -0.1791  0.2417
  814loPI    C212682   1.929  17.455   4.619  0.0535 -0.2285 -0.0525
  814loPI    C312683   1.551  17.344   4.548 -0.0198  0.0801 -0.1616
  814loPI   PO412684   1.715  17.726   5.015  0.1637 -0.0795 -0.0748
  814loPI   GL112685   1.818  17.719   5.371  0.2182 -0.1108  0.0685
  814loPI   GL212686   2.166  17.949   5.437  0.0076 -0.0198 -0.0729
  814loPI   C1A12687   1.851  17.606   5.791  0.1018  0.0550 -0.1639
  814loPI   C2A12688   1.990  17.566   6.214 -0.0937 -0.0774  0.1024
  814loPI   C3A12689   1.813  17.657   6.585  0.1878  0.0732  0.0855
  814loPI   C4A12690   1.811  17.663   7.033  0.3639  0.1375  0.0311
  814loPI   C5A12691   1.815  17.661   7.507 -0.0435  0.1313  0.3359
  814loPI   C6A12692   1.893  17.318   7.788  0.0278  0.1812  0.0854
  814loPI   C1B12693   2.258  17.904   5.888 -0.1471  0.2263  0.1930
  814loPI   C2B12694   2.260  17.995   6.420  0.1597 -0.2455  0.1544
  814loPI   C3B12695   2.175  18.002   6.792 -0.0747 -0.2063 -0.0599
  814loPI   C4B12696   2.164  17.996   7.230  0.0316 -0.1893  0.1907
  815loPI    C112697   7.045  14.910   5.219 -0.1500  0.0748  0.0824
  815loPI    C212698   7.184  15.159   4.938 -0.2284  0.1388  0.1002
  815loPI    C312699   6.855  14.942   4.868  0.0619 -0.2572 -0.0670
  815loPI   PO412700   7.043  15.017   5.390 -0.1333  0.1254  0.0698
  815loPI   GL112701   6.755  15.102   5.641  0.3517 -0.1867  0.1353
  815loPI   GL212702   6.936  15.061   5.885  0.0497 -0.0540 -0.1408
  815loPI   C1A12703   6.503  15.144   6.061  0.0128 -0.0495  0.0356
  815loPI   C2A12704   6.499  15.211   6.505  0.0172 -0.2334  0.2118
  815loPI   C3A12705   6.397  15.237   6.892  0.2145  0.1507  0.0257
  815loPI   C4A12706   6.340  15.404   7.294 -0.3232  0.0683  0.0340
  815loPI   C5A12707   6.485  15.245   7.631  0.1984  0.2264  0.0057
  815loPI   C6A12708   6.885  15.135   7.896 -0.0705  0.2334  0.1234
  815loPI   C1B12709   7.035  15.194   6.296  0.1851 -0.1446  0.0293
  815loPI   C2B12710   6.966  15.190   6.668  0.1862 -0.2296  0.0340
  815loPI   C3B12711   6.896  15.284   7.048  0.0486 -0.0238 -0.2084
  815loPI   C4B12712   6.982  15.439   7.363 -0.0441  0.1266 -0.2539
  816loPI    C112713   1.089   3.100   5.086  0.0126  0.2596 -0.0455
  816loPI    C212714   1.470   3.011   5.167 -0.0730 -0.1956 -0.1159
  816loPI    C312715   1.383   3.258   4.865  0.1694  0.0616  0.0188
  816loPI   PO412716   0.941   3.092   5.364 -0.0371  0.1493 -0.0851
  816loPI   GL112717   0.744   3.379   5.644 -0.1439 -0.3125 -0.0665
  816loPI   GL212718   0.536   3.172   5.699 -0.3254 -0.2114  0.0820
  816loPI   C1A12719   0.475   3.586   5.995  0.1146  0.2276 -0.0028
  816loPI   C2A12720   0.339   3.541   6.479  0.0022  0.2137  0.1085
  816loPI   C3A12721   0.342   3.717   6.840  0.0428 -0.1218  0.0810
  816loPI   C4A12722   0.259   3.595   7.246 -0.3053 -0.1290 -0.0749
  816loPI   C5A12723   0.406   3.679   7.628  0.2511  0.1946 -0.0505
  816loPI   C6A12724   0.664   3.638   8.061 -0.3156  0.0529 -0.0118
  816loPI   C1B12725   0.536   3.049   6.108  0.0256 -0.0459  0.0312
  816loPI   C2B12726   0.481   2.996   6.501 -0.0709  0.0495  0.2228
  816loPI   C3B12727   0.354   3.086   6.950  0.1333 -0.1787 -0.0190
  816loPI   C4B12728   0.402   3.102   7.386  0.0570 -0.1860  0.0611
  817loPI    C112729  16.813   2.516   5.477 -0.0173  0.0749  0.2857
  817loPI    C212730  16.424   2.556   5.392  0.0106  0.0092  0.1227
  817loPI    C312731  16.659   2.879   5.406  0.0195  0.0159 -0.1230
  817loPI   PO412732  16.830   2.307   5.663  0.1277 -0.1927  0.0243
  817loPI   GL112733  16.683   2.268   6.062  0.0748 -0.0780  0.0138
  817loPI   GL212734  16.416   2.009   6.167  0.1424  0.1200 -0.0862
  817loPI   C1A12735  16.734   2.159   6.503 -0.0334  0.1121 -0.0936
  817loPI   C2A12736  16.691   1.904   6.770  0.0205 -0.0715 -0.2972
  817loPI   C3A12737  16.700   2.094   7.186  0.0383 -0.1659 -0.1151
  817loPI   C4A12738  16.595   2.217   7.562 -0.1204 -0.0755  0.0729
  817loPI   C5A12739  16.588   2.292   7.920  0.1645 -0.0889 -0.0719
  817loPI   C6A12740  16.814   2.232   8.356 -0.0359 -0.0978  0.1097
  817loPI   C1B12741  16.019   2.152   6.459  0.1217 -0.0369 -0.1687
  817loPI   C2B12742  15.822   1.988   6.819 -0.1209  0.1953 -0.1936
  817loPI   C3B12743  15.749   1.953   7.248 -0.1182  0.1972  0.0250
  817loPI   C4B12744  15.615   2.019   7.652 -0.1110 -0.0651 -0.3514
  818loPI    C112745   3.589   6.215   5.014  0.1892 -0.1222 -0.0770
  818loPI    C212746   3.621   6.544   4.790 -0.2372  0.1604  0.2611
  818loPI    C312747   3.360   6.258   4.690  0.0449 -0.0242  0.0367
  818loPI   PO412748   3.831   6.089   5.023 -0.0872  0.1268  0.3677
  818loPI   GL112749   4.095   5.740   5.263 -0.0128  0.2618  0.1544
  818loPI   GL212750   4.276   5.991   5.432  0.1259  0.1102  0.2233
  818loPI   C1A12751   3.903   5.665   5.600  0.2332  0.1629  0.1394
  818loPI   C2A12752   3.561   5.545   5.857  0.0880 -0.3411 -0.1699
  818loPI   C3A12753   3.465   5.675   6.185 -0.3150 -0.1643 -0.0814
  818loPI   C4A12754   3.344   6.105   6.310 -0.1095  0.0121 -0.2934
  818loPI   C5A12755   3.403   6.154   6.736 -0.2541 -0.0481  0.2386
  818loPI   C6A12756   3.406   6.075   7.163 -0.1000 -0.2837  0.0750
  818loPI   C1B12757   4.342   5.859   5.854 -0.1401  0.0616  0.0396
  818loPI   C2B12758   4.333   5.737   6.308  0.0943  0.0636  0.3026
  818loPI   C3B12759   4.377   5.783   6.750  0.0193 -0.1059  0.0110
  818loPI   C4B12760   4.394   5.688   7.149  0.2168  0.0288 -0.1843
  819loPI    C112761   0.397   9.129   5.308  0.1016 -0.2001  0.2299
  819loPI    C212762   0.020   9.015   5.239  0.1100 -0.0285 -0.1260
  819loPI    C312763   0.266   8.779   5.448 -0.1636 -0.1875  0.0222
  819loPI   PO412764   0.379   9.409   5.395  0.1630  0.0023  0.0104
  819loPI   GL112765   0.462   9.399   5.804  0.1962 -0.4047  0.0183
  819loPI   GL212766   0.376   9.128   5.808  0.0094 -0.1601 -0.3274
  819loPI   C1A12767   0.514   9.640   6.103 -0.0434  0.2753 -0.4064
  819loPI   C2A12768   0.462   9.589   6.575 -0.0031 -0.1042  0.1606
  819loPI   C3A12769   0.597   9.644   7.041  0.1867 -0.0275  0.1489
  819loPI   C4A12770   0.693   9.698   7.457 -0.1086 -0.0717  0.0157
  819loPI   C5A12771   0.452   9.473   7.806  0.0091  0.1896 -0.0450
  819loPI   C6A12772   0.288   9.117   7.986  0.1169  0.0668 -0.0385
  819loPI   C1B12773   0.528   9.144   6.215 -0.0304 -0.1440  0.0837
  819loPI   C2B12774   0.623   8.989   6.508  0.1971  0.0753  0.0022
  819loPI   C3B12775   0.541   9.128   6.898  0.3447  0.1266 -0.1065
  819loPI   C4B12776   0.358   9.264   7.318 -0.0975 -0.1635 -0.0013
  820loPI    C112777  10.263   9.422   5.358  0.0934  0.0093 -0.0479
  820loPI    C212778  10.510   9.158   5.530 -0.1274 -0.0256  0.2220
  820loPI    C312779  10.185   9.031   5.335 -0.0777  0.0334  0.0997
  820loPI   PO412780  10.262   9.653   5.486 -0.1420 -0.0598 -0.0186
  820loPI   GL112781  10.242   9.726   5.945 -0.1192  0.0090 -0.0263
  820loPI   GL212782  10.343   9.432   6.063 -0.3045  0.3118 -0.1045
  820loPI   C1A12783  10.456   9.771   6.397  0.2277  0.1148 -0.0908
  820loPI   C2A12784  10.416   9.944   6.796  0.2464 -0.1685 -0.1265
  820loPI   C3A12785  10.427  10.107   7.253 -0.3015 -0.0866  0.0209
  820loPI   C4A12786  10.606  10.110   7.712 -0.1022 -0.1040 -0.1778
  820loPI   C5A12787  10.746  10.401   7.945  0.1527 -0.2368 -0.1457
  820loPI   C6A12788  11.005  10.731   7.963  0.1870  0.1786 -0.1432
  820loPI   C1B12789  10.760   9.318   6.264  0.0399 -0.0558 -0.2387
  820loPI   C2B12790  10.794   9.275   6.720  0.3035  0.1150 -0.0271
  820loPI   C3B12791  10.676   9.196   7.166 -0.1026  0.1131  0.1371
  820loPI   C4B12792  10.496   8.875   7.523  0.0719 -0.2961  0.0271
  821loPI    C112793   1.371   1.645   5.059 -0.0330 -0.0908 -0.1181
  821loPI    C212794   1.033   1.580   5.263 -0.0516  0.1773 -0.0598
  821loPI    C312795   1.057   1.477   4.878  0.0011 -0.3804  0.0835
  821loPI   PO412796   1.556   1.546   5.275  0.0354 -0.1530  0.0777
  821loPI   GL112797   1.439   1.335   5.560 -0.1890 -0.0177 -0.0902
  821loPI   GL212798   1.616   1.027   5.652  0.1852 -0.0081 -0.3735
  821loPI   C1A12799   1.427   1.396   6.030  0.0517  0.3673  0.1019
  821loPI   C2A12800   1.278   1.476   6.417  0.0344 -0.1891 -0.2459
  821loPI   C3A12801   1.366   1.420   6.830  0.1685 -0.1757 -0.0137
  821loPI   C4A12802   1.293   1.394   7.160  0.0544  0.1314 -0.1206
  821loPI   C5A12803   1.277   1.332   7.671  0.2881 -0.2457 -0.1994
  821loPI   C6A12804   1.356   1.609   7.878  0.1949 -0.0409 -0.0869
  821loPI   C1B12805   1.513   0.938   6.149 -0.3143  0.0964 -0.0994
  821loPI   C2B12806   1.413   0.986   6.577  0.5258 -0.1927 -0.0881
  821loPI   C3B12807   1.392   0.901   7.000 -0.1256  0.1254  0.0814
  821loPI   C4B12808   1.386   0.923   7.444  0.1379  0.2392 -0.4775
  822loPI    C112809  13.426  11.950   5.580 -0.0708 -0.4601  0.0822
  822loPI    C212810  13.161  11.956   5.281 -0.0032  0.3305  0.0190
  822loPI    C312811  13.536  11.835   5.213 -0.1723 -0.1853 -0.0367
  822loPI   PO412812  13.352  11.826   5.753 -0.1629  0.0612  0.0930
  822loPI   GL112813  13.275  11.752   6.213  0.2479  0.0675 -0.1690
  822loPI   GL212814  12.993  11.756   6.318  0.1325  0.1133  0.0225
  822loPI   C1A12815  13.504  11.949   6.490  0.2728  0.1502 -0.1961
  822loPI   C2A12816  13.511  11.993   6.838 -0.0808  0.1317  0.0633
  822loPI   C3A12817  13.719  11.895   7.199 -0.0186  0.0261 -0.1157
  822loPI   C4A12818  13.728  12.042   7.646  0.4336  0.3048  0.0253
  822loPI   C5A12819  13.931  12.155   8.030  0.2671  0.3798  0.2775
  822loPI   C6A12820  14.326  12.314   8.142  0.0716  0.0584 -0.3238
  822loPI   C1B12821  12.948  11.878   6.687 -0.1476 -0.2440 -0.2162
  822loPI   C2B12822  13.117  11.929   7.167  0.1843  0.1428 -0.0210
  822loPI   C3B12823  13.258  11.808   7.586  0.2431 -0.3566  0.0028
  822loPI   C4B12824  13.303  11.799   8.124 -0.2216 -0.0888 -0.2660
  823loPI    C112825   6.985   2.721   5.259  0.0714 -0.0156 -0.1371
  823loPI    C212826   7.091   2.819   4.886 -0.1125  0.0323 -0.1782
  823loPI    C312827   6.820   2.532   4.947 -0.0039 -0.0496 -0.0770
  823loPI   PO412828   7.193   2.728   5.409 -0.4804 -0.1725  0.2137
  823loPI   GL112829   7.183   2.952   5.795  0.3878 -0.0778 -0.1733
  823loPI   GL212830   7.367   2.659   5.898  0.1861  0.1072 -0.1011
  823loPI   C1A12831   7.273   3.002   6.299 -0.0509 -0.1709 -0.0180
  823loPI   C2A12832   7.372   2.919   6.647  0.1056  0.3368  0.1123
  823loPI   C3A12833   7.464   2.754   7.102  0.0560 -0.2990 -0.0366
  823loPI   C4A12834   7.534   2.549   7.495  0.0540  0.0865 -0.1093
  823loPI   C5A12835   7.683   2.677   7.870 -0.2623  0.2442  0.0591
  823loPI   C6A12836   7.909   2.710   8.316 -0.0268 -0.0129 -0.0743
  823loPI   C1B12837   7.424   2.535   6.273 -0.3129 -0.1966  0.1866
  823loPI   C2B12838   7.499   2.420   6.722 -0.2488 -0.0826 -0.2863
  823loPI   C3B12839   7.569   2.217   7.106 -0.0473  0.1739 -0.0215
  823loPI   C4B12840   7.424   1.945   7.452 -0.0876 -0.2758  0.3455
  824loPI    C112841   8.655   2.839   5.273  0.1518 -0.1800  0.2121
  824loPI    C212842   9.028   2.697   5.302  0.1665 -0.2208 -0.1369
  824loPI    C312843   8.790   2.576   5.005 -0.1320 -0.2051  0.0908
  824loPI   PO412844   8.570   2.868   5.503 -0.1277 -0.0293  0.2257
  824loPI   GL112845   8.408   2.997   5.848 -0.0851 -0.0318 -0.2024
  824loPI   GL212846   8.061   2.993   5.801 -0.2293 -0.1403 -0.0457
  824loPI   C1A12847   8.312   3.262   6.182  0.0857 -0.1065 -0.2693
  824loPI   C2A12848   8.218   3.162   6.634 -0.1574 -0.0823  0.1414
  824loPI   C3A12849   8.331   3.195   7.072  0.1387  0.1648  0.1333
  824loPI   C4A12850   8.289   3.275   7.388  0.0070 -0.1239  0.1070
  824loPI   C5A12851   8.113   3.359   7.784 -0.1004  0.5241 -0.1198
  824loPI   C6A12852   7.917   3.117   7.972  0.0897 -0.2953  0.2017
  824loPI   C1B12853   7.912   2.966   6.194 -0.0939  0.2325 -0.0856
  824loPI   C2B12854   7.872   2.850   6.638  0.2623 -0.0928  0.0964
  824loPI   C3B12855   7.933   2.847   7.064 -0.2015  0.0247 -0.0846
  824loPI   C4B12856   7.955   2.880   7.477  0.1574 -0.0177 -0.0522
  825loPI    C112857  13.698  15.859   5.896 -0.1198 -0.0777  0.0619
  825loPI    C212858  13.923  15.532   5.950 -0.1648 -0.1008  0.1104
  825loPI    C312859  13.583  15.508   5.741  0.0081 -0.0119 -0.1884
  825loPI   PO412860  13.690  16.004   6.127  0.1423  0.1063  0.0513
  825loPI   GL112861  13.771  15.928   6.603  0.2844  0.0548 -0.3001
  825loPI   GL212862  13.863  15.627   6.425 -0.4191 -0.1730 -0.2014
  825loPI   C1A12863  13.720  15.907   7.106  0.1271  0.0077 -0.1773
  825loPI   C2A12864  13.685  16.017   7.510  0.0884  0.0080 -0.1897
  825loPI   C3A12865  13.554  16.193   7.866  0.0386  0.1909 -0.1956
  825loPI   C4A12866  13.800  16.400   8.168 -0.2066 -0.2121  0.1379
  825loPI   C5A12867  13.958  16.604   8.610  0.2877 -0.1072  0.0314
  825loPI   C6A12868  13.992  16.807   9.025  0.0973  0.0131 -0.0618
  825loPI   C1B12869  13.818  15.500   6.882 -0.0062 -0.0337 -0.2507
  825loPI   C2B12870  13.803  15.469   7.420 -0.0529 -0.1311  0.0644
  825loPI   C3B12871  13.673  15.475   7.754  0.1902 -0.0933 -0.0476
  825loPI   C4B12872  13.842  15.580   8.104  0.1082  0.0166  0.3752
  826loPI    C112873   2.290   3.792   4.849 -0.0234 -0.1876  0.0462
  826loPI    C212874   2.448   3.746   4.484 -0.1195  0.1400 -0.0400
  826loPI    C312875   2.163   3.495   4.612  0.0856 -0.1244 -0.0928
  826loPI   PO412876   2.435   3.866   5.090 -0.1692  0.1324 -0.0560
  826loPI   GL112877   2.566   4.070   5.455  0.3660  0.2004  0.0826
  826loPI   GL212878   2.553   3.855   5.747 -0.0846  0.2428 -0.1147
  826loPI   C1A12879   2.640   4.336   5.864  0.0477  0.0416 -0.1786
  826loPI   C2A12880   2.701   4.348   6.311  0.0580  0.2504  0.1921
  826loPI   C3A12881   2.872   4.397   6.712  0.0848  0.0673  0.0534
  826loPI   C4A12882   2.628   4.298   7.073  0.0587 -0.0757  0.1247
  826loPI   C5A12883   2.486   4.367   7.491  0.0914 -0.1806 -0.0286
  826loPI   C6A12884   2.371   4.553   7.737  0.1174 -0.0413 -0.1316
  826loPI   C1B12885   2.653   3.858   6.133 -0.0985  0.1111 -0.0203
  826loPI   C2B12886   2.782   3.739   6.452  0.4168  0.1032 -0.0461
  826loPI   C3B12887   2.968   3.796   6.859  0.1138 -0.0305 -0.1915
  826loPI   C4B12888   2.965   3.897   7.328  0.1444 -0.0225  0.1646
  827loPI    C112889  15.226   1.286   5.591 -0.0840 -0.0308  0.0389
  827loPI    C212890  15.583   1.454   5.521  0.0273 -0.2805 -0.0017
  827loPI    C312891  15.309   1.437   5.230  0.0249 -0.1917 -0.0046
  827loPI   PO412892  15.389   1.231   5.868  0.0376 -0.1196  0.5208
  827loPI   GL112893  15.511   1.173   6.264  0.0735  0.1458  0.2184
  827loPI   GL212894  15.534   1.477   6.263 -0.1882  0.0039 -0.0260
  827loPI   C1A12895  15.381   1.127   6.682  0.0802  0.4136 -0.1243
  827loPI   C2A12896  15.144   1.361   6.990  0.1390  0.1280  0.0656
  827loPI   C3A12897  14.824   1.369   7.243 -0.1905 -0.1267  0.0200
  827loPI   C4A12898  14.635   1.216   7.616 -0.0678 -0.3067  0.0674
  827loPI   C5A12899  14.636   0.995   7.977 -0.0416  0.2652 -0.1168
  827loPI   C6A12900  15.086   0.831   8.128  0.0812  0.0934 -0.2091
  827loPI   C1B12901  15.707   1.561   6.651 -0.2371  0.0884 -0.1031
  827loPI   C2B12902  15.651   1.506   7.087 -0.0052  0.0533 -0.1918
  827loPI   C3B12903  15.833   1.502   7.473  0.1956 -0.1712 -0.0721
  827loPI   C4B12904  16.197   1.352   7.663 -0.4060 -0.0527 -0.1651
  828loPI    C112905  11.761  15.072   4.934  0.0751 -0.0916 -0.1245
  828loPI    C212906  12.151  15.155   4.908  0.0486  0.1055  0.0773
  828loPI    C312907  12.026  14.776   4.889  0.2421  0.0475 -0.0686
  828loPI   PO412908  11.644  15.277   5.159 -0.0406  0.2882 -0.2641
  828loPI   GL112909  11.664  15.168   5.621  0.0817 -0.0211 -0.1563
  828loPI   GL212910  11.821  15.435   5.629  0.2873  0.1452 -0.0385
  828loPI   C1A12911  11.377  15.315   5.992  0.0015 -0.2784 -0.0214
  828loPI   C2A12912  11.366  15.356   6.405 -0.2164 -0.2022  0.2003
  828loPI   C3A12913  11.411  15.311   6.890  0.0143 -0.1949  0.1282
  828loPI   C4A12914  11.442  15.369   7.443  0.0320  0.0583  0.0081
  828loPI   C5A12915  11.467  15.314   7.865 -0.3399 -0.1321  0.0196
  828loPI   C6A12916  11.741  15.449   8.254  0.0328 -0.1059 -0.2236
  828loPI   C1B12917  11.894  15.398   6.062  0.1881  0.0099  0.0337
  828loPI   C2B12918  11.851  15.288   6.539  0.4483 -0.3207  0.2751
  828loPI   C3B12919  11.993  15.242   6.991 -0.1888  0.2170 -0.1386
  828loPI   C4B12920  11.930  15.315   7.401  0.0767 -0.2341  0.2703
  829loPI    C112921  12.598   5.916   5.560  0.0028 -0.1492 -0.2482
  829loPI    C212922  12.486   6.197   5.299 -0.0360 -0.0174 -0.0910
  829loPI    C312923  12.210   5.988   5.497 -0.0063 -0.0789 -0.1142
  829loPI   PO412924  12.874   5.863   5.588 -0.0481 -0.0034  0.1158
  829loPI   GL112925  13.099   5.784   5.962 -0.0889 -0.0203  0.2716
  829loPI   GL212926  12.748   5.638   6.029  0.2934  0.3375  0.2837
  829loPI   C1A12927  13.191   5.877   6.241 -0.1017 -0.1220  0.0919
  829loPI   C2A12928  13.198   5.729   6.711  0.0274 -0.0839 -0.1695
  829loPI   C3A12929  13.347   5.494   7.055 -0.0507 -0.2121  0.0491
  829loPI   C4A12930  13.552   5.180   7.393 -0.1628 -0.2505 -0.2028
  829loPI   C5A12931  13.763   5.289   7.614 -0.1975  0.4082 -0.3327
  829loPI   C6A12932  13.922   5.298   8.109 -0.0709  0.1627 -0.2704
  829loPI   C1B12933  12.711   5.645   6.502  0.2527 -0.1267  0.0868
  829loPI   C2B12934  12.572   5.416   6.888 -0.1023 -0.1495  0.2285
  829loPI   C3B12935  12.467   5.251   7.218 -0.0554 -0.0038  0.0267
  829loPI   C4B12936  12.281   5.319   7.606 -0.0119  0.2358  0.0869
  830loPI    C112937   1.185  13.612   5.176 -0.0297  0.2352  0.1833
  830loPI    C212938   1.150  13.974   5.007  0.4614  0.2396  0.0766
  830loPI    C312939   1.407  13.707   4.857 -0.0401 -0.2347  0.0290
  830loPI   PO412940   1.050  13.681   5.454  0.2305  0.2322  0.2239
  830loPI   GL112941   1.028  13.627   5.873  0.0727  0.1566 -0.0675
  830loPI   GL212942   0.761  13.898   5.953  0.0692  0.0771  0.0640
  830loPI   C1A12943   0.920  13.699   6.337 -0.1466 -0.2282  0.0601
  830loPI   C2A12944   0.987  13.690   6.824  0.0584  0.0292  0.3458
  830loPI   C3A12945   0.809  13.644   7.230  0.0713  0.0339 -0.2397
  830loPI   C4A12946   0.840  13.670   7.636 -0.3130 -0.2847  0.0817
  830loPI   C5A12947   0.832  13.643   8.041  0.0314 -0.1162  0.0106
  830loPI   C6A12948   0.694  13.982   8.424  0.0247  0.0490  0.1202
  830loPI   C1B12949   0.790  14.214   6.262 -0.0200  0.2342 -0.0960
  830loPI   C2B12950   0.774  14.185   6.661 -0.2518  0.0788 -0.1885
  830loPI   C3B12951   0.748  14.151   7.107  0.0485 -0.1267  0.2235
  830loPI   C4B12952   0.599  14.153   7.458 -0.0314 -0.4340  0.1019
  831loPI    C112953  13.987   4.941   5.327  0.1580 -0.0939  0.0994
  831loPI    C212954  14.220   4.625   5.252  0.3163  0.0656 -0.0894
  831loPI    C312955  14.165   4.905   4.971 -0.2081 -0.0338 -0.0949
  831loPI   PO412956  13.775   4.808   5.511  0.1305  0.0877 -0.3342
  831loPI   GL112957  13.737   4.498   5.808 -0.1256 -0.1602 -0.0824
  831loPI   GL212958  13.801   4.222   5.990 -0.0868  0.3348  0.0586
  831loPI   C1A12959  13.947   4.673   6.180 -0.0872 -0.0433 -0.1365
  831loPI   C2A12960  13.875   4.741   6.644  0.0819 -0.1744 -0.3683
  831loPI   C3A12961  13.789   4.824   7.062  0.1212  0.0883  0.2270
  831loPI   C4A12962  13.698   4.647   7.394  0.1603  0.2858  0.1067
  831loPI   C5A12963  13.460   4.541   7.778  0.1003  0.0088 -0.1619
  831loPI   C6A12964  13.253   4.209   7.902  0.2284  0.1435  0.0695
  831loPI   C1B12965  13.950   4.116   6.387 -0.0578  0.0152 -0.1906
  831loPI   C2B12966  14.042   3.900   6.744 -0.0165  0.2000 -0.1836
  831loPI   C3B12967  13.936   3.573   7.036  0.1686 -0.2843 -0.0440
  831loPI   C4B12968  13.538   3.686   7.302  0.1413 -0.0782  0.1000
  832loPI    C112969  13.205  13.728   5.564  0.0477 -0.0462 -0.0676
  832loPI    C212970  13.004  13.879   5.253 -0.0319  0.1674  0.0846
  832loPI    C312971  12.928  13.507   5.379 -0.0238  0.0923 -0.1281
  832loPI   PO412972  13.185  13.893   5.777  0.1398 -0.1669  0.2437
  832loPI   GL112973  12.977  13.984   6.182 -0.0410 -0.1436  0.0035
  832loPI   GL212974  13.194  14.274   6.089  0.1996  0.0134 -0.0811
  832loPI   C1A12975  12.637  14.026   6.311 -0.0464 -0.1086 -0.0904
  832loPI   C2A12976  12.726  13.948   6.704 -0.1400 -0.0957 -0.2454
  832loPI   C3A12977  12.608  13.933   7.078  0.2370 -0.0475 -0.1584
  832loPI   C4A12978  12.503  13.976   7.515  0.0189 -0.0565 -0.3468
  832loPI   C5A12979  12.737  14.257   7.806  0.1526 -0.1166  0.3167
  832loPI   C6A12980  12.775  14.230   8.239  0.1159  0.1031 -0.2041
  832loPI   C1B12981  13.013  14.321   6.513 -0.1490 -0.0912 -0.3199
  832loPI   C2B12982  13.030  14.266   6.980  0.3525 -0.1321 -0.0650
  832loPI   C3B12983  13.014  14.121   7.411 -0.0129 -0.1424 -0.0380
  832loPI   C4B12984  13.192  14.106   7.831  0.3836  0.0093  0.2612
  833loPI    C112985  11.812  10.558   5.528 -0.2105  0.2997 -0.2112
  833loPI    C212986  11.862  10.405   5.162  0.2420  0.0889 -0.0680
  833loPI    C312987  12.085  10.715   5.282  0.1444  0.1124  0.0550
  833loPI   PO412988  11.877  10.304   5.717 -0.0619 -0.1476  0.0272
  833loPI   GL112989  12.063  10.521   5.966 -0.4084 -0.0178 -0.4009
  833loPI   GL212990  11.824  10.764   6.029 -0.0510 -0.2020 -0.0115
  833loPI   C1A12991  12.237  10.540   6.449  0.0994  0.0732  0.0098
  833loPI   C2A12992  12.010  10.461   6.918  0.4141  0.1153 -0.1278
  833loPI   C3A12993  11.971  10.539   7.366  0.1404  0.1438 -0.3162
  833loPI   C4A12994  11.849  10.922   7.566 -0.0468 -0.1358 -0.1589
  833loPI   C5A12995  11.903  11.328   7.684 -0.1136 -0.1280  0.1751
  833loPI   C6A12996  11.889  11.404   8.196 -0.0371 -0.5338  0.0066
  833loPI   C1B12997  11.803  10.887   6.465  0.0604  0.0143  0.2659
  833loPI   C2B12998  11.751  10.907   6.926  0.2401  0.1842 -0.1753
  833loPI   C3B12999  11.439  10.642   7.224 -0.2221 -0.3074  0.3077
  833loPI   C4B13000  11.417  10.588   7.659 -0.3598 -0.1976 -0.2717
  834loPI    C113001   5.237   1.712   4.611 -0.0046 -0.1561 -0.0618
  834loPI    C213002   4.884   1.880   4.695  0.1082 -0.0355  0.1816
  834loPI    C313003   5.038   1.912   4.327 -0.1808 -0.1784  0.0445
  834loPI   PO413004   5.399   1.702   4.839 -0.0918  0.0126  0.1394
  834loPI   GL113005   5.393   1.461   5.295  0.0901 -0.1331 -0.1926
  834loPI   GL213006   5.535   1.762   5.326 -0.1088 -0.1792 -0.1346
  834loPI   C1A13007   5.440   1.364   5.658  0.0688 -0.1445  0.0487
  834loPI   C2A13008   5.491   1.144   6.047 -0.2398  0.5460  0.2004
  834loPI   C3A13009   5.415   1.130   6.411  0.0514 -0.2600 -0.0846
  834loPI   C4A13010   5.447   1.244   6.791 -0.1194 -0.1632  0.1305
  834loPI   C5A13011   5.457   1.290   7.224  0.0762  0.3331 -0.1845
  834loPI   C6A13012   5.216   1.307   7.518  0.0514 -0.1226 -0.0678
  834loPI   C1B13013   5.601   1.979   5.757  0.0040 -0.0586  0.0116
  834loPI   C2B13014   5.585   2.118   6.236 -0.0230  0.3557  0.0536
  834loPI   C3B13015   5.695   2.157   6.640  0.0985  0.1556  0.0787
  834loPI   C4B13016   5.727   2.080   7.104  0.0336  0.1717 -0.1016
  835loPI    C113017   3.220  11.672   5.345  0.1124 -0.3463 -0.1774
  835loPI    C213018   3.033  11.957   5.135 -0.1570 -0.3183  0.0936
  835loPI    C313019   2.923  11.575   5.095 -0.0178 -0.3471 -0.0238
  835loPI   PO413020   3.231  11.693   5.592  0.2152  0.0205  0.0692
  835loPI   GL113021   3.130  11.930   5.883 -0.4077 -0.3068  0.0475
  835loPI   GL213022   3.314  12.030   5.956 -0.2905 -0.1708  0.1923
  835loPI   C1A13023   2.941  11.952   6.337  0.2523 -0.2447 -0.2548
  835loPI   C2A13024   3.095  12.129   6.774 -0.2648  0.0643  0.1741
  835loPI   C3A13025   3.090  12.076   7.240  0.1127  0.0702 -0.1362
  835loPI   C4A13026   3.090  11.892   7.580  0.1028 -0.2963  0.0707
  835loPI   C5A13027   2.905  11.846   7.925 -0.0942 -0.0701 -0.2550
  835loPI   C6A13028   2.710  11.757   8.347 -0.2005 -0.0676  0.1486
  835loPI   C1B13029   3.434  12.061   6.403  0.1184  0.0964 -0.0312
  835loPI   C2B13030   3.538  11.908   6.793  0.0769 -0.0011  0.1336
  835loPI   C3B13031   3.592  11.933   7.225 -0.0898 -0.2517  0.1119
  835loPI   C4B13032   3.569  11.826   7.637  0.2027  0.0025 -0.2301
  836loPI    C113033  10.434   6.724   5.130 -0.1125  0.2839  0.1106
  836loPI    C213034  10.777   6.919   5.198  0.0887 -0.0234 -0.0025
  836loPI    C313035  10.770   6.608   4.946 -0.2192 -0.1845  0.1989
  836loPI   PO413036  10.297   6.674   5.432  0.1320  0.0793 -0.1979
  836loPI   GL113037  10.118   6.701   5.867  0.0426 -0.1041  0.0850
  836loPI   GL213038  10.274   6.954   5.951 -0.2345 -0.0336  0.0757
  836loPI   C1A13039   9.914   6.542   6.260  0.2537 -0.2433  0.2462
  836loPI   C2A13040   9.727   6.479   6.686 -0.2195  0.1095  0.0637
  836loPI   C3A13041   9.708   6.468   7.082 -0.2151 -0.2462  0.1826
  836loPI   C4A13042   9.528   6.380   7.564  0.1959  0.1337 -0.1433
  836loPI   C5A13043   9.749   6.204   7.884  0.0561  0.0030  0.0311
  836loPI   C6A13044   9.904   5.996   8.222  0.1963 -0.3850 -0.3407
  836loPI   C1B13045  10.218   6.945   6.432  0.1454 -0.0082  0.0391
  836loPI   C2B13046  10.057   6.855   6.770  0.1186 -0.1033 -0.0526
  836loPI   C3B13047   9.881   7.050   7.183  0.0615  0.0948  0.1219
  836loPI   C4B13048   9.963   7.118   7.616 -0.0633  0.2313 -0.0898
  837loPI    C113049   9.183   0.681   4.734 -0.3645 -0.1108  0.0028
  837loPI    C213050   9.253   0.312   4.597  0.0302 -0.0129 -0.0713
  837loPI    C313051   8.920   0.505   4.490 -0.1125 -0.2931 -0.1416
  837loPI   PO413052   9.258   0.631   5.029 -0.1356 -0.0929  0.2023
  837loPI   GL113053   9.190   0.763   5.434  0.1660  0.3413  0.1921
  837loPI   GL213054   9.222   0.519   5.720 -0.4585 -0.3025 -0.0728
  837loPI   C1A13055   9.117   1.097   5.816 -0.0331  0.1118 -0.0436
  837loPI   C2A13056   8.919   1.164   6.159  0.2215  0.1407  0.0409
  837loPI   C3A13057   8.912   1.138   6.562  0.0506  0.0097 -0.1870
  837loPI   C4A13058   8.794   1.174   6.967  0.1235 -0.0708 -0.2965
  837loPI   C5A13059   8.541   1.165   7.401 -0.2106  0.0687 -0.0160
  837loPI   C6A13060   8.532   0.818   7.647 -0.3106  0.4278  0.2029
  837loPI   C1B13061   9.276   0.128   5.959  0.1488  0.3314  0.1435
  837loPI   C2B13062   9.179   0.087   6.371 -0.0945  0.1714 -0.1547
  837loPI   C3B13063   9.105   0.176   6.880  0.0261 -0.1332  0.0614
  837loPI   C4B13064   9.118   0.153   7.340  0.3645 -0.0898 -0.0583
  838loPI    C113065  14.037   2.751   5.559 -0.0324  0.2118 -0.2389
  838loPI    C213066  14.251   2.663   5.233  0.0950 -0.1539 -0.0616
  838loPI    C313067  13.859   2.583   5.244  0.1056 -0.2115 -0.0978
  838loPI   PO413068  14.184   2.861   5.705  0.2902 -0.3519  0.2439
  838loPI   GL113069  14.235   3.195   6.023  0.1475 -0.2533  0.1638
  838loPI   GL213070  14.398   2.895   6.181  0.2843 -0.0583  0.2867
  838loPI   C1A13071  14.237   3.434   6.422  0.1328  0.2116 -0.2853
  838loPI   C2A13072  14.351   3.449   6.737 -0.0101  0.0059  0.1856
  838loPI   C3A13073  14.382   3.617   7.176 -0.0757 -0.2168 -0.0775
  838loPI   C4A13074  14.366   3.450   7.508 -0.3589  0.2321  0.0270
  838loPI   C5A13075  14.477   3.323   7.952  0.0870 -0.5094 -0.0668
  838loPI   C6A13076  14.651   3.306   8.366 -0.0397 -0.4237 -0.1981
  838loPI   C1B13077  14.427   2.935   6.699 -0.1137  0.0517 -0.0738
  838loPI   C2B13078  14.590   3.084   7.153 -0.1829  0.1284 -0.0616
  838loPI   C3B13079  14.859   3.369   7.449 -0.1958 -0.3051  0.2736
  838loPI   C4B13080  14.843   3.664   7.782  0.2973 -0.1163 -0.2398
  839loPI    C113081  13.345   9.014   4.930  0.0411 -0.0101  0.2125
  839loPI    C213082  13.630   8.734   4.956 -0.0507 -0.1174  0.0809
  839loPI    C313083  13.251   8.628   4.882 -0.0260  0.0660 -0.3377
  839loPI   PO413084  13.330   9.157   5.176  0.1252  0.1454 -0.0648
  839loPI   GL113085  13.281   9.209   5.594 -0.4482 -0.0394  0.0927
  839loPI   GL213086  13.013   9.070   5.702 -0.0263 -0.1691 -0.0658
  839loPI   C1A13087  13.364   9.159   6.077  0.0843  0.1765  0.1329
  839loPI   C2A13088  13.481   9.040   6.412  0.1950  0.0518 -0.1180
  839loPI   C3A13089  13.362   8.919   6.832 -0.2743  0.0766  0.0638
  839loPI   C4A13090  13.480   8.902   7.266 -0.0120  0.1680  0.0957
  839loPI   C5A13091  13.665   8.855   7.611  0.0585 -0.0391 -0.1930
  839loPI   C6A13092  13.945   8.798   8.047  0.1783 -0.1399 -0.1471
  839loPI   C1B13093  12.952   8.865   6.074  0.1079  0.0520  0.2781
  839loPI   C2B13094  13.000   8.748   6.515 -0.1508 -0.1501 -0.0569
  839loPI   C3B13095  12.907   8.747   6.823  0.1287  0.1205 -0.2625
  839loPI   C4B13096  12.948   8.837   7.203  0.1612  0.1912  0.0311
  840loPI    C113097   8.166  18.151   4.873  0.0480  0.1749 -0.1604
  840loPI    C213098   7.966  18.185   4.528 -0.0061 -0.1087 -0.1591
  840loPI    C313099   8.364  18.143   4.525  0.0202  0.1300 -0.1753
  840loPI   PO413100   8.063  18.361   4.985 -0.1749 -0.0015  0.0651
  840loPI   GL113101   7.904  18.612   5.322  0.0904  0.1226 -0.3094
  840loPI   GL213102   8.094  18.541   5.544 -0.1565 -0.1401  0.0808
  840loPI   C1A13103   7.761  18.820   5.782 -0.3901  0.1628  0.1308
  840loPI   C2A13104   7.626  18.665   6.243 -0.2267  0.3713 -0.0220
  840loPI   C3A13105   7.631  18.612   6.618  0.2701  0.0992 -0.0296
  840loPI   C4A13106   7.611  18.527   7.070  0.6203  0.0499  0.1848
  840loPI   C5A13107   7.459  18.458   7.463  0.1375 -0.3021  0.1050
  840loPI   C6A13108   7.413  18.200   7.816 -0.3704  0.0559  0.0216
  840loPI   C1B13109   8.085  18.424   6.008  0.0531 -0.1615 -0.1639
  840loPI   C2B13110   8.214  18.513   6.476 -0.0440  0.0191 -0.1181
  840loPI   C3B13111   8.148  18.519   6.934  0.3317 -0.0433 -0.0368
  840loPI   C4B13112   8.145  18.467   7.361  0.1316 -0.0246  0.0779
  841loPI    C113113  13.138   1.756   5.133  0.1512 -0.0832  0.1060
  841loPI    C213114  13.304   1.438   4.958 -0.1516 -0.0865 -0.1852
  841loPI    C313115  13.269   1.781   4.757 -0.1474  0.0275  0.0062
  841loPI   PO413116  13.288   1.714   5.417 -0.3375  0.3048  0.0014
  841loPI   GL113117  13.272   1.676   5.881 -0.1359  0.0905  0.0423
  841loPI   GL213118  13.461   1.548   6.030  0.2257 -0.3088  0.1208
  841loPI   C1A13119  13.095   1.956   6.147 -0.0836 -0.1764 -0.0408
  841loPI   C2A13120  12.942   1.876   6.636  0.1672  0.1674 -0.2598
  841loPI   C3A13121  12.910   1.938   7.019 -0.3155 -0.0651 -0.2060
  841loPI   C4A13122  12.865   2.034   7.440  0.0645  0.2228 -0.0914
  841loPI   C5A13123  13.001   2.078   7.788  0.1454 -0.0847  0.0579
  841loPI   C6A13124  13.238   2.309   8.006 -0.2565  0.0960  0.1474
  841loPI   C1B13125  13.411   1.714   6.424 -0.1729 -0.2535 -0.0578
  841loPI   C2B13126  13.410   1.760   6.873 -0.0599 -0.0475  0.2873
  841loPI   C3B13127  13.284   1.739   7.305 -0.2684 -0.1185  0.1145
  841loPI   C4B13128  13.409   1.779   7.682  0.0681 -0.2187  0.1229
  842loPI    C113129   5.163  12.802   5.215 -0.1903 -0.0598 -0.0544
  842loPI    C213130   4.927  12.742   4.898 -0.0057 -0.0361 -0.1982
  842loPI    C313131   5.324  12.761   4.851  0.0180  0.0451  0.0240
  842loPI   PO413132   5.015  12.668   5.434 -0.0306 -0.0152  0.0685
  842loPI   GL113133   4.805  12.448   5.795  0.3297  0.0403 -0.2074
  842loPI   GL213134   4.634  12.744   5.831 -0.2608  0.0307 -0.0363
  842loPI   C1A13135   4.589  12.324   6.113  0.2671 -0.1120  0.1292
  842loPI   C2A13136   4.600  12.284   6.591 -0.1873 -0.0154  0.0075
  842loPI   C3A13137   4.424  12.162   6.897 -0.2747 -0.1285  0.1138
  842loPI   C4A13138   4.419  12.151   7.400  0.2562  0.0441 -0.1119
  842loPI   C5A13139   4.505  12.030   7.779 -0.1930 -0.4443  0.0602
  842loPI   C6A13140   4.764  11.822   8.052 -0.0324  0.0063  0.0740
  842loPI   C1B13141   4.454  12.835   6.345 -0.1204 -0.0435  0.1361
  842loPI   C2B13142   4.371  12.740   6.817 -0.2434 -0.3095 -0.1437
  842loPI   C3B13143   4.521  12.634   7.153  0.0875 -0.0916 -0.1928
  842loPI   C4B13144   4.702  12.529   7.600 -0.2073 -0.1005  0.0286
  843loPI    C113145   9.300   4.280   5.109  0.0566  0.0921 -0.0001
  843loPI    C213146   9.668   4.339   4.964 -0.0248  0.1151 -0.2008
  843loPI    C313147   9.547   4.539   5.288  0.3096 -0.2557  0.1641
  843loPI   PO413148   9.305   4.053   5.153  0.3154  0.2904 -0.0684
  843loPI   GL113149   9.412   4.033   5.670  0.0543  0.0290 -0.0531
  843loPI   GL213150   9.124   4.169   5.672 -0.0220  0.1912 -0.1772
  843loPI   C1A13151   9.466   4.145   6.114 -0.4700 -0.0793  0.1779
  843loPI   C2A13152   9.321   4.255   6.598 -0.0962 -0.2559  0.1644
  843loPI   C3A13153   9.281   4.290   7.074  0.1694 -0.0845  0.2814
  843loPI   C4A13154   9.328   4.335   7.531 -0.1790 -0.3508 -0.0075
  843loPI   C5A13155   9.345   4.047   7.810 -0.0272 -0.0745 -0.0313
  843loPI   C6A13156   9.661   3.846   8.128 -0.2035 -0.1487  0.0689
  843loPI   C1B13157   8.987   4.550   6.016  0.0622  0.5013  0.0874
  843loPI   C2B13158   8.809   4.444   6.401 -0.1967  0.0164  0.1887
  843loPI   C3B13159   8.806   4.442   6.805  0.0262 -0.0897  0.0420
  843loPI   C4B13160   8.863   4.492   7.256  0.0621 -0.1773 -0.1632
  844loPI    C113161   8.624  10.212   5.647  0.0947 -0.0723 -0.2245
  844loPI    C213162   8.385  10.019   5.392  0.1439 -0.1176 -0.2365
  844loPI    C313163   8.332  10.410   5.459  0.0050 -0.1483 -0.1654
  844loPI   PO413164   8.785  10.015   5.686 -0.2981 -0.0889  0.2072
  844loPI   GL113165   8.954  10.016   6.057 -0.1863  0.1554  0.0686
  844loPI   GL213166   9.265  10.156   6.124 -0.1977 -0.1043 -0.1033
  844loPI   C1A13167   8.930   9.684   6.423 -0.1425  0.1608  0.2607
  844loPI   C2A13168   9.010   9.729   6.825  0.2071 -0.0040  0.1827
  844loPI   C3A13169   8.896   9.878   7.272  0.2277  0.3122 -0.5124
  844loPI   C4A13170   8.805   9.993   7.801 -0.2451  0.0702  0.1487
  844loPI   C5A13171   8.912   9.912   8.154 -0.1449 -0.2137  0.3334
  844loPI   C6A13172   8.723   9.573   8.501  0.0309 -0.2507  0.2955
  844loPI   C1B13173   9.203  10.150   6.524 -0.0207  0.2082  0.4853
  844loPI   C2B13174   9.211  10.184   6.996 -0.1496 -0.0163  0.1233
  844loPI   C3B13175   9.373  10.062   7.368 -0.1068  0.1165  0.0978
  844loPI   C4B13176   9.283   9.879   7.776 -0.2945  0.0375  0.0423
  845loPI    C113177   4.944   8.784   4.927 -0.2868  0.1861  0.1325
  845loPI    C213178   4.865   9.129   4.740 -0.0200  0.1548 -0.0434
  845loPI    C313179   4.809   8.781   4.550 -0.0689  0.1093  0.0538
  845loPI   PO413180   4.852   8.880   5.184 -0.3566  0.1043  0.2307
  845loPI   GL113181   4.913   8.880   5.674  0.3841  0.1547 -0.2624
  845loPI   GL213182   4.717   9.112   5.707 -0.3508 -0.1447 -0.0672
  845loPI   C1A13183   5.035   8.596   5.979  0.1515 -0.2351  0.3067
  845loPI   C2A13184   5.137   8.495   6.343  0.0629  0.1383  0.1362
  845loPI   C3A13185   5.133   8.290   6.739 -0.1782  0.0407  0.1745
  845loPI   C4A13186   5.153   8.346   7.099  0.0064  0.1572 -0.1430
  845loPI   C5A13187   5.136   8.396   7.523 -0.2231 -0.0978  0.1843
  845loPI   C6A13188   4.894   8.250   7.953  0.1311 -0.2334 -0.0317
  845loPI   C1B13189   4.888   9.049   6.143 -0.2527  0.0310  0.0473
  845loPI   C2B13190   4.999   8.947   6.530 -0.3633 -0.1430 -0.0284
  845loPI   C3B13191   5.048   8.825   7.039 -0.0171 -0.3153  0.1706
  845loPI   C4B13192   5.182   8.879   7.435  0.1952  0.0891  0.0362
  846loPI    C113193  11.523   5.707   5.659 -0.0743  0.0153 -0.1777
  846loPI    C213194  11.699   6.021   5.484  0.0871  0.0668  0.0733
  846loPI    C313195  11.849   5.870   5.823 -0.2001 -0.0552  0.1490
  846loPI   PO413196  11.314   5.717   5.706  0.1285 -0.3221 -0.1898
  846loPI   GL113197  11.094   5.640   6.017  0.1226 -0.0522  0.1811
  846loPI   GL213198  10.888   5.390   5.900  0.1077 -0.1453  0.2795
  846loPI   C1A13199  10.962   5.644   6.542 -0.3606 -0.3263  0.3629
  846loPI   C2A13200  10.925   5.697   6.952 -0.1043  0.2141 -0.1077
  846loPI   C3A13201  10.763   5.828   7.357  0.0677  0.0229  0.1660
  846loPI   C4A13202  10.756   5.864   7.729  0.1863 -0.1551 -0.2346
  846loPI   C5A13203  11.003   5.721   8.094  0.0766  0.1172  0.4011
  846loPI   C6A13204  11.254   5.781   8.444  0.0837  0.2221  0.1352
  846loPI   C1B13205  11.135   5.181   6.188 -0.2838  0.0688  0.2561
  846loPI   C2B13206  11.151   5.131   6.583 -0.0119 -0.0885  0.0096
  846loPI   C3B13207  11.102   5.192   7.022 -0.3365  0.0295 -0.2413
  846loPI   C4B13208  11.052   5.281   7.492 -0.0751  0.1131 -0.2502
  847loPI    C113209   8.232   2.657   4.979 -0.1811  0.1990  0.0692
  847loPI    C213210   8.031   2.452   4.700  0.0038 -0.0198  0.0936
  847loPI    C313211   8.411   2.561   4.634  0.0814 -0.1602  0.2969
  847loPI   PO413212   8.162   2.596   5.239 -0.0810  0.0662 -0.1135
  847loPI   GL113213   8.120   2.301   5.495 -0.0534 -0.2548  0.0299
  847loPI   GL213214   8.305   2.482   5.760  0.0283  0.1712  0.0455
  847loPI   C1A13215   8.096   2.089   5.927  0.2947 -0.1484 -0.0311
  847loPI   C2A13216   8.091   1.925   6.286  0.4126  0.1033  0.0372
  847loPI   C3A13217   8.045   1.777   6.766 -0.1286  0.2515 -0.4229
  847loPI   C4A13218   7.963   1.904   7.243 -0.2300 -0.0792 -0.2599
  847loPI   C5A13219   7.796   2.096   7.689 -0.0101 -0.0731 -0.0968
  847loPI   C6A13220   7.722   2.216   8.173  0.1721 -0.1900 -0.1967
  847loPI   C1B13221   8.344   2.609   6.098 -0.2124 -0.3256 -0.2500
  847loPI   C2B13222   8.390   2.690   6.455  0.0256 -0.3162 -0.0803
  847loPI   C3B13223   8.355   2.705   6.851  0.0081 -0.1787 -0.3075
  847loPI   C4B13224   8.394   2.720   7.257  0.0497 -0.0105  0.0024
  848loPI    C113225  17.875  10.154   5.155 -0.0020  0.0159 -0.0871
  848loPI    C213226  17.801   9.846   4.910 -0.1109  0.0664 -0.1181
  848loPI    C313227  17.649  10.208   4.829 -0.0750  0.1034 -0.0226
  848loPI   PO413228  17.889  10.019   5.422 -0.2217 -0.0155 -0.0385
  848loPI   GL113229  17.823  10.041   5.775  0.1559  0.0658 -0.1805
  848loPI   GL213230  18.120  10.231   5.813 -0.0451 -0.0531 -0.0108
  848loPI   C1A13231  17.717   9.904   6.166  0.0085 -0.1882  0.0405
  848loPI   C2A13232  17.730   9.970   6.588 -0.0443  0.0408 -0.0968
  848loPI   C3A13233  17.656   9.973   7.085  0.0714  0.1838 -0.0569
  848loPI   C4A13234  17.607  10.011   7.551  0.3825  0.1268 -0.0395
  848loPI   C5A13235  17.746   9.749   7.959 -0.2100  0.1604 -0.1467
  848loPI   C6A13236  17.732   9.864   8.270  0.0129 -0.2582  0.1081
  848loPI   C1B13237  18.098  10.263   6.225 -0.1355 -0.1969 -0.1657
  848loPI   C2B13238  18.158  10.298   6.669 -0.0593  0.2795  0.0259
  848loPI   C3B13239  18.171  10.258   7.042 -0.0105  0.2441 -0.1437
  848loPI   C4B13240  17.979  10.289   7.395  0.2815 -0.0756 -0.3365
  849loPI    C113241   0.721  10.783   5.109 -0.2336  0.1855  0.1012
  849loPI    C213242   0.574  11.153   5.068 -0.2508  0.1667 -0.0085
  849loPI    C313243   0.609  10.915   4.748 -0.1888  0.0927  0.0532
  849loPI   PO413244   0.611  10.656   5.355  0.1536 -0.1246 -0.3255
  849loPI   GL113245   0.782  10.651   5.834 -0.1650 -0.1280  0.2273
  849loPI   GL213246   0.626  10.944   5.809  0.1385  0.1465  0.1777
  849loPI   C1A13247   0.684  10.367   6.195 -0.1782  0.1664  0.1035
  849loPI   C2A13248   0.778  10.403   6.658 -0.0690 -0.0228  0.0700
  849loPI   C3A13249   1.116  10.364   7.051  0.0182 -0.1270  0.2461
  849loPI   C4A13250   1.065  10.493   7.569 -0.0946 -0.1501 -0.0135
  849loPI   C5A13251   0.693  10.502   7.801  0.0952 -0.3662  0.1135
  849loPI   C6A13252   0.585  10.515   8.219  0.2494 -0.0426  0.1080
  849loPI   C1B13253   0.687  10.860   6.341  0.1399 -0.1578  0.2483
  849loPI   C2B13254   0.663  10.865   6.778  0.0459 -0.1287  0.0715
  849loPI   C3B13255   0.732  10.709   7.184  0.0402  0.1350  0.3859
  849loPI   C4B13256   0.740  10.182   7.324 -0.1875 -0.1045  0.1718
  850loPI    C113257  11.718   3.922   5.777  0.1463 -0.1804 -0.1278
  850loPI    C213258  11.942   4.006   5.456 -0.2322 -0.0576 -0.3658
  850loPI    C313259  11.675   4.273   5.589 -0.0883 -0.1130  0.0478
  850loPI   PO413260  11.618   3.673   5.685  0.0977  0.0653 -0.0940
  850loPI   GL113261  11.513   3.363   5.892 -0.0122 -0.0889 -0.0041
  850loPI   GL213262  11.882   3.329   6.099 -0.0898 -0.2056 -0.0068
  850loPI   C1A13263  11.374   3.369   6.305  0.4702  0.3198 -0.0706
  850loPI   C2A13264  11.203   3.363   6.790  0.0282  0.1473 -0.1433
  850loPI   C3A13265  11.036   3.461   7.192  0.0786  0.0370 -0.1909
  850loPI   C4A13266  10.976   3.449   7.621  0.2857  0.2014 -0.2178
  850loPI   C5A13267  10.817   3.205   7.982  0.1949 -0.0501 -0.0685
  850loPI   C6A13268  10.768   2.721   8.224 -0.0188 -0.2105 -0.0029
  850loPI   C1B13269  11.888   3.320   6.549 -0.3923 -0.1023  0.3347
  850loPI   C2B13270  11.918   3.195   7.004 -0.1943  0.1031 -0.2573
  850loPI   C3B13271  11.507   3.273   7.180 -0.0899 -0.0219 -0.0902
  850loPI   C4B13272  11.410   3.178   7.674  0.2512 -0.2595  0.0577
  851loPI    C113273  15.426  11.016   5.549  0.1497  0.0829 -0.1136
  851loPI    C213274  15.127  11.155   5.324 -0.1107 -0.2766  0.0009
  851loPI    C313275  15.503  11.171   5.189 -0.1792  0.1590 -0.1542
  851loPI   PO413276  15.396  11.113   5.753 -0.4055  0.3720  0.0352
  851loPI   GL113277  15.375  11.128   6.134 -0.3311  0.1884  0.1782
  851loPI   GL213278  15.261  11.424   6.244  0.0307 -0.4403  0.0104
  851loPI   C1A13279  15.403  11.037   6.619 -0.0947 -0.3723  0.2079
  851loPI   C2A13280  15.394  11.046   7.056 -0.2128 -0.0868  0.1880
  851loPI   C3A13281  15.474  11.002   7.540 -0.0629  0.2406  0.1994
  851loPI   C4A13282  15.784  11.140   7.693  0.2798 -0.0831  0.0855
  851loPI   C5A13283  16.074  11.430   7.860  0.5009  0.1989 -0.2440
  851loPI   C6A13284  16.302  11.824   7.843 -0.0169  0.1794  0.0927
  851loPI   C1B13285  15.274  11.553   6.693  0.3357  0.0644 -0.1422
  851loPI   C2B13286  15.462  11.500   7.227 -0.1335 -0.0138 -0.0113
  851loPI   C3B13287  15.663  11.592   7.589  0.0365 -0.2103  0.3062
  851loPI   C4B13288  15.525  11.506   8.081  0.2449  0.1847 -0.2633
  852loPI    C113289   3.744   5.153   5.146 -0.0448 -0.3834  0.0011
  852loPI    C213290   3.679   5.533   5.039  0.1075 -0.3635 -0.0232
  852loPI    C313291   3.508   5.386   5.369  0.2084 -0.2143  0.0968
  852loPI   PO413292   3.993   5.047   5.130  0.1541 -0.1842  0.0544
  852loPI   GL113293   4.222   5.174   5.430  0.3368 -0.0751  0.1336
  852loPI   GL213294   4.419   5.407   5.518 -0.0244 -0.2129  0.0259
  852loPI   C1A13295   4.278   4.852   5.766  0.0886  0.3736 -0.1924
  852loPI   C2A13296   4.501   4.716   6.087 -0.2271 -0.0380 -0.2367
  852loPI   C3A13297   4.654   4.725   6.594  0.1220  0.3401  0.3771
  852loPI   C4A13298   4.608   4.700   7.069 -0.0163 -0.0148 -0.1778
  852loPI   C5A13299   4.458   4.775   7.526 -0.0911 -0.0881  0.2447
  852loPI   C6A13300   4.396   4.905   7.854  0.0590  0.0801 -0.0785
  852loPI   C1B13301   4.528   5.326   5.907  0.0035  0.0333 -0.1635
  852loPI   C2B13302   4.423   5.210   6.296  0.2525 -0.0325 -0.0236
  852loPI   C3B13303   4.479   5.167   6.763 -0.1522 -0.0453  0.1883
  852loPI   C4B13304   4.440   5.213   7.169 -0.2284  0.0812 -0.0361
  853loPI    C113305  16.784  17.016   5.310 -0.0230 -0.1943  0.0849
  853loPI    C213306  16.571  17.282   5.099 -0.0827 -0.1081  0.2524
  853loPI    C313307  16.786  17.003   4.910  0.0699  0.1279  0.0717
  853loPI   PO413308  16.690  16.869   5.495 -0.0414 -0.2462  0.1446
  853loPI   GL113309  16.718  17.107   5.862 -0.3205 -0.0371 -0.0495
  853loPI   GL213310  16.862  16.994   6.031 -0.3203 -0.2440  0.0504
  853loPI   C1A13311  16.477  17.011   6.316  0.3662 -0.0077 -0.2271
  853loPI   C2A13312  16.613  16.899   6.722  0.2300 -0.1847 -0.0974
  853loPI   C3A13313  16.836  16.778   7.130 -0.1346  0.3600 -0.2559
  853loPI   C4A13314  16.933  16.511   7.422  0.0972  0.0655 -0.1966
  853loPI   C5A13315  16.911  16.249   7.778 -0.0834 -0.0483 -0.4389
  853loPI   C6A13316  17.114  16.001   8.109 -0.1204  0.0907 -0.0337
  853loPI   C1B13317  16.959  17.188   6.464 -0.1969  0.1714 -0.1574
  853loPI   C2B13318  16.998  17.208   6.983 -0.0114  0.3789  0.1556
  853loPI   C3B13319  16.862  17.252   7.358  0.0385  0.0075 -0.4087
  853loPI   C4B13320  16.593  17.525   7.708  0.0294 -0.0826 -0.4015
  854loPI    C113321  15.487   4.210   5.325  0.2275 -0.3153  0.0337
  854loPI    C213322  15.444   4.271   4.932 -0.0738 -0.0919  0.0971
  854loPI    C313323  15.266   3.958   5.107 -0.0660 -0.1051  0.0812
  854loPI   PO413324  15.349   4.427   5.431  0.0058  0.0824  0.1175
  854loPI   GL113325  15.091   4.476   5.805  0.3811 -0.0946  0.0479
  854loPI   GL213326  15.273   4.295   6.027 -0.0392 -0.0773  0.2781
  854loPI   C1A13327  14.848   4.643   6.175 -0.0034 -0.3369 -0.2075
  854loPI   C2A13328  14.844   4.984   6.433  0.0000 -0.1137 -0.1836
  854loPI   C3A13329  14.817   5.368   6.784 -0.0192  0.0049 -0.0633
  854loPI   C4A13330  14.867   5.612   7.260 -0.3909 -0.0712  0.1644
  854loPI   C5A13331  14.761   5.766   7.614 -0.1907  0.0470  0.1907
  854loPI   C6A13332  14.660   5.911   8.030  0.2235 -0.2618  0.0635
  854loPI   C1B13333  15.182   4.319   6.424 -0.0313  0.0274 -0.1180
  854loPI   C2B13334  14.837   4.471   6.678  0.0860  0.0937  0.0367
  854loPI   C3B13335  14.733   4.840   6.925  0.1119 -0.1149 -0.2688
  854loPI   C4B13336  14.637   4.893   7.345 -0.1970  0.2345 -0.0090
  855loPI    C113337   3.941  12.559   5.367 -0.1814 -0.1158  0.0491
  855loPI    C213338   3.986  12.211   5.174  0.2313 -0.0394 -0.0022
  855loPI    C313339   4.095  12.553   4.998 -0.1176  0.1137  0.0704
  855loPI   PO413340   3.836  12.450   5.602 -0.1971  0.0348 -0.0299
  855loPI   GL113341   4.118  12.530   5.942 -0.0890  0.1962  0.2572
  855loPI   GL213342   3.911  12.847   5.868  0.1061 -0.0518  0.1509
  855loPI   C1A13343   4.145  12.488   6.351  0.2794  0.0264 -0.0610
  855loPI   C2A13344   4.020  12.370   6.786 -0.2905 -0.0315  0.1168
  855loPI   C3A13345   3.995  12.317   7.115  0.0949  0.2611 -0.1051
  855loPI   C4A13346   3.926  12.145   7.537  0.1031  0.1224 -0.1231
  855loPI   C5A13347   4.070  11.762   7.651  0.3642 -0.1178 -0.1407
  855loPI   C6A13348   4.315  11.504   7.911 -0.0574 -0.1988 -0.2799
  855loPI   C1B13349   3.909  12.895   6.226 -0.1202  0.1280  0.2270
  855loPI   C2B13350   3.883  12.847   6.662  0.1072 -0.0766 -0.3374
  855loPI   C3B13351   3.885  12.816   7.012 -0.2644 -0.1326  0.2560
  855loPI   C4B13352   3.853  12.614   7.406  0.0269  0.0267 -0.3027
  856loPI    C113353   4.752   9.386   5.155 -0.1424 -0.1050 -0.1633
  856loPI    C213354   4.621   9.763   5.181 -0.1064 -0.0757 -0.3826
  856loPI    C313355   4.782   9.630   4.840  0.2490 -0.1721 -0.1836
  856loPI   PO413356   4.576   9.267   5.263  0.0056 -0.3346 -0.0101
  856loPI   GL113357   4.640   9.594   5.652  0.4216 -0.1328  0.3355
  856loPI   GL213358   4.946   9.634   5.571 -0.1844 -0.0562  0.3139
  856loPI   C1A13359   4.714   9.550   6.117 -0.0156 -0.1462  0.0715
  856loPI   C2A13360   4.839   9.510   6.547  0.3058 -0.0287  0.0084
  856loPI   C3A13361   4.890   9.346   7.029  0.0029 -0.1533  0.3033
  856loPI   C4A13362   4.960   9.387   7.451 -0.1031  0.0256 -0.1111
  856loPI   C5A13363   5.015   9.548   7.944  0.0769  0.0814  0.0024
  856loPI   C6A13364   5.101   9.751   8.325  0.3396 -0.0508  0.0802
  856loPI   C1B13365   5.108   9.391   5.855  0.1480  0.0777 -0.2967
  856loPI   C2B13366   5.341   9.201   6.258  0.1110  0.0007  0.0188
  856loPI   C3B13367   5.338   9.223   6.725 -0.1397 -0.0596 -0.0497
  856loPI   C4B13368   5.380   9.190   7.105 -0.0150 -0.1301 -0.3706
  857loPI    C113369   0.830   7.683   5.210  0.0174  0.0682  0.0468
  857loPI    C213370   0.529   7.902   5.355 -0.0758  0.0335 -0.0927
  857loPI    C313371   0.482   7.699   5.013 -0.0439 -0.3280  0.1129
  857loPI   PO413372   0.827   7.500   5.496  0.2417  0.1098  0.0151
  857loPI   GL113373   0.680   7.482   5.844 -0.1552  0.0077  0.0470
  857loPI   GL213374   0.517   7.181   5.865 -0.0480  0.0717  0.1214
  857loPI   C1A13375   0.560   7.499   6.273 -0.3369 -0.0635 -0.0113
  857loPI   C2A13376   0.503   7.514   6.686 -0.3888 -0.0672 -0.0558
  857loPI   C3A13377   0.696   7.433   7.071  0.1161 -0.0175 -0.1305
  857loPI   C4A13378   0.777   7.552   7.530 -0.0102 -0.0013 -0.0984
  857loPI   C5A13379   0.673   7.535   7.900 -0.4012 -0.1112  0.2846
  857loPI   C6A13380   0.371   7.689   8.235  0.2070 -0.3086 -0.2034
  857loPI   C1B13381   0.636   6.944   6.241 -0.0104 -0.2754 -0.1683
  857loPI   C2B13382   0.589   7.008   6.648  0.0155 -0.0737 -0.2984
  857loPI   C3B13383   0.696   6.909   7.026 -0.3439 -0.1895  0.2676
  857loPI   C4B13384   0.961   6.853   7.419 -0.0671 -0.0590 -0.1176
  858loPI    C113385   3.708   4.579   5.069  0.1318 -0.0395  0.0599
  858loPI    C213386   3.814   4.758   4.727 -0.1755  0.0727  0.0201
  858loPI    C313387   3.450   4.819   4.880 -0.1370 -0.1932  0.2256
  858loPI   PO413388   3.883   4.540   5.195 -0.2448 -0.0275 -0.1122
  858loPI   GL113389   4.105   4.419   5.517  0.0428  0.4152  0.2117
  858loPI   GL213390   4.177   4.143   5.424 -0.3509  0.0722 -0.0061
  858loPI   C1A13391   4.185   4.362   5.931 -0.2646  0.1819 -0.2089
  858loPI   C2A13392   4.169   4.386   6.320 -0.1225  0.0752 -0.1017
  858loPI   C3A13393   4.292   4.371   6.665  0.2540  0.0089  0.0630
  858loPI   C4A13394   4.182   4.387   7.097 -0.0297 -0.1716 -0.3969
  858loPI   C5A13395   4.245   4.308   7.612 -0.2489 -0.1702  0.2576
  858loPI   C6A13396   4.044   4.446   8.014 -0.0447 -0.1320  0.0406
  858loPI   C1B13397   4.369   3.909   5.753 -0.0836  0.1765 -0.3054
  858loPI   C2B13398   4.428   3.879   6.194 -0.1181  0.1283  0.0846
  858loPI   C3B13399   4.406   3.831   6.571 -0.1652  0.3488 -0.0315
  858loPI   C4B13400   4.412   3.963   6.990  0.1327  0.0753  0.1832
  859loPI    C113401  15.635   3.758   5.371  0.0146 -0.2513 -0.0089
  859loPI    C213402  15.952   3.658   5.593  0.0736 -0.0761 -0.0128
  859loPI    C313403  15.914   3.513   5.222  0.1585 -0.0829 -0.0192
  859loPI   PO413404  15.459   3.671   5.586  0.1249  0.3234 -0.0520
  859loPI   GL113405  15.670   3.658   5.992  0.0924 -0.1597 -0.1029
  859loPI   GL213406  15.895   3.485   6.295 -0.0859  0.0805  0.0980
  859loPI   C1A13407  15.537   3.940   6.409 -0.0013 -0.0850 -0.0365
  859loPI   C2A13408  15.473   3.822   6.877 -0.4824 -0.2076  0.1420
  859loPI   C3A13409  15.576   3.805   7.294  0.0980  0.1095  0.2855
  859loPI   C4A13410  15.711   3.891   7.648 -0.0891  0.1996  0.2404
  859loPI   C5A13411  15.583   3.832   8.076 -0.1819 -0.0731 -0.1180
  859loPI   C6A13412  15.620   4.223   8.214  0.2183 -0.2750  0.0603
  859loPI   C1B13413  15.944   3.562   6.733  0.2198  0.0003 -0.0067
  859loPI   C2B13414  15.966   3.968   7.044 -0.0503  0.2285 -0.4753
  859loPI   C3B13415  16.087   4.083   7.373  0.1141 -0.2083 -0.0751
  859loPI   C4B13416  16.013   4.302   7.811  0.2874 -0.0769 -0.1994
  860loPI    C113417   6.604  14.013   5.200 -0.3351 -0.1920  0.1566
  860loPI    C213418   6.342  14.099   4.911  0.0064 -0.1948 -0.1608
  860loPI    C313419   6.579  13.779   4.877  0.1448 -0.1179  0.0584
  860loPI   PO413420   6.489  14.254   5.371 -0.0612  0.1226  0.1085
  860loPI   GL113421   6.261  14.310   5.669 -0.3122 -0.0835 -0.5072
  860loPI   GL213422   6.085  14.178   5.726  0.2364 -0.0114 -0.0511
  860loPI   C1A13423   6.329  14.458   6.037  0.3573  0.0687  0.3804
  860loPI   C2A13424   6.240  14.745   6.354  0.3798 -0.1296 -0.1442
  860loPI   C3A13425   6.195  14.760   6.752 -0.1921 -0.1408  0.1007
  860loPI   C4A13426   6.057  14.931   7.138  0.1379  0.3062 -0.3018
  860loPI   C5A13427   6.008  14.892   7.575 -0.4103  0.2929  0.2848
  860loPI   C6A13428   5.656  14.895   7.838 -0.2100  0.0044  0.0867
  860loPI   C1B13429   5.902  14.180   6.070 -0.0844 -0.0320 -0.0800
  860loPI   C2B13430   5.974  14.253   6.485 -0.0364  0.3571 -0.1852
  860loPI   C3B13431   5.843  14.380   6.902 -0.3374 -0.0405 -0.3376
  860loPI   C4B13432   5.799  14.425   7.395  0.0852 -0.0418 -0.1856
  861loPI    C113433  11.773   1.281   5.190  0.1142  0.0565  0.0022
  861loPI    C213434  11.558   1.616   5.230 -0.0181 -0.0138 -0.1121
  861loPI    C313435  11.638   1.472   4.865  0.1825 -0.0152 -0.0688
  861loPI   PO413436  11.690   1.166   5.466 -0.1259 -0.1181 -0.1767
  861loPI   GL113437  11.454   1.045   5.818 -0.1347 -0.1218  0.2719
  861loPI   GL213438  11.101   0.907   5.825  0.2020 -0.1904  0.0197
  861loPI   C1A13439  11.259   1.147   6.255 -0.0565 -0.1998 -0.0760
  861loPI   C2A13440  11.184   1.118   6.816 -0.2975  0.0357 -0.1719
  861loPI   C3A13441  11.125   1.144   7.250  0.2698  0.0317  0.1741
  861loPI   C4A13442  11.065   1.109   7.698  0.2763 -0.1549 -0.3050
  861loPI   C5A13443  11.220   0.692   7.949  0.1022  0.2516  0.0568
  861loPI   C6A13444  11.070   0.507   8.283  0.0407 -0.2313  0.1958
  861loPI   C1B13445  10.903   0.774   6.268 -0.3743 -0.3376  0.1469
  861loPI   C2B13446  10.971   0.694   6.637 -0.3352 -0.1678  0.1094
  861loPI   C3B13447  10.885   0.687   7.049  0.1355 -0.0070 -0.0541
  861loPI   C4B13448  10.740   0.745   7.478 -0.4094  0.0469 -0.0195
  862loPI    C113449  13.862   0.912   5.514 -0.0410 -0.0717  0.1486
  862loPI    C213450  14.122   0.612   5.466  0.0397  0.0049  0.1041
  862loPI    C313451  13.830   0.670   5.198 -0.1664 -0.2226  0.2756
  862loPI   PO413452  13.793   0.914   5.775  0.0298  0.3490  0.0051
  862loPI   GL113453  13.879   1.055   6.184  0.0466 -0.1509  0.0124
  862loPI   GL213454  14.096   0.893   6.283 -0.1796  0.0691  0.0086
  862loPI   C1A13455  13.760   1.326   6.401  0.1193 -0.0433 -0.1604
  862loPI   C2A13456  13.641   1.322   6.819 -0.0565 -0.0906 -0.2025
  862loPI   C3A13457  13.562   1.306   7.294 -0.0718 -0.0365 -0.0355
  862loPI   C4A13458  13.755   1.471   7.731  0.3020  0.0612 -0.2928
  862loPI   C5A13459  13.484   1.637   8.139  0.1566  0.0663  0.1293
  862loPI   C6A13460  12.992   1.737   8.107 -0.1456 -0.2305 -0.1729
  862loPI   C1B13461  13.935   0.937   6.723  0.0399 -0.1515 -0.0385
  862loPI   C2B13462  13.790   0.897   7.111 -0.1651  0.0756  0.4276
  862loPI   C3B13463  13.791   0.892   7.586 -0.5462 -0.0358 -0.0589
  862loPI   C4B13464  13.711   0.520   8.002  0.0638  0.1964 -0.0295
  863loPI    C113465   6.734   0.269   4.657  0.0766  0.1343  0.0185
  863loPI    C213466   7.069   0.455   4.772  0.2462 -0.1732  0.0317
  863loPI    C313467   7.074   0.214   4.453 -0.0027 -0.0538 -0.0648
  863loPI   PO413468   6.627   0.239   4.926 -0.1481 -0.1872 -0.1252
  863loPI   GL113469   6.463   0.304   5.365 -0.0065  0.1916 -0.0112
  863loPI   GL213470   6.301   0.094   5.344 -0.2155  0.2430 -0.3722
  863loPI   C1A13471   6.675   0.404   5.807 -0.0669  0.1462  0.2224
  863loPI   C2A13472   6.658   0.350   6.206 -0.0674 -0.0606  0.0734
  863loPI   C3A13473   6.728   0.119   6.588  0.2541  0.0579  0.0209
  863loPI   C4A13474   6.684   0.077   7.071 -0.1015 -0.2080  0.1598
  863loPI   C5A13475   6.612  -0.000   7.445 -0.1171  0.1631 -0.1828
  863loPI   C6A13476   6.203   0.065   7.774 -0.4582 -0.0438  0.3398
  863loPI   C1B13477   6.263   0.114   5.763  0.0709  0.0457  0.0025
  863loPI   C2B13478   6.318   0.004   6.313  0.1387 -0.2508 -0.1668
  863loPI   C3B13479   6.228   0.105   6.770 -0.1076  0.1198  0.2533
  863loPI   C4B13480   6.178   0.160   7.250 -0.1874  0.0061 -0.3094
  864loPI    C113481   5.165  10.163   5.494 -0.0938 -0.1130 -0.1043
  864loPI    C213482   4.969  10.424   5.262 -0.1115 -0.0208  0.0132
  864loPI    C313483   5.302  10.537   5.453 -0.1078 -0.0904  0.0482
  864loPI   PO413484   5.046  10.086   5.688 -0.1805  0.0315  0.0116
  864loPI   GL113485   4.832  10.065   5.971 -0.1614 -0.4946 -0.0760
  864loPI   GL213486   4.562  10.043   5.935 -0.2116 -0.0194  0.1766
  864loPI   C1A13487   4.738   9.984   6.442  0.0960  0.0840  0.0881
  864loPI   C2A13488   4.687   9.954   6.955 -0.0020 -0.0531 -0.1547
  864loPI   C3A13489   4.791   9.975   7.422  0.1704 -0.0795 -0.0073
  864loPI   C4A13490   4.777  10.137   7.784  0.1101  0.1521 -0.2409
  864loPI   C5A13491   4.673  10.600   7.857 -0.0727  0.2874 -0.3401
  864loPI   C6A13492   4.414  10.914   7.816  0.0245 -0.1864  0.1354
  864loPI   C1B13493   4.310  10.174   6.207  0.0269  0.0317  0.0519
  864loPI   C2B13494   4.236  10.054   6.642  0.0968 -0.0237  0.1431
  864loPI   C3B13495   4.214  10.066   7.088 -0.1772  0.0756 -0.0444
  864loPI   C4B13496   4.279  10.070   7.521 -0.2500  0.0806 -0.0691
  865loPI    C113497  12.700   8.018   5.087 -0.1750 -0.0797 -0.0409
  865loPI    C213498  12.392   8.191   4.899 -0.0727 -0.0277 -0.1617
  865loPI    C313499  12.541   7.846   4.763 -0.0968 -0.0679 -0.0860
  865loPI   PO413500  12.588   8.054   5.356 -0.3091 -0.0146 -0.0119
  865loPI   GL113501  12.484   7.829   5.688 -0.2264 -0.1727  0.2946
  865loPI   GL213502  12.460   7.500   5.894 -0.1222  0.2092  0.1324
  865loPI   C1A13503  12.599   7.844   6.147 -0.0174  0.1469  0.2356
  865loPI   C2A13504  12.594   7.807   6.568  0.1129 -0.1627  0.1083
  865loPI   C3A13505  12.688   7.803   6.848 -0.1511 -0.1477 -0.0876
  865loPI   C4A13506  12.704   7.847   7.281 -0.0214  0.3458  0.0348
  865loPI   C5A13507  12.740   7.791   7.713  0.0581  0.1948 -0.1012
  865loPI   C6A13508  12.842   7.690   8.126 -0.1940  0.1650  0.0494
  865loPI   C1B13509  12.431   7.360   6.337 -0.2115  0.2566 -0.0120
  865loPI   C2B13510  12.489   7.325   6.792 -0.0630 -0.2578 -0.2492
  865loPI   C3B13511  12.452   7.416   7.149 -0.0414  0.0460  0.1894
  865loPI   C4B13512  12.529   7.312   7.454  0.0204 -0.0475  0.1502
  866loPI    C113513   8.793   9.021   5.468  0.0311 -0.0592 -0.1819
  866loPI    C213514   8.417   9.128   5.387 -0.0351 -0.2531 -0.1357
  866loPI    C313515   8.601   8.857   5.158  0.0757 -0.1617 -0.1557
  866loPI   PO413516   8.741   8.931   5.775 -0.1525  0.2222 -0.1952
  866loPI   GL113517   9.034   8.610   6.062 -0.3298 -0.2513 -0.2808
  866loPI   GL213518   8.746   8.535   6.079  0.1169 -0.1610 -0.1429
  866loPI   C1A13519   9.028   8.600   6.537  0.4046  0.0995 -0.0788
  866loPI   C2A13520   8.860   8.537   6.921 -0.0003 -0.1249  0.1899
  866loPI   C3A13521   8.678   8.653   7.268  0.0801 -0.2106  0.0046
  866loPI   C4A13522   8.718   8.511   7.711  0.1630  0.2364 -0.2264
  866loPI   C5A13523   8.406   8.515   8.000 -0.0981 -0.1689 -0.1843
  866loPI   C6A13524   7.976   8.714   8.121  0.0457 -0.1961 -0.0039
  866loPI   C1B13525   8.485   8.382   6.399  0.1397  0.1705 -0.3166
  866loPI   C2B13526   8.375   8.306   6.723  0.1068  0.1628  0.1291
  866loPI   C3B13527   8.353   8.305   7.087  0.3593  0.0709  0.2505
  866loPI   C4B13528   8.341   8.298   7.504  0.1832 -0.0058  0.0830
  867loPI    C113529   1.924   2.568   5.128 -0.1218 -0.0799  0.1441
  867loPI    C213530   2.168   2.257   5.071  0.0041  0.0622 -0.1112
  867loPI    C313531   1.989   2.430   4.759 -0.2034  0.1373  0.0467
  867loPI   PO413532   1.840   2.673   5.412  0.2858  0.0343 -0.0838
  867loPI   GL113533   1.856   2.457   5.668  0.4878  0.1518  0.1541
  867loPI   GL213534   2.045   2.312   5.675  0.1070  0.0805  0.2012
  867loPI   C1A13535   1.608   2.234   5.984 -0.0625  0.0921 -0.1520
  867loPI   C2A13536   1.569   2.220   6.406  0.2833 -0.1545 -0.0578
  867loPI   C3A13537   1.644   2.260   6.840 -0.0343  0.1007  0.1856
  867loPI   C4A13538   1.480   2.273   7.160 -0.1223  0.1194  0.3139
  867loPI   C5A13539   1.472   2.449   7.448  0.0488 -0.1068  0.1532
  867loPI   C6A13540   1.529   2.306   7.807  0.1676 -0.1334 -0.1115
  867loPI   C1B13541   2.062   2.120   6.100  0.3858 -0.1309 -0.2313
  867loPI   C2B13542   2.073   2.147   6.533  0.0418  0.0961 -0.0802
  867loPI   C3B13543   2.107   2.204   7.005  0.3740  0.4282  0.0047
  867loPI   C4B13544   1.938   2.325   7.468 -0.0883  0.1022  0.0935
  868loPI    C113545   4.269   6.430   4.927 -0.0868 -0.0032  0.0079
  868loPI    C213546   4.081   6.727   4.735  0.2097 -0.0230 -0.3231
  868loPI    C313547   4.037   6.349   4.612 -0.0566 -0.1069  0.0122
  868loPI   PO413548   4.257   6.418   5.128 -0.3713  0.2060  0.0859
  868loPI   GL113549   4.334   6.545   5.505 -0.0658  0.2010  0.0004
  868loPI   GL213550   4.251   6.707   5.661  0.1928 -0.0627  0.1852
  868loPI   C1A13551   4.144   6.308   5.869 -0.1804 -0.3121 -0.1602
  868loPI   C2A13552   4.220   6.262   6.286 -0.1202  0.1361 -0.2434
  868loPI   C3A13553   4.241   6.341   6.745 -0.2282  0.1089 -0.0047
  868loPI   C4A13554   4.218   6.310   7.130  0.0164  0.0870  0.0250
  868loPI   C5A13555   4.329   6.110   7.466 -0.1146  0.0423  0.0716
  868loPI   C6A13556   4.462   5.738   7.659 -0.1895  0.0835  0.0554
  868loPI   C1B13557   4.099   6.735   6.083  0.0033 -0.3431 -0.1669
  868loPI   C2B13558   4.177   6.798   6.586 -0.2521 -0.2461  0.1434
  868loPI   C3B13559   4.187   6.825   7.032  0.0349 -0.1686 -0.1516
  868loPI   C4B13560   4.133   6.766   7.460 -0.1647  0.1720  0.0449
  869loPI    C113561   0.301  13.453   5.153 -0.0583 -0.1849 -0.1316
  869loPI    C213562  -0.076  13.364   5.053 -0.0372 -0.1671 -0.2280
  869loPI    C313563   0.178  13.500   4.775 -0.0232  0.0393 -0.1163
  869loPI   PO413564   0.329  13.263   5.320  0.0205 -0.0290 -0.0907
  869loPI   GL113565   0.653  13.227   5.654 -0.0633  0.2674  0.0101
  869loPI   GL213566   0.938  13.132   5.680 -0.0924 -0.1558 -0.2571
  869loPI   C1A13567   0.585  13.006   6.017  0.1492  0.0841 -0.0189
  869loPI   C2A13568   0.529  12.894   6.446  0.1507 -0.1180 -0.1239
  869loPI   C3A13569   0.609  12.879   6.868  0.0077  0.0665  0.1666
  869loPI   C4A13570   0.579  12.816   7.276  0.2275  0.1968 -0.0210
  869loPI   C5A13571   0.676  12.670   7.603 -0.3369 -0.0149  0.4331
  869loPI   C6A13572   0.686  12.675   7.997  0.2154  0.0472  0.4878
  869loPI   C1B13573   1.048  13.208   6.114  0.1530  0.2604 -0.1096
  869loPI   C2B13574   0.948  13.192   6.543  0.0668 -0.1542  0.1193
  869loPI   C3B13575   1.017  13.117   7.022 -0.0285 -0.0470 -0.1293
  869loPI   C4B13576   0.884  13.152   7.504 -0.0810 -0.0694 -0.3538
  870loPI    C113577   7.508  10.743   5.635 -0.0228  0.1488  0.0041
  870loPI    C213578   7.780  10.489   5.486 -0.0398  0.0789  0.0911
  870loPI    C313579   7.708  10.837   5.301 -0.0431  0.0043 -0.0495
  870loPI   PO413580   7.568  10.805   5.879  0.1829  0.0163  0.4412
  870loPI   GL113581   7.399  10.905   6.259 -0.1742 -0.0718 -0.0260
  870loPI   GL213582   7.645  11.097   6.484  0.2368 -0.1119  0.0123
  870loPI   C1A13583   7.086  11.132   6.474  0.4680 -0.2912 -0.1204
  870loPI   C2A13584   6.873  11.217   6.914 -0.0710  0.2377  0.0038
  870loPI   C3A13585   6.766  11.220   7.362 -0.0365  0.0079 -0.0423
  870loPI   C4A13586   6.828  11.034   7.768  0.2019  0.3945  0.1280
  870loPI   C5A13587   6.647  10.900   8.135  0.2457  0.1154 -0.0553
  870loPI   C6A13588   6.365  10.682   8.350 -0.1628  0.1375 -0.1479
  870loPI   C1B13589   7.393  11.028   6.935  0.1596 -0.0361  0.1478
  870loPI   C2B13590   7.151  10.887   7.347  0.3904  0.1163  0.0221
  870loPI   C3B13591   7.317  10.919   7.731  0.2585  0.1019  0.1143
  870loPI   C4B13592   7.610  11.002   8.066  0.0211 -0.0017  0.1854
  871loPI    C113593   9.515   6.305   5.258 -0.0271 -0.0971  0.1491
  871loPI    C213594   9.367   6.124   4.933 -0.0655  0.0734  0.0704
  871loPI    C313595   9.365   6.524   4.958  0.2577  0.0739  0.1281
  871loPI   PO413596   9.465   6.194   5.465 -0.0221 -0.0288  0.0780
  871loPI   GL113597   9.547   6.003   5.801 -0.2424  0.3700  0.1157
  871loPI   GL213598   9.706   6.199   5.995  0.0104 -0.0348  0.3162
  871loPI   C1A13599   9.292   5.831   6.117  0.1727  0.3836 -0.0587
  871loPI   C2A13600   9.003   5.729   6.473 -0.0671  0.1776  0.0684
  871loPI   C3A13601   9.058   5.813   6.840 -0.2118 -0.1285 -0.1181
  871loPI   C4A13602   9.482   5.621   7.031 -0.2187 -0.0993 -0.0480
  871loPI   C5A13603   9.900   5.536   6.986  0.1564 -0.1549  0.1432
  871loPI   C6A13604  10.271   5.673   7.142 -0.0881  0.0278 -0.0007
  871loPI   C1B13605   9.538   6.238   6.344  0.2086 -0.1719  0.2177
  871loPI   C2B13606   9.468   6.033   6.721 -0.0690  0.0295 -0.0074
  871loPI   C3B13607   9.332   6.155   7.045 -0.1752  0.0029 -0.0898
  871loPI   C4B13608   9.211   6.064   7.361  0.1232  0.0866  0.2205
  872loPI    C113609  16.990   4.291   5.482  0.2384  0.0294 -0.0313
  872loPI    C213610  16.859   4.636   5.328 -0.2243 -0.1524 -0.0626
  872loPI    C313611  16.709   4.289   5.198  0.1684 -0.3652  0.0346
  872loPI   PO413612  16.977   4.336   5.776  0.0640  0.1221  0.0284
  872loPI   GL113613  17.095   4.527   6.130  0.0304  0.0448 -0.1128
  872loPI   GL213614  17.282   4.213   6.136 -0.1239  0.1160  0.0980
  872loPI   C1A13615  17.135   4.698   6.450 -0.0115 -0.0971  0.0211
  872loPI   C2A13616  17.297   4.743   6.771 -0.0702 -0.2413 -0.1135
  872loPI   C3A13617  17.461   4.668   7.186  0.0078 -0.1856 -0.0036
  872loPI   C4A13618  17.452   4.983   7.511 -0.0183  0.2021  0.1710
  872loPI   C5A13619  17.342   4.994   7.952  0.0518 -0.3935  0.0714
  872loPI   C6A13620  17.490   4.904   8.216 -0.2229 -0.3474  0.3175
  872loPI   C1B13621  17.274   4.277   6.551  0.1475 -0.0336  0.1996
  872loPI   C2B13622  17.229   4.292   7.007  0.0584  0.3013  0.0887
  872loPI   C3B13623  17.314   4.287   7.517 -0.1056  0.0309 -0.1048
  872loPI   C4B13624  17.604   4.519   7.719  0.1036  0.3652 -0.0015
  873loPI    C113625  14.755  12.114   5.317  0.1117  0.1226 -0.2030
  873loPI    C213626  14.423  12.173   5.103  0.1307  0.1585 -0.2226
  873loPI    C313627  14.556  11.801   5.167 -0.2437  0.1021  0.2871
  873loPI   PO413628  14.845  12.325   5.489  0.1406  0.3274 -0.1632
  873loPI   GL113629  15.050  12.375   6.042  0.1867 -0.0796 -0.0094
  873loPI   GL213630  14.898  12.571   6.173  0.4506  0.0857  0.0094
  873loPI   C1A13631  15.379  12.421   6.248 -0.2078 -0.2006 -0.0726
  873loPI   C2A13632  15.336  12.426   6.693  0.0706 -0.0663  0.0386
  873loPI   C3A13633  15.234  12.317   7.137  0.1277  0.2105 -0.0104
  873loPI   C4A13634  15.468  12.143   7.369  0.0056  0.1407 -0.1585
  873loPI   C5A13635  15.534  12.335   7.654 -0.2904  0.2595  0.2475
  873loPI   C6A13636  15.475  12.334   8.048  0.0659 -0.0892  0.0602
  873loPI   C1B13637  14.842  12.407   6.516  0.0912  0.2714 -0.0142
  873loPI   C2B13638  14.668  12.228   6.945  0.3251 -0.1628  0.0272
  873loPI   C3B13639  14.677  12.055   7.336 -0.2594 -0.0191 -0.1982
  873loPI   C4B13640  14.670  12.108   7.787  0.0231 -0.1677  0.0160
  874loPI    C113641  16.685  13.439   5.592  0.1258 -0.1860  0.2001
  874loPI    C213642  16.318  13.404   5.436  0.1365  0.0037  0.1296
  874loPI    C313643  16.598  13.131   5.353  0.0248 -0.1170  0.1469
  874loPI   PO413644  16.664  13.450   5.875  0.4795  0.1841  0.3012
  874loPI   GL113645  16.447  13.312   6.246  0.0135 -0.1588 -0.1205
  874loPI   GL213646  16.548  13.029   6.293 -0.0975 -0.1587 -0.2864
  874loPI   C1A13647  16.365  13.344   6.660  0.1089 -0.3102  0.2770
  874loPI   C2A13648  16.535  13.277   7.118 -0.1931 -0.3834  0.1051
  874loPI   C3A13649  16.468  13.197   7.541 -0.2840 -0.1132 -0.0615
  874loPI   C4A13650  16.649  13.087   7.822 -0.1757  0.1163  0.0825
  874loPI   C5A13651  16.723  12.926   8.229 -0.0203 -0.1793 -0.1189
  874loPI   C6A13652  16.602  12.585   8.495  0.0247 -0.2300 -0.0984
  874loPI   C1B13653  16.788  13.103   6.653  0.2090  0.1640  0.0134
  874loPI   C2B13654  16.922  12.901   7.052  0.1115 -0.1615  0.2169
  874loPI   C3B13655  16.932  12.761   7.526 -0.0360 -0.0066 -0.0885
  874loPI   C4B13656  17.174  12.943   7.903  0.1098 -0.0355 -0.1674
  875loPI    C113657  11.463  12.379   5.605 -0.1094 -0.1156 -0.2774
  875loPI    C213658  11.275  12.731   5.630 -0.0397 -0.1013  0.1072
  875loPI    C313659  11.395  12.593   5.274 -0.1163  0.2361 -0.0535
  875loPI   PO413660  11.263  12.247   5.702 -0.0046  0.0688 -0.1042
  875loPI   GL113661  10.990  12.363   5.985  0.3068 -0.0502 -0.0591
  875loPI   GL213662  10.792  12.587   5.787  0.5768 -0.1570  0.0862
  875loPI   C1A13663  11.014  12.207   6.365 -0.0890  0.2816 -0.0588
  875loPI   C2A13664  11.002  12.215   6.829 -0.2349  0.1759 -0.1681
  875loPI   C3A13665  11.052  12.179   7.284 -0.2493 -0.0289  0.0245
  875loPI   C4A13666  11.054  12.314   7.776  0.0664  0.1054 -0.0572
  875loPI   C5A13667  10.782  12.245   8.046  0.0047 -0.0373  0.0391
  875loPI   C6A13668  10.412  12.342   8.286  0.0699 -0.0104  0.1094
  875loPI   C1B13669  10.865  12.830   6.192  0.1437 -0.0303 -0.0773
  875loPI   C2B13670  10.945  13.111   6.570 -0.0808 -0.0669 -0.1632
  875loPI   C3B13671  10.991  13.129   6.931 -0.0160 -0.0458 -0.1113
  875loPI   C4B13672  11.028  13.008   7.336 -0.0253  0.0769  0.0319
  876loPI    C113673   6.089   9.284   5.302  0.0631  0.0786  0.1806
  876loPI    C213674   5.700   9.243   5.217  0.0750  0.0718  0.1295
  876loPI    C313675   5.906   9.553   5.068  0.1641 -0.0971 -0.1054
  876loPI   PO413676   6.117   9.245   5.499  0.2235 -0.5220 -0.2022
  876loPI   GL113677   6.261   9.274   5.963  0.0667  0.2600  0.0472
  876loPI   GL213678   6.170   9.559   5.957  0.0468  0.1996 -0.3818
  876loPI   C1A13679   6.362   9.103   6.256  0.0253 -0.2238 -0.2682
  876loPI   C2A13680   6.339   8.929   6.664 -0.3265 -0.0426  0.1753
  876loPI   C3A13681   6.369   8.975   7.157  0.2975  0.3587 -0.0885
  876loPI   C4A13682   6.297   8.877   7.564  0.0526  0.0874  0.0814
  876loPI   C5A13683   6.053   8.918   7.908 -0.0929  0.1571 -0.0647
  876loPI   C6A13684   5.796   9.226   7.979  0.4320  0.1271 -0.0837
  876loPI   C1B13685   6.192   9.549   6.440 -0.2696 -0.1292  0.1043
  876loPI   C2B13686   6.296   9.374   6.824  0.4819  0.1727 -0.0526
  876loPI   C3B13687   6.146   9.438   7.182 -0.1114 -0.0010  0.1033
  876loPI   C4B13688   6.183   9.425   7.709 -0.0716  0.0234 -0.2050
  877loPI    C113689   1.816   8.809   5.348 -0.0255  0.0739  0.1226
  877loPI    C213690   2.062   9.046   5.556 -0.1337  0.1849  0.1254
  877loPI    C313691   1.743   9.202   5.371 -0.1045  0.0688 -0.0250
  877loPI   PO413692   1.722   8.610   5.508 -0.0995  0.3200  0.0503
  877loPI   GL113693   1.878   8.359   5.838 -0.0894  0.1003 -0.0803
  877loPI   GL213694   2.062   8.632   5.886  0.4823 -0.2100  0.0352
  877loPI   C1A13695   1.921   8.149   6.152  0.0226 -0.0093  0.0077
  877loPI   C2A13696   1.951   7.991   6.560 -0.3450 -0.1893  0.1515
  877loPI   C3A13697   1.943   7.765   6.936 -0.4027 -0.3259  0.4537
  877loPI   C4A13698   2.177   7.834   7.311  0.0900 -0.3049 -0.0617
  877loPI   C5A13699   2.234   7.758   7.749  0.0399 -0.1503  0.0720
  877loPI   C6A13700   2.404   7.784   8.148  0.0835  0.1066  0.0336
  877loPI   C1B13701   2.232   8.595   6.256 -0.1212  0.2042  0.0144
  877loPI   C2B13702   2.253   8.382   6.570 -0.0269 -0.2853 -0.0083
  877loPI   C3B13703   2.422   8.212   7.017 -0.0615 -0.0335 -0.1644
  877loPI   C4B13704   2.485   8.254   7.413  0.0585 -0.0657  0.1480
  878loPI    C113705  16.262  11.011   5.280 -0.2917 -0.1172 -0.1694
  878loPI    C213706  16.382  10.736   5.015 -0.1087 -0.1114 -0.0937
  878loPI    C313707  16.459  11.123   4.950 -0.1072 -0.1054 -0.0568
  878loPI   PO413708  16.346  10.807   5.529  0.0215 -0.0040  0.0861
  878loPI   GL113709  16.330  10.817   5.917 -0.0387  0.1310  0.0753
  878loPI   GL213710  16.539  10.585   5.904 -0.1026  0.3051  0.0064
  878loPI   C1A13711  16.238  10.878   6.346  0.0874 -0.3553 -0.0365
  878loPI   C2A13712  16.568  10.814   6.581 -0.2393  0.0862 -0.2265
  878loPI   C3A13713  16.832  10.897   7.012  0.2190  0.4443  0.3775
  878loPI   C4A13714  17.117  10.775   7.298 -0.0865 -0.2440  0.0750
  878loPI   C5A13715  17.172  10.904   7.696  0.1350  0.0479 -0.0258
  878loPI   C6A13716  17.002  11.096   8.059  0.4782 -0.1900  0.4832
  878loPI   C1B13717  16.395  10.375   6.332 -0.0790 -0.0814  0.2716
  878loPI   C2B13718  16.293  10.034   6.733 -0.4198  0.0688 -0.2802
  878loPI   C3B13719  16.216  10.075   7.196 -0.0823  0.1218  0.5114
  878loPI   C4B13720  16.323  10.133   7.595 -0.0450 -0.1488  0.1276
  879loPI    C113721  15.554  13.837   5.787 -0.1631  0.0300  0.1538
  879loPI    C213722  15.382  13.477   5.820 -0.2770  0.0927  0.2522
  879loPI    C313723  15.458  13.630   5.458  0.1864 -0.2251  0.2063
  879loPI   PO413724  15.729  13.788   6.047 -0.0989  0.2714 -0.2920
  879loPI   GL113725  15.622  13.730   6.530 -0.4724  0.0615  0.2475
  879loPI   GL213726  15.487  14.073   6.472  0.2531 -0.0722 -0.0228
  879loPI   C1A13727  15.818  13.493   6.811  0.2059 -0.1036  0.3013
  879loPI   C2A13728  16.029  13.227   7.096 -0.0180  0.2252  0.2359
  879loPI   C3A13729  16.006  12.868   7.341 -0.3212 -0.0699 -0.1016
  879loPI   C4A13730  15.932  12.640   7.704  0.0952 -0.1387 -0.2789
  879loPI   C5A13731  15.979  12.401   8.045  0.1908 -0.0389  0.1390
  879loPI   C6A13732  16.065  12.223   8.386  0.0908  0.0107  0.0191
  879loPI   C1B13733  15.299  14.179   6.839 -0.0571  0.2706  0.1164
  879loPI   C2B13734  15.556  14.073   7.147  0.1490  0.4583 -0.1304
  879loPI   C3B13735  15.803  13.909   7.472 -0.0848 -0.0460 -0.1326
  879loPI   C4B13736  15.769  13.961   7.825 -0.0576 -0.0473  0.1556
  880loPI    C113737  10.836  11.272   5.483 -0.1721  0.0226 -0.1215
  880loPI    C213738  11.005  10.934   5.351 -0.2885 -0.1407  0.1408
  880loPI    C313739  10.874  11.207   5.090  0.0586 -0.1694 -0.0695
  880loPI   PO413740  10.968  11.300   5.743  0.0702 -0.2745 -0.1418
  880loPI   GL113741  10.863  11.319   6.095  0.2970 -0.1630  0.0072
  880loPI   GL213742  10.577  11.378   6.287  0.0627 -0.0342  0.0940
  880loPI   C1A13743  11.010  11.422   6.504 -0.2662 -0.0721 -0.0005
  880loPI   C2A13744  11.017  11.438   6.955 -0.1010 -0.1036 -0.0178
  880loPI   C3A13745  10.945  11.300   7.373  0.2259 -0.1482 -0.0544
  880loPI   C4A13746  11.024  11.238   7.752  0.1801  0.1238  0.3655
  880loPI   C5A13747  11.355  11.418   8.000 -0.2444 -0.0401 -0.0700
  880loPI   C6A13748  11.672  11.752   7.905 -0.1039  0.0642  0.1194
  880loPI   C1B13749  10.475  11.383   6.697  0.4385 -0.0711 -0.0634
  880loPI   C2B13750  10.465  11.367   7.176  0.1032 -0.0580  0.3948
  880loPI   C3B13751  10.471  11.389   7.483  0.1403  0.0386  0.0314
  880loPI   C4B13752  10.477  11.379   7.836  0.2656 -0.0632 -0.3340
  881loPI    C113753  13.977  16.844   5.421  0.0299  0.0843  0.1116
  881loPI    C213754  13.753  16.537   5.295 -0.1250  0.2155  0.0648
  881loPI    C313755  13.857  16.827   5.040  0.2136  0.0878  0.0525
  881loPI   PO413756  13.965  16.806   5.676 -0.1376  0.0642 -0.1398
  881loPI   GL113757  13.769  16.709   6.122 -0.3537  0.1365  0.1160
  881loPI   GL213758  13.939  16.394   6.292  0.0724  0.1442 -0.2418
  881loPI   C1A13759  13.925  16.847   6.506  0.1405  0.1594  0.3478
  881loPI   C2A13760  13.808  16.932   6.910  0.1902  0.0309 -0.1693
  881loPI   C3A13761  13.577  16.909   7.289  0.0661  0.0323 -0.2028
  881loPI   C4A13762  13.536  17.195   7.623 -0.2829 -0.4692  0.1314
  881loPI   C5A13763  13.358  17.340   7.986 -0.0716  0.1176  0.2612
  881loPI   C6A13764  13.324  17.481   8.294  0.2680  0.0064  0.4938
  881loPI   C1B13765  13.790  16.412   6.722  0.1267  0.0754  0.0332
  881loPI   C2B13766  13.665  16.442   7.114  0.1970 -0.2377 -0.3440
  881loPI   C3B13767  13.429  16.459   7.505 -0.0552 -0.1244  0.1579
  881loPI   C4B13768  13.641  16.738   7.813  0.1806 -0.0032  0.0657
  882loPI    C113769  14.261   7.201   5.261 -0.0146 -0.3394 -0.0204
  882loPI    C213770  14.647   7.292   5.317 -0.0438 -0.0851 -0.2126
  882loPI    C313771  14.541   7.036   5.028 -0.0100 -0.2615 -0.0706
  882loPI   PO413772  14.140   7.134   5.449  0.4197  0.0781 -0.1870
  882loPI   GL113773  14.070   7.100   5.915 -0.1766 -0.0282 -0.2238
  882loPI   GL213774  13.832   7.264   6.107 -0.0039  0.0107 -0.2019
  882loPI   C1A13775  14.134   6.834   6.237 -0.1912 -0.0722  0.0502
  882loPI   C2A13776  14.071   6.816   6.695  0.0573 -0.2121  0.0570
  882loPI   C3A13777  14.025   6.778   7.199 -0.0193  0.1548  0.2319
  882loPI   C4A13778  14.189   6.807   7.688 -0.1097  0.0098 -0.2386
  882loPI   C5A13779  14.159   6.648   8.126  0.2361  0.1534  0.1499
  882loPI   C6A13780  14.292   6.246   8.384 -0.1039  0.1034  0.0557
  882loPI   C1B13781  13.783   7.167   6.497  0.3749 -0.2104  0.2093
  882loPI   C2B13782  13.780   7.167   6.975 -0.1653 -0.0613  0.0733
  882loPI   C3B13783  13.886   7.238   7.472  0.2906  0.1215 -0.1427
  882loPI   C4B13784  13.961   7.195   7.915 -0.0917  0.0073  0.1689
  883loPI    C113785   8.828   3.434   5.015  0.1032 -0.1486  0.1778
  883loPI    C213786   9.184   3.575   4.898 -0.0317 -0.1026 -0.1914
  883loPI    C313787   8.858   3.805   4.867 -0.1212 -0.2030 -0.0100
  883loPI   PO413788   8.874   3.338   5.250  0.2987 -0.2842  0.0793
  883loPI   GL113789   8.964   3.308   5.578 -0.0459 -0.2836 -0.0054
  883loPI   GL213790   9.063   3.064   5.598 -0.2186  0.1624 -0.1789
  883loPI   C1A13791   8.769   3.324   5.953 -0.0263  0.3196 -0.1712
  883loPI   C2A13792   8.784   3.116   6.437 -0.0689  0.1101  0.3050
  883loPI   C3A13793   8.763   2.968   6.860 -0.0072 -0.0467  0.0413
  883loPI   C4A13794   8.773   3.070   7.276  0.1309 -0.4329  0.0076
  883loPI   C5A13795   8.714   2.978   7.738  0.0941  0.0804  0.0304
  883loPI   C6A13796   8.840   2.724   8.041 -0.1718  0.0169 -0.0539
  883loPI   C1B13797   9.121   2.943   5.906 -0.1228  0.0867 -0.1180
  883loPI   C2B13798   9.254   2.895   6.245  0.3483 -0.1233 -0.0231
  883loPI   C3B13799   9.283   2.958   6.731 -0.0968 -0.0891 -0.1097
  883loPI   C4B13800   9.226   2.898   7.138  0.0279  0.1181 -0.0690
  884loPI    C113801   3.487   9.904   4.702  0.1376 -0.1455  0.0271
  884loPI    C213802   3.801   9.656   4.705  0.1662 -0.1106 -0.0528
  884loPI    C313803   3.451   9.533   4.556  0.1936 -0.0873 -0.1365
  884loPI   PO413804   3.508   9.958   5.032 -0.1284 -0.3063  0.0448
  884loPI   GL113805   3.658   9.943   5.455  0.2370  0.1980 -0.1713
  884loPI   GL213806   3.728   9.797   5.603  0.3766  0.3150  0.0615
  884loPI   C1A13807   3.452  10.095   5.861  0.1035  0.3454 -0.1522
  884loPI   C2A13808   3.318  10.274   6.244 -0.1629 -0.0340  0.0710
  884loPI   C3A13809   3.131  10.273   6.571  0.0586  0.0189 -0.2275
  884loPI   C4A13810   3.277  10.314   6.954  0.1182  0.0825 -0.1551
  884loPI   C5A13811   3.201  10.195   7.351 -0.0846 -0.4241 -0.1105
  884loPI   C6A13812   3.226  10.230   7.766  0.3083  0.3062 -0.0503
  884loPI   C1B13813   3.698   9.697   6.107 -0.2097  0.0260 -0.2545
  884loPI   C2B13814   3.825   9.675   6.535  0.1005 -0.0299  0.0553
  884loPI   C3B13815   3.870   9.630   6.997  0.0867 -0.0497  0.2709
  884loPI   C4B13816   3.874   9.671   7.404 -0.1256 -0.0708 -0.1187
  885loPI    C113817   9.627  10.643   5.427  0.0625  0.2468  0.0745
  885loPI    C213818   9.466  10.342   5.218  0.1981  0.1739  0.0736
  885loPI    C313819   9.412  10.721   5.099 -0.1234  0.1628  0.1747
  885loPI   PO413820   9.799  10.496   5.569  0.0693 -0.0197  0.2731
  885loPI   GL113821   9.804  10.277   5.996  0.0047 -0.0264 -0.1828
  885loPI   GL213822   9.664  10.274   6.365  0.1283  0.1740  0.1182
  885loPI   C1A13823  10.031  10.042   6.303 -0.3367 -0.1077  0.3751
  885loPI   C2A13824   9.953   9.724   6.649  0.1039 -0.0450  0.1495
  885loPI   C3A13825   9.883   9.306   6.877 -0.3923 -0.1205 -0.3055
  885loPI   C4A13826   9.635   9.143   7.187 -0.1415  0.3210  0.0767
  885loPI   C5A13827   9.552   8.874   7.577  0.1327 -0.1820  0.1125
  885loPI   C6A13828   9.363   8.582   7.822 -0.4741  0.0258  0.1464
  885loPI   C1B13829   9.653  10.098   6.710  0.3941 -0.1104 -0.2446
  885loPI   C2B13830   9.599   9.714   7.048  0.0330  0.0009  0.2072
  885loPI   C3B13831   9.615   9.645   7.431 -0.2171 -0.0863  0.0353
  885loPI   C4B13832   9.808   9.807   7.875  0.3345 -0.0586 -0.0408
  886loPI    C113833   9.990  16.395   5.058  0.0092  0.1746  0.0194
  886loPI    C213834   9.952  16.763   4.907  0.1613  0.1719 -0.0278
  886loPI    C313835  10.132  16.477   4.694  0.1261  0.0938  0.0462
  886loPI   PO413836  10.049  16.417   5.260  0.1400  0.1012 -0.0865
  886loPI   GL113837  10.014  16.551   5.701 -0.0117 -0.0983 -0.0857
  886loPI   GL213838  10.085  16.254   5.837  0.1951 -0.1751  0.0633
  886loPI   C1A13839   9.879  16.856   6.010 -0.1645 -0.0309 -0.0024
  886loPI   C2A13840   9.808  16.880   6.447  0.3668 -0.0773 -0.1660
  886loPI   C3A13841   9.739  16.897   6.915 -0.2097 -0.0044  0.0264
  886loPI   C4A13842   9.794  16.855   7.340  0.3022  0.2079 -0.1276
  886loPI   C5A13843   9.654  16.793   7.680 -0.2666  0.1549  0.1222
  886loPI   C6A13844   9.464  16.836   8.055  0.0286 -0.2856 -0.1627
  886loPI   C1B13845   9.983  16.323   6.247 -0.0317  0.0797 -0.1320
  886loPI   C2B13846   9.895  16.450   6.671  0.1525 -0.1350 -0.0060
  886loPI   C3B13847   9.988  16.378   6.970  0.1527 -0.0670  0.1338
  886loPI   C4B13848   9.862  16.375   7.400  0.0843  0.1915 -0.1998
  887loPI    C113849   7.414   5.620   5.425 -0.3304  0.0535 -0.0030
  887loPI    C213850   7.224   5.497   5.096 -0.1887  0.0592 -0.0877
  887loPI    C313851   7.600   5.631   5.071 -0.0469 -0.2856  0.1292
  887loPI   PO413852   7.182   5.758   5.580  0.0259 -0.0456 -0.0484
  887loPI   GL113853   7.042   5.875   5.913  0.0785  0.0588  0.0083
  887loPI   GL213854   7.337   5.724   6.022 -0.1944 -0.2324 -0.0111
  887loPI   C1A13855   7.041   5.923   6.439 -0.1411  0.1502 -0.2824
  887loPI   C2A13856   7.127   5.789   6.841 -0.0175 -0.1155  0.0047
  887loPI   C3A13857   7.160   5.840   7.212 -0.1452 -0.3252  0.0020
  887loPI   C4A13858   7.080   5.739   7.513 -0.1300 -0.1119  0.2481
  887loPI   C5A13859   6.906   5.483   7.772  0.0260 -0.1821  0.0541
  887loPI   C6A13860   6.523   5.375   8.049 -0.2831 -0.1130  0.1515
  887loPI   C1B13861   7.460   5.705   6.394 -0.0554 -0.2215 -0.1050
  887loPI   C2B13862   7.610   5.782   6.791  0.3433 -0.1690  0.1561
  887loPI   C3B13863   7.616   5.665   7.180  0.0264 -0.0835  0.1457
  887loPI   C4B13864   7.795   5.591   7.617 -0.2537 -0.4057  0.0304
  888loPI    C113865  17.198   1.855   5.518 -0.2006 -0.1156 -0.0020
  888loPI    C213866  17.181   2.137   5.235 -0.2650 -0.1368 -0.0195
  888loPI    C313867  16.852   1.933   5.334 -0.2883  0.0085  0.2104
  888loPI   PO413868  17.353   2.000   5.703  0.0920  0.0097 -0.1857
  888loPI   GL113869  17.207   2.203   6.068  0.2431 -0.1223  0.0525
  888loPI   GL213870  17.516   2.419   6.078  0.1274 -0.0112 -0.0248
  888loPI   C1A13871  17.214   2.200   6.501  0.0713  0.2325 -0.0320
  888loPI   C2A13872  17.120   2.237   6.876 -0.1525 -0.4923  0.1101
  888loPI   C3A13873  17.083   2.479   7.164  0.0283  0.1568  0.3779
  888loPI   C4A13874  16.992   2.555   7.613  0.3134 -0.3238 -0.0121
  888loPI   C5A13875  16.864   2.725   7.972 -0.0093  0.0791 -0.1037
  888loPI   C6A13876  16.991   2.789   8.480  0.2527 -0.0041  0.0971
  888loPI   C1B13877  17.538   2.680   6.499  0.3030  0.0948 -0.2104
  888loPI   C2B13878  17.773   2.843   6.716  0.0587 -0.1464  0.0849
  888loPI   C3B13879  17.592   2.855   7.089  0.2139 -0.0138  0.1638
  888loPI   C4B13880  17.480   2.599   7.413 -0.0451  0.0850  0.0288
  889loPI    C113881   6.320   9.833   5.149  0.0880 -0.0297 -0.0168
  889loPI    C213882   6.530  10.140   5.295  0.0874 -0.0274 -0.0208
  889loPI    C313883   6.310  10.188   4.964 -0.1794  0.0607  0.1659
  889loPI   PO413884   6.345   9.710   5.343 -0.1746  0.2325  0.0570
  889loPI   GL113885   6.569   9.802   5.711  0.2994 -0.0166  0.0998
  889loPI   GL213886   6.326   9.999   5.786  0.1816  0.0905 -0.0446
  889loPI   C1A13887   6.543   9.853   6.221 -0.1066  0.0677 -0.0735
  889loPI   C2A13888   6.581   9.845   6.686  0.0997 -0.1282  0.0762
  889loPI   C3A13889   6.755   9.675   7.051  0.0656  0.0461 -0.0173
  889loPI   C4A13890   6.814   9.800   7.413 -0.0299  0.0383  0.0573
  889loPI   C5A13891   6.996   9.570   7.766  0.2666  0.1833  0.0041
  889loPI   C6A13892   7.214   9.321   8.036 -0.1564 -0.2676 -0.0225
  889loPI   C1B13893   6.097  10.099   6.185  0.0612 -0.1096 -0.0666
  889loPI   C2B13894   6.080  10.081   6.595 -0.0809  0.2369  0.3030
  889loPI   C3B13895   6.116   9.958   7.069  0.1103  0.1547 -0.2594
  889loPI   C4B13896   6.327   9.863   7.516 -0.0049  0.1689  0.1243
  890loPI    C113897  10.600  16.545   4.917  0.1215 -0.0330  0.0357
  890loPI    C213898  10.471  16.920   4.862  0.0914 -0.0478  0.0054
  890loPI    C313899  10.597  16.704   4.550  0.1770 -0.0383  0.0330
  890loPI   PO413900  10.552  16.503   5.179  0.0931  0.2727  0.2763
  890loPI   GL113901  10.480  16.569   5.630 -0.2074 -0.1755 -0.0261
  890loPI   GL213902  10.612  16.355   5.826  0.2192 -0.2353 -0.0632
  890loPI   C1A13903  10.309  16.694   6.041 -0.2544 -0.0373 -0.0824
  890loPI   C2A13904  10.316  16.762   6.419  0.1507  0.0841  0.1010
  890loPI   C3A13905  10.259  16.805   6.889  0.2574  0.1801 -0.0727
  890loPI   C4A13906  10.295  16.739   7.282 -0.0968  0.0064 -0.2979
  890loPI   C5A13907  10.186  16.809   7.633  0.2238 -0.2786  0.0368
  890loPI   C6A13908  10.284  16.768   7.971 -0.2031 -0.0836 -0.1819
  890loPI   C1B13909  10.497  16.270   6.249  0.1602 -0.1746  0.0712
  890loPI   C2B13910  10.365  16.282   6.623 -0.1224  0.1695  0.1354
  890loPI   C3B13911  10.471  16.322   7.104  0.2870  0.1169 -0.2773
  890loPI   C4B13912  10.358  16.295   7.568 -0.1347  0.0047  0.0819
  891loPI    C113913  17.363   3.675   5.894  0.0540 -0.1668  0.0340
  891loPI    C213914  17.046   3.774   5.670 -0.0072 -0.1957  0.1072
  891loPI    C313915  17.365   4.015   5.684 -0.0646 -0.1196  0.1080
  891loPI   PO413916  17.322   3.363   5.805  0.0855 -0.2583 -0.0410
  891loPI   GL113917  17.382   3.224   6.266 -0.3462 -0.1790 -0.2552
  891loPI   GL213918  17.178   2.996   6.331 -0.1386 -0.2803  0.0572
  891loPI   C1A13919  17.604   3.368   6.528  0.1404 -0.1578  0.0708
  891loPI   C2A13920  17.634   3.367   7.018 -0.0333  0.1719 -0.0912
  891loPI   C3A13921  17.488   3.352   7.523 -0.3278 -0.0016  0.2159
  891loPI   C4A13922  17.664   3.429   7.916  0.3261  0.1961 -0.1993
  891loPI   C5A13923  17.931   3.578   8.106 -0.1008  0.1144 -0.1666
  891loPI   C6A13924  18.345   3.674   8.271 -0.1221 -0.0836 -0.0903
  891loPI   C1B13925  17.188   2.947   6.767  0.1171 -0.0110  0.0686
  891loPI   C2B13926  17.121   2.985   7.249  0.1418  0.1168 -0.0039
  891loPI   C3B13927  16.945   3.105   7.690  0.1795 -0.0488  0.1949
  891loPI   C4B13928  17.188   3.321   7.970  0.0830 -0.0504  0.0801
  892loPI    C113929  14.095  18.171   5.752 -0.0107  0.0958 -0.0379
  892loPI    C213930  14.376  18.412   5.599  0.2684 -0.2332 -0.0564
  892loPI    C313931  14.062  18.302   5.376  0.0481  0.2414  0.0069
  892loPI   PO413932  14.101  18.242   5.972 -0.0280 -0.3419  0.2807
  892loPI   GL113933  14.088  18.514   6.418  0.3425 -0.0375 -0.1010
  892loPI   GL213934  14.320  18.665   6.421 -0.2798 -0.0026  0.0337
  892loPI   C1A13935  13.913  18.619   6.847 -0.1699 -0.0146 -0.2780
  892loPI   C2A13936  13.994  18.551   7.233  0.1193 -0.0639  0.0061
  892loPI   C3A13937  14.086  18.666   7.633 -0.3108  0.1255  0.0526
  892loPI   C4A13938  14.278  18.769   7.980 -0.0607 -0.1083 -0.0996
  892loPI   C5A13939  14.074  18.832   8.372 -0.0074 -0.0401  0.0360
  892loPI   C6A13940  13.874  19.108   8.624  0.4069  0.1576  0.0367
  892loPI   C1B13941  14.443  18.883   6.758  0.1843 -0.1971 -0.1475
  892loPI   C2B13942  14.413  18.920   7.159  0.0501 -0.1510  0.0207
  892loPI   C3B13943  14.588  18.871   7.539  0.2229 -0.2595  0.0244
  892loPI   C4B13944  14.843  18.680   7.894  0.0363 -0.0138  0.1670
  893loPI    C113945   1.597  18.174   4.722  0.3178 -0.1252 -0.0848
  893loPI    C213946   1.397  18.385   4.448 -0.1295 -0.2843  0.1108
  893loPI    C313947   1.562  18.034   4.349 -0.0542 -0.2127 -0.0206
  893loPI   PO413948   1.404  18.175   4.959 -0.3302 -0.0073  0.1294
  893loPI   GL113949   1.399  18.026   5.295  0.0386 -0.3929  0.3191
  893loPI   GL213950   1.153  17.866   5.532 -0.0062  0.0721  0.2307
  893loPI   C1A13951   1.670  18.064   5.664  0.1319 -0.0561 -0.2653
  893loPI   C2A13952   1.784  18.027   6.120 -0.0123  0.1277 -0.1450
  893loPI   C3A13953   1.714  18.145   6.563 -0.2261 -0.4137  0.1334
  893loPI   C4A13954   1.693  18.190   6.978  0.1226 -0.2366  0.1234
  893loPI   C5A13955   1.620  18.246   7.427  0.1445  0.2118  0.1708
  893loPI   C6A13956   1.612  18.648   7.604  0.2914 -0.1855 -0.0974
  893loPI   C1B13957   1.283  17.831   5.889 -0.1951  0.4196 -0.2519
  893loPI   C2B13958   1.385  17.823   6.328  0.0204 -0.0477 -0.1861
  893loPI   C3B13959   1.355  17.818   6.848  0.0206  0.2227 -0.2930
  893loPI   C4B13960   1.278  17.926   7.266  0.0355  0.2067  0.1019
  894loPI    C113961  14.797   6.301   5.344 -0.1333 -0.0276  0.1880
  894loPI    C213962  14.504   6.518   5.178 -0.0109 -0.0433 -0.0519
  894loPI    C313963  14.866   6.506   5.008 -0.0245 -0.4629 -0.0621
  894loPI   PO413964  14.799   6.341   5.558  0.1025 -0.0347  0.0458
  894loPI   GL113965  14.888   6.465   5.919  0.0737 -0.1004 -0.1521
  894loPI   GL213966  15.109   6.755   5.955  0.0140 -0.1051  0.0676
  894loPI   C1A13967  14.764   6.458   6.264  0.1764 -0.0846 -0.2005
  894loPI   C2A13968  14.945   6.604   6.623 -0.2722 -0.0666  0.0452
  894loPI   C3A13969  14.851   6.460   7.113 -0.1839  0.2232  0.2283
  894loPI   C4A13970  14.853   6.417   7.563  0.0186 -0.1479 -0.2192
  894loPI   C5A13971  15.132   6.032   7.808 -0.2569  0.2391 -0.2549
  894loPI   C6A13972  15.589   5.821   7.994  0.1662 -0.0369  0.0099
  894loPI   C1B13973  15.173   6.964   6.364 -0.3404 -0.0685  0.2537
  894loPI   C2B13974  15.416   6.970   6.692 -0.0105  0.1006  0.1627
  894loPI   C3B13975  15.794   7.082   6.813  0.1336 -0.2550  0.0928
  894loPI   C4B13976  16.170   7.237   6.780 -0.4787  0.1191  0.0929
  895loPI    C113977  16.241  14.593   5.608 -0.0665  0.1490  0.1265
  895loPI    C213978  15.909  14.616   5.385 -0.0869 -0.0506  0.1337
  895loPI    C313979  16.225  14.847   5.300 -0.2042  0.0943  0.0876
  895loPI   PO413980  16.204  14.574   5.873  0.0605 -0.2442  0.1104
  895loPI   GL113981  16.373  14.629   6.305  0.0189  0.2343  0.2473
  895loPI   GL213982  16.318  14.925   6.252 -0.1795  0.4876  0.2098
  895loPI   C1A13983  16.368  14.528   6.780  0.1081  0.0202  0.0740
  895loPI   C2A13984  16.446  14.493   7.207 -0.1506  0.0127 -0.1475
  895loPI   C3A13985  16.371  14.486   7.693 -0.1128 -0.0811 -0.0931
  895loPI   C4A13986  16.264  14.753   8.078 -0.0089 -0.1224 -0.0805
  895loPI   C5A13987  16.166  14.680   8.554 -0.0697  0.2187  0.1508
  895loPI   C6A13988  16.256  14.534   9.020 -0.0754 -0.1648  0.1650
  895loPI   C1B13989  16.093  15.067   6.632 -0.5146  0.4375 -0.1244
  895loPI   C2B13990  16.043  14.837   7.026 -0.1592 -0.0607  0.3242
  895loPI   C3B13991  15.924  14.419   7.158  0.3066  0.0768  0.1980
  895loPI   C4B13992  16.189  14.110   7.339  0.5144  0.1049  0.1625
  896loPI    C113993  16.592   3.937   5.509 -0.0890 -0.2590 -0.0286
  896loPI    C213994  16.758   3.774   5.184 -0.2383 -0.0444 -0.2150
  896loPI    C313995  16.404   3.642   5.315 -0.1313 -0.1993 -0.0788
  896loPI   PO413996  16.597   3.908   5.747  0.1465 -0.1796  0.1079
  896loPI   GL113997  16.744   3.739   6.075  0.1416  0.1035 -0.0082
  896loPI   GL213998  16.955   3.505   6.157  0.0764  0.0913  0.2440
  896loPI   C1A13999  16.943   3.919   6.454  0.0682 -0.0126 -0.2144
  896loPI   C2A14000  16.837   3.939   6.890 -0.2502 -0.0047  0.2265
  896loPI   C3A14001  16.533   3.863   7.296  0.1170 -0.0749  0.0482
  896loPI   C4A14002  16.373   3.883   7.752  0.0965 -0.1097  0.0724
  896loPI   C5A14003  16.109   3.564   8.105 -0.1015 -0.1159 -0.1680
  896loPI   C6A14004  16.282   3.433   8.479  0.1280 -0.1380 -0.0541
  896loPI   C1B14005  17.055   3.457   6.574  0.1314  0.0210  0.0634
  896loPI   C2B14006  17.041   3.461   7.046 -0.1907  0.0158  0.2623
  896loPI   C3B14007  17.008   3.721   7.416 -0.3416  0.0256 -0.2087
  896loPI   C4B14008  16.956   3.951   7.866  0.0628  0.0318 -0.0187
  897loPI    C114009  15.596  17.882   5.566 -0.2086 -0.1120 -0.0511
  897loPI    C214010  15.793  17.803   5.227  0.0190 -0.1522  0.0888
  897loPI    C314011  15.439  17.987   5.213  0.1582  0.1060 -0.1547
  897loPI   PO414012  15.824  17.976   5.735 -0.0044 -0.1617 -0.0067
  897loPI   GL114013  15.930  18.160   6.063 -0.2382 -0.2721 -0.0062
  897loPI   GL214014  15.886  17.879   6.284 -0.1852  0.2779  0.0911
  897loPI   C1A14015  15.986  18.548   6.260 -0.2513  0.0414 -0.3106
  897loPI   C2A14016  15.974  18.610   6.618 -0.1136  0.1579  0.2861
  897loPI   C3A14017  15.826  18.535   7.054 -0.0604  0.0101  0.0417
  897loPI   C4A14018  15.679  18.321   7.322 -0.2561 -0.0604  0.1346
  897loPI   C5A14019  15.369  18.289   7.746 -0.2122 -0.0416 -0.2296
  897loPI   C6A14020  15.232  18.100   8.103  0.1559 -0.1245 -0.4289
  897loPI   C1B14021  15.859  18.076   6.593 -0.0558 -0.0714 -0.0153
  897loPI   C2B14022  15.915  17.938   7.041 -0.1614 -0.1638 -0.3298
  897loPI   C3B14023  15.886  17.994   7.604 -0.0527 -0.0856 -0.1815
  897loPI   C4B14024  16.067  18.274   7.938  0.0967  0.0003  0.1554
  898loPI    C114025   9.748  14.433   5.108 -0.0161  0.0958 -0.1096
  898loPI    C214026   9.576  14.594   4.785 -0.0222  0.0880 -0.1102
  898loPI    C314027   9.769  14.245   4.755 -0.1780 -0.0031 -0.0681
  898loPI   PO414028   9.925  14.576   5.251 -0.2907 -0.2560 -0.2245
  898loPI   GL114029  10.128  14.436   5.651  0.0971 -0.1026  0.4658
  898loPI   GL214030   9.790  14.346   5.608 -0.2294  0.1631 -0.1077
  898loPI   C1A14031  10.283  14.475   6.108 -0.2108  0.0540 -0.1041
  898loPI   C2A14032  10.270  14.500   6.508 -0.0750 -0.3262  0.0269
  898loPI   C3A14033  10.318  14.521   6.875  0.2705  0.0590 -0.0162
  898loPI   C4A14034  10.199  14.625   7.308 -0.1745  0.1210 -0.1722
  898loPI   C5A14035  10.018  14.984   7.520  0.2061 -0.1982  0.0109
  898loPI   C6A14036  10.186  15.207   7.936  0.1814 -0.1304 -0.4639
  898loPI   C1B14037   9.798  14.396   6.048  0.2378  0.1205 -0.1682
  898loPI   C2B14038   9.719  14.432   6.504  0.2130 -0.0053 -0.1654
  898loPI   C3B14039   9.765  14.536   6.871  0.2004  0.0662 -0.0629
  898loPI   C4B14040   9.699  14.607   7.256 -0.1193  0.1641  0.2230
  899loPI    C114041  17.160   8.858   5.203 -0.0352  0.1065  0.0165
  899loPI    C214042  17.259   8.970   4.832 -0.0022  0.1908  0.0505
  899loPI    C314043  17.350   8.602   4.962 -0.1184  0.1205 -0.0646
  899loPI   PO414044  17.232   9.143   5.316  0.2377 -0.0382 -0.0142
  899loPI   GL114045  17.449   9.121   5.796  0.1156  0.0972  0.1842
  899loPI   GL214046  17.701   9.001   5.934  0.0681  0.2441 -0.1364
  899loPI   C1A14047  17.330   9.172   6.174 -0.1098  0.2240  0.3842
  899loPI   C2A14048  17.324   9.179   6.646  0.0245  0.1136  0.0603
  899loPI   C3A14049  17.260   9.129   7.110  0.1179 -0.1826  0.0481
  899loPI   C4A14050  17.245   9.153   7.553  0.1177  0.2461 -0.1183
  899loPI   C5A14051  17.461   9.239   7.956  0.1571  0.3205 -0.0784
  899loPI   C6A14052  17.673   9.347   8.385 -0.3911  0.1536  0.1566
  899loPI   C1B14053  17.690   8.908   6.301 -0.1532 -0.0541  0.2439
  899loPI   C2B14054  17.756   8.934   6.794 -0.0289  0.1916 -0.2449
  899loPI   C3B14055  17.700   8.967   7.193  0.1011 -0.3043  0.0917
  899loPI   C4B14056  17.728   8.936   7.639 -0.3394 -0.1670 -0.0631
  900loPI    C114057   1.665   8.089   5.065  0.1128  0.0872 -0.0382
  900loPI    C214058   1.645   8.485   5.015  0.0191  0.0764 -0.0888
  900loPI    C314059   1.351   8.251   4.879  0.0417 -0.0049  0.0010
  900loPI   PO414060   1.750   8.076   5.318  0.0279 -0.2483 -0.2871
  900loPI   GL114061   1.784   7.887   5.715  0.3306  0.0322  0.0921
  900loPI   GL214062   1.478   8.023   5.845 -0.0971  0.2256 -0.2522
  900loPI   C1A14063   2.085   7.652   6.072 -0.0148 -0.4980  0.3050
  900loPI   C2A14064   2.136   7.529   6.507 -0.1019 -0.1658  0.1471
  900loPI   C3A14065   2.305   7.419   6.847 -0.0927  0.2738 -0.1917
  900loPI   C4A14066   2.342   7.393   7.302  0.0450  0.2420  0.1914
  900loPI   C5A14067   1.965   7.327   7.578  0.0423 -0.1554 -0.3214
  900loPI   C6A14068   1.826   6.893   7.703  0.0321 -0.5214  0.0055
  900loPI   C1B14069   1.456   8.052   6.367  0.0384 -0.1171 -0.2658
  900loPI   C2B14070   1.458   7.972   6.754  0.0990  0.1161  0.0105
  900loPI   C3B14071   1.595   8.021   7.192 -0.1600  0.2092 -0.1477
  900loPI   C4B14072   1.752   7.909   7.545 -0.0503  0.0430 -0.2108
  901loPI    C114073  14.043   3.785   5.371 -0.3368 -0.1267 -0.0680
  901loPI    C214074  14.391   3.689   5.200 -0.2700 -0.3441  0.1834
  901loPI    C314075  14.266   4.069   5.198 -0.0896 -0.2835 -0.0118
  901loPI   PO414076  14.090   3.717   5.631  0.0855  0.1472  0.1221
  901loPI   GL114077  14.161   3.702   6.011 -0.0549 -0.1784  0.0919
  901loPI   GL214078  13.872   3.684   6.058  0.1920  0.1199  0.0455
  901loPI   C1A14079  14.616   3.555   6.053 -0.0607  0.2514  0.2400
  901loPI   C2A14080  14.772   3.403   6.432 -0.0334 -0.0202  0.1023
  901loPI   C3A14081  14.804   3.549   6.905  0.2329 -0.1798  0.1375
  901loPI   C4A14082  14.840   3.828   7.245  0.0856 -0.1509 -0.0781
  901loPI   C5A14083  14.457   4.048   7.551  0.2026  0.3180  0.1567
  901loPI   C6A14084  14.249   3.911   7.897 -0.1207 -0.0806 -0.2154
  901loPI   C1B14085  13.707   3.672   6.490  0.2383  0.1061  0.0939
  901loPI   C2B14086  13.330   3.696   6.709 -0.0217  0.0610 -0.0455
  901loPI   C3B14087  13.129   3.928   7.103 -0.3187  0.3234  0.2416
  901loPI   C4B14088  13.389   4.174   7.421  0.1194 -0.0104 -0.1057
  902loPI    C114089  14.976  10.688   5.386 -0.3257  0.1328  0.0035
  902loPI    C214090  15.264  10.670   5.109 -0.0905 -0.0042  0.2528
  902loPI    C314091  14.880  10.639   5.001 -0.0052  0.0152 -0.0641
  902loPI   PO414092  15.016  10.611   5.580 -0.0213 -0.0455  0.1462
  902loPI   GL114093  15.160  10.670   5.898 -0.0336 -0.2559 -0.1304
  902loPI   GL214094  15.439  10.585   5.865  0.2784  0.1481 -0.1283
  902loPI   C1A14095  15.248  10.609   6.347 -0.1439 -0.2366 -0.0108
  902loPI   C2A14096  15.387  10.585   6.726 -0.1029 -0.2027 -0.2504
  902loPI   C3A14097  15.338  10.463   7.106 -0.0063  0.1221 -0.2119
  902loPI   C4A14098  15.354  10.522   7.501  0.0486 -0.0069 -0.0452
  902loPI   C5A14099  15.237  10.581   7.921  0.1549 -0.0352 -0.2052
  902loPI   C6A14100  15.449  10.551   8.239  0.2204  0.1665  0.0271
  902loPI   C1B14101  15.523  10.248   5.988 -0.0836  0.0734 -0.2180
  902loPI   C2B14102  15.464  10.082   6.400 -0.0911 -0.0734 -0.0245
  902loPI   C3B14103  15.314   9.961   6.805 -0.2824 -0.0210 -0.0757
  902loPI   C4B14104  15.301   9.951   7.282  0.0757  0.1662  0.1161
  903loPI    C114105  14.929   8.026   5.169 -0.0731  0.4397 -0.1408
  903loPI    C214106  14.921   7.929   4.781  0.2191  0.0358 -0.0534
  903loPI    C314107  15.264   8.046   4.951  0.1281  0.0539  0.1203
  903loPI   PO414108  14.822   7.765   5.306  0.1732 -0.2041  0.1309
  903loPI   GL114109  14.679   7.647   5.675  0.2121 -0.1527 -0.1577
  903loPI   GL214110  14.350   7.594   5.740  0.1039 -0.1498 -0.0231
  903loPI   C1A14111  14.828   7.850   6.007  0.3033 -0.0026 -0.0542
  903loPI   C2A14112  15.074   7.796   6.473  0.1178  0.0373  0.0404
  903loPI   C3A14113  15.198   7.817   7.026  0.2163 -0.1067 -0.3373
  903loPI   C4A14114  15.254   7.680   7.389  0.1088  0.1697 -0.0512
  903loPI   C5A14115  15.362   7.767   7.880  0.0777  0.1027  0.1127
  903loPI   C6A14116  15.730   7.859   8.009  0.0020 -0.0668 -0.2091
  903loPI   C1B14117  14.323   7.403   6.215 -0.0561  0.0266  0.0645
  903loPI   C2B14118  14.311   7.228   6.638  0.1653  0.1989  0.4613
  903loPI   C3B14119  14.221   7.219   7.128 -0.0554 -0.1261 -0.1730
  903loPI   C4B14120  14.396   7.266   7.542  0.1203 -0.0950  0.2559
  904loPI    C114121   7.076  10.558   5.762 -0.0194 -0.2549 -0.1450
  904loPI    C214122   6.948  10.830   5.498  0.0343 -0.1543 -0.0675
  904loPI    C314123   6.731  10.501   5.567 -0.2162  0.0437  0.1078
  904loPI   PO414124   7.115  10.631   5.965 -0.1115 -0.1257 -0.1381
  904loPI   GL114125   7.095  10.501   6.296 -0.1438 -0.2036 -0.0328
  904loPI   GL214126   6.857  10.690   6.448 -0.2470  0.1357  0.3244
  904loPI   C1A14127   7.380  10.530   6.629  0.1843  0.0366  0.2503
  904loPI   C2A14128   7.369  10.492   6.996 -0.1931  0.0292 -0.1397
  904loPI   C3A14129   7.626  10.738   7.379  0.0675  0.2580 -0.1362
  904loPI   C4A14130   7.707  10.587   7.817  0.2821 -0.1848 -0.4721
  904loPI   C5A14131   7.420  10.507   8.121  0.0144 -0.1234  0.3519
  904loPI   C6A14132   7.229  10.821   8.375 -0.1134  0.2853 -0.1317
  904loPI   C1B14133   6.969  10.713   6.815  0.1665 -0.3685  0.0102
  904loPI   C2B14134   6.762  10.614   7.184 -0.2614  0.0315 -0.0877
  904loPI   C3B14135   6.442  10.730   7.428  0.2255  0.1555 -0.0327
  904loPI   C4B14136   6.183  10.725   7.803  0.0414  0.1380  0.2731
  905loPI    C114137   0.731  14.459   5.268  0.0423 -0.3043 -0.1357
  905loPI    C214138   0.558  14.752   5.057  0.0486 -0.1156  0.1153
  905loPI    C314139   0.352  14.420   5.146  0.0072 -0.1439 -0.0807
  905loPI   PO414140   0.834  14.564   5.458 -0.0379 -0.2502 -0.1302
  905loPI   GL114141   0.732  14.864   5.841  0.0820 -0.2732  0.1196
  905loPI   GL214142   0.850  14.544   5.960 -0.4748 -0.0593  0.2966
  905loPI   C1A14143   0.937  15.024   6.191 -0.1044  0.0858 -0.0352
  905loPI   C2A14144   1.105  15.085   6.589 -0.0550 -0.0995  0.1589
  905loPI   C3A14145   1.037  15.082   6.983  0.1810  0.1324 -0.2901
  905loPI   C4A14146   0.995  15.235   7.348 -0.2349 -0.5438 -0.0896
  905loPI   C5A14147   1.278  15.486   7.586  0.1490 -0.1780 -0.1856
  905loPI   C6A14148   1.510  15.648   7.980 -0.1027  0.0185 -0.2194
  905loPI   C1B14149   1.163  14.539   6.342 -0.0896 -0.0566  0.4082
  905loPI   C2B14150   1.230  14.591   6.732  0.1047  0.2933  0.1071
  905loPI   C3B14151   1.095  14.474   7.166 -0.0800  0.1995 -0.0917
  905loPI   C4B14152   1.008  14.408   7.602  0.0302 -0.4490  0.2388
  906loPI    C114153  12.128  13.917   5.294 -0.0281 -0.1248 -0.0280
  906loPI    C214154  12.166  13.924   4.895  0.0123 -0.3116 -0.0281
  906loPI    C314155  11.952  13.636   5.071  0.0951 -0.3000  0.0933
  906loPI   PO414156  12.266  14.063   5.398 -0.1950  0.0556  0.3363
  906loPI   GL114157  12.302  14.118   5.870 -0.1751 -0.3087  0.1987
  906loPI   GL214158  12.434  14.373   5.967  0.2180  0.0155  0.0312
  906loPI   C1A14159  11.976  14.075   6.146  0.2498 -0.1888 -0.0348
  906loPI   C2A14160  12.090  13.988   6.565  0.0028  0.1459  0.0738
  906loPI   C3A14161  12.114  13.993   7.003 -0.0536 -0.0712 -0.0293
  906loPI   C4A14162  12.033  13.972   7.479  0.1292  0.3468  0.0573
  906loPI   C5A14163  12.007  13.950   7.963 -0.3084  0.1987  0.0170
  906loPI   C6A14164  12.064  14.040   8.461  0.4694  0.0038  0.0958
  906loPI   C1B14165  12.316  14.408   6.329  0.0504 -0.2057 -0.0144
  906loPI   C2B14166  12.392  14.304   6.752 -0.0724  0.1666 -0.1044
  906loPI   C3B14167  12.408  14.378   7.225 -0.0805 -0.0024 -0.1994
  906loPI   C4B14168  12.293  14.450   7.683 -0.0110  0.0553 -0.1533
  907loPI    C114169   9.750   0.605   5.183 -0.1467 -0.1683 -0.0262
  907loPI    C214170   9.907   0.902   4.967 -0.0927 -0.1054  0.0983
  907loPI    C314171   9.669   0.632   4.792 -0.0943 -0.0237 -0.0275
  907loPI   PO414172   9.691   0.730   5.430 -0.0738  0.2624  0.1515
  907loPI   GL114173   9.692   0.909   5.786 -0.0259  0.0802  0.2800
  907loPI   GL214174  10.047   0.953   5.789 -0.0961 -0.1414 -0.0445
  907loPI   C1A14175   9.468   1.063   6.204 -0.1489  0.4141  0.2005
  907loPI   C2A14176   9.487   1.043   6.586  0.1352  0.1007  0.0069
  907loPI   C3A14177   9.268   1.071   7.009 -0.1226 -0.0002 -0.0478
  907loPI   C4A14178   9.137   0.980   7.373 -0.0092 -0.1487  0.2732
  907loPI   C5A14179   8.995   0.572   7.569  0.2358 -0.0788  0.2694
  907loPI   C6A14180   9.021   0.397   7.967 -0.4678  0.0276 -0.0176
  907loPI   C1B14181  10.008   0.988   6.231  0.0358  0.0961 -0.2134
  907loPI   C2B14182   9.963   0.893   6.649  0.1525  0.0091 -0.1288
  907loPI   C3B14183   9.700   0.885   7.080 -0.2012 -0.2866  0.0328
  907loPI   C4B14184   9.708   0.907   7.499  0.1835 -0.0740 -0.2396
  908loPI    C114185  10.334   5.795   5.297  0.0781  0.1549 -0.1237
  908loPI    C214186  10.628   5.784   5.026  0.2015 -0.3512  0.0195
  908loPI    C314187  10.260   5.660   4.928  0.0771  0.0979 -0.1030
  908loPI   PO414188  10.372   6.063   5.391 -0.2798 -0.2283 -0.0177
  908loPI   GL114189  10.475   6.180   5.769  0.1094  0.1783 -0.1318
  908loPI   GL214190  10.739   6.206   5.944  0.0529 -0.2635 -0.1853
  908loPI   C1A14191  10.232   6.114   6.083 -0.0414  0.1086 -0.0767
  908loPI   C2A14192  10.016   6.040   6.540 -0.0582  0.0170  0.1558
  908loPI   C3A14193  10.051   6.068   6.980  0.0351  0.0666 -0.1091
  908loPI   C4A14194   9.970   6.022   7.340  0.1600 -0.1059 -0.0303
  908loPI   C5A14195   9.867   5.676   7.592 -0.1245  0.0292  0.2321
  908loPI   C6A14196  10.060   5.473   7.993  0.1319  0.0191  0.2608
  908loPI   C1B14197  10.505   6.579   6.214 -0.3174  0.0923  0.0874
  908loPI   C2B14198  10.274   6.478   6.636 -0.3277  0.3223 -0.2482
  908loPI   C3B14199  10.267   6.465   7.078  0.0185 -0.0273  0.2379
  908loPI   C4B14200  10.065   6.530   7.394 -0.2123  0.2844 -0.2777
  909loPI    C114201   7.878  15.308   5.527 -0.0836  0.2145 -0.0440
  909loPI    C214202   7.574  15.273   5.269  0.1379 -0.0522 -0.2753
  909loPI    C314203   7.797  15.605   5.271  0.0837 -0.0147 -0.3705
  909loPI   PO414204   7.771  15.256   5.696  0.1180  0.3925 -0.2033
  909loPI   GL114205   7.425  15.129   5.903  0.0610  0.0340  0.3818
  909loPI   GL214206   7.467  15.408   6.067 -0.0786 -0.4692  0.1215
  909loPI   C1A14207   7.308  14.779   6.116 -0.2258  0.2144 -0.3167
  909loPI   C2A14208   7.233  14.737   6.542  0.1109  0.2268  0.3504
  909loPI   C3A14209   7.179  14.820   7.003  0.1678 -0.0420 -0.1290
  909loPI   C4A14210   7.139  14.696   7.537 -0.1624 -0.0992  0.0580
  909loPI   C5A14211   7.251  14.774   8.030  0.0360 -0.1051  0.1924
  909loPI   C6A14212   7.445  14.457   8.221  0.1273 -0.4332 -0.0848
  909loPI   C1B14213   7.281  15.529   6.497  0.1773  0.0211 -0.0214
  909loPI   C2B14214   7.236  15.636   6.929  0.0333  0.2998  0.1214
  909loPI   C3B14215   7.164  15.949   7.292 -0.2439 -0.0951  0.4167
  909loPI   C4B14216   6.872  16.282   7.523  0.0323 -0.0228  0.1016
  910loPI    C114217  11.302   9.478   5.148  0.2316  0.1333  0.0172
  910loPI    C214218  11.686   9.524   5.046  0.2657 -0.0707  0.0489
  910loPI    C314219  11.538   9.157   5.106  0.0206 -0.0048 -0.1371
  910loPI   PO414220  11.285   9.541   5.369  0.1883 -0.1186  0.3245
  910loPI   GL114221  11.440   9.515   5.791  0.2252  0.4366  0.1609
  910loPI   GL214222  11.515   9.862   5.793  0.0366  0.2499 -0.3240
  910loPI   C1A14223  11.144   9.634   6.190  0.1562 -0.3916  0.1162
  910loPI   C2A14224  11.297   9.543   6.544  0.1348 -0.1046  0.1493
  910loPI   C3A14225  11.217   9.368   6.977 -0.2348  0.1702 -0.0191
  910loPI   C4A14226  11.143   9.047   7.245  0.4739 -0.4606  0.2439
  910loPI   C5A14227  10.993   9.058   7.584  0.0397 -0.3516  0.2273
  910loPI   C6A14228  10.987   9.067   8.046 -0.0138  0.0541 -0.1768
  910loPI   C1B14229  11.752   9.890   6.239  0.2370  0.0799 -0.0101
  910loPI   C2B14230  11.719  10.355   6.362 -0.1253 -0.1141 -0.0247
  910loPI   C3B14231  11.449  10.575   6.679  0.1977  0.1664  0.0389
  910loPI   C4B14232  11.285  10.991   6.938 -0.0927 -0.1569  0.3180
  911loPI    C114233   7.549   0.401   4.938 -0.0824  0.2104  0.0174
  911loPI    C214234   7.486   0.696   4.675 -0.0888  0.0990 -0.1074
  911loPI    C314235   7.744   0.404   4.589 -0.0509  0.0899  0.0338
  911loPI   PO414236   7.429   0.418   5.149  0.2329  0.0846  0.2367
  911loPI   GL114237   7.409   0.381   5.526 -0.0436 -0.1685  0.3826
  911loPI   GL214238   7.606   0.133   5.592  0.0363  0.2407 -0.1956
  911loPI   C1A14239   7.203   0.431   5.941 -0.1400 -0.0407 -0.0135
  911loPI   C2A14240   7.154   0.271   6.385 -0.3509  0.2910  0.2042
  911loPI   C3A14241   7.357  -0.019   6.619 -0.0246 -0.0060  0.0444
  911loPI   C4A14242   7.221  -0.096   7.014  0.1392  0.1609 -0.2496
  911loPI   C5A14243   7.108  -0.156   7.422  0.1091  0.2031  0.4987
  911loPI   C6A14244   6.958  -0.196   7.844 -0.1082  0.1220 -0.1585
  911loPI   C1B14245   7.592   0.003   6.104 -0.0360 -0.1102  0.2426
  911loPI   C2B14246   7.895  -0.034   6.541 -0.2066  0.0983  0.4634
  911loPI   C3B14247   7.841  -0.089   6.975 -0.2614 -0.1237  0.1975
  911loPI   C4B14248   7.801  -0.077   7.369  0.1109  0.1482  0.1785
  912loPI    C114249   2.578  17.563   5.071  0.1031  0.1186  0.0583
  912loPI    C214250   2.189  17.627   5.000  0.0808  0.0324  0.1019
  912loPI    C314251   2.431  17.514   4.702 -0.0087 -0.3080  0.1538
  912loPI   PO414252   2.638  17.777   5.257 -0.0208  0.3399  0.3130
  912loPI   GL114253   2.729  17.688   5.655 -0.0176  0.0527  0.1289
  912loPI   GL214254   3.059  17.742   5.655 -0.2842  0.2289 -0.0816
  912loPI   C1A14255   2.685  17.827   6.032 -0.1115 -0.2304 -0.0322
  912loPI   C2A14256   2.758  17.859   6.508  0.0063 -0.2820 -0.3100
  912loPI   C3A14257   2.633  17.891   6.980 -0.0200 -0.0702  0.0854
  912loPI   C4A14258   2.648  18.019   7.347 -0.2208  0.2874 -0.1518
  912loPI   C5A14259   2.722  17.844   7.715  0.0672  0.2589  0.0632
  912loPI   C6A14260   2.692  17.874   8.121  0.1595 -0.0237  0.0783
  912loPI   C1B14261   3.296  17.654   5.964  0.0600 -0.1850 -0.1948
  912loPI   C2B14262   3.218  17.661   6.384  0.0113 -0.0467  0.1935
  912loPI   C3B14263   3.122  17.731   6.845 -0.0259 -0.2647  0.2513
  912loPI   C4B14264   3.113  17.795   7.270 -0.1388  0.0834  0.1383
  913loPI    C114265   7.487   9.260   5.174  0.0993  0.1254 -0.3416
  913loPI    C214266   7.883   9.222   5.137  0.1158 -0.1012  0.0183
  913loPI    C314267   7.642   8.925   5.019  0.0757 -0.1221  0.1517
  913loPI   PO414268   7.524   9.285   5.471  0.0417 -0.0197  0.3547
  913loPI   GL114269   7.611   9.100   5.905 -0.0639  0.2440  0.1982
  913loPI   GL214270   7.539   8.821   5.831 -0.0788 -0.0244  0.5011
  913loPI   C1A14271   7.589   9.305   6.294 -0.1107 -0.1884  0.1432
  913loPI   C2A14272   7.549   9.389   6.699 -0.1546  0.0332 -0.0376
  913loPI   C3A14273   7.789   9.596   7.148  0.0396  0.0314  0.1122
  913loPI   C4A14274   7.913   9.752   7.601  0.0227 -0.2146  0.1551
  913loPI   C5A14275   8.087   9.757   7.975  0.2196 -0.0442 -0.3128
  913loPI   C6A14276   8.397   9.821   8.137 -0.1106 -0.0576 -0.2068
  913loPI   C1B14277   7.586   8.717   6.199  0.2487  0.3884 -0.1445
  913loPI   C2B14278   7.386   8.539   6.547  0.1732  0.0615 -0.0444
  913loPI   C3B14279   7.384   8.630   7.008  0.0886 -0.0183  0.2792
  913loPI   C4B14280   7.297   8.544   7.464  0.0355  0.0816 -0.0120
  914loPI    C114281   4.293   4.342   4.977 -0.2602 -0.1218  0.1288
  914loPI    C214282   4.325   4.680   4.765 -0.2021 -0.1639  0.0701
  914loPI    C314283   4.141   4.362   4.608 -0.1339 -0.2045  0.0717
  914loPI   PO414284   4.633   4.324   5.082  0.0500  0.0026  0.0259
  914loPI   GL114285   4.682   4.207   5.469  0.0692  0.2259  0.0543
  914loPI   GL214286   4.550   4.482   5.611  0.0752  0.0532 -0.2155
  914loPI   C1A14287   5.124   4.143   5.739 -0.0592  0.1351  0.0914
  914loPI   C2A14288   5.209   4.120   6.054 -0.0569  0.0281 -0.0184
  914loPI   C3A14289   5.248   4.065   6.453 -0.0143 -0.0192  0.0007
  914loPI   C4A14290   5.332   4.140   6.828 -0.2069 -0.0101 -0.1208
  914loPI   C5A14291   5.251   4.089   7.290  0.1883 -0.2090 -0.0622
  914loPI   C6A14292   5.109   4.381   7.573  0.2011 -0.0244 -0.0776
  914loPI   C1B14293   4.688   4.255   5.961 -0.0302  0.0453  0.1218
  914loPI   C2B14294   4.737   4.206   6.427  0.0730 -0.1242  0.1530
  914loPI   C3B14295   4.791   4.269   6.872 -0.1012  0.2609  0.0299
  914loPI   C4B14296   4.731   4.286   7.283 -0.0529 -0.0299  0.0348
  915loPI    C114297   6.349   8.399   5.122 -0.0160 -0.0654  0.0083
  915loPI    C214298   6.601   8.200   4.883  0.0460  0.0691 -0.0397
  915loPI    C314299   6.395   8.512   4.741  0.0134  0.0923  0.0576
  915loPI   PO414300   6.560   8.404   5.384 -0.0429 -0.2024  0.1983
  915loPI   GL114301   6.581   8.270   5.750  0.0958 -0.1605  0.1012
  915loPI   GL214302   6.693   7.876   5.670 -0.0203 -0.2748  0.1712
  915loPI   C1A14303   6.565   8.397   6.188  0.2121 -0.1127  0.5161
  915loPI   C2A14304   6.490   8.446   6.542  0.0571 -0.0052 -0.0631
  915loPI   C3A14305   6.486   8.488   6.918 -0.2692  0.1017 -0.1034
  915loPI   C4A14306   6.518   8.323   7.313  0.2697  0.0398  0.0524
  915loPI   C5A14307   6.751   8.469   7.721 -0.1837  0.2003  0.1170
  915loPI   C6A14308   6.522   8.728   8.070 -0.0042  0.0434 -0.0589
  915loPI   C1B14309   6.546   7.876   6.154 -0.0796  0.0997  0.1588
  915loPI   C2B14310   6.577   7.955   6.666 -0.4665  0.1997 -0.2825
  915loPI   C3B14311   6.632   7.875   7.081  0.3337  0.3486 -0.3027
  915loPI   C4B14312   6.830   7.788   7.432 -0.0664  0.0085 -0.2013
  916loPI    C114313  16.852  14.015   5.625  0.0094  0.1730  0.4050
  916loPI    C214314  16.484  13.929   5.494  0.1591 -0.0476  0.1174
  916loPI    C314315  16.614  14.307   5.493  0.0614 -0.0130 -0.1252
  916loPI   PO414316  16.899  13.945   5.863  0.1493  0.0593  0.0538
  916loPI   GL114317  16.867  13.821   6.207 -0.0267  0.0089  0.0926
  916loPI   GL214318  17.235  13.803   6.279  0.0477  0.0795 -0.0061
  916loPI   C1A14319  16.714  13.706   6.524  0.1400 -0.3014  0.1445
  916loPI   C2A14320  16.775  13.602   6.820  0.3333 -0.1094 -0.3078
  916loPI   C3A14321  16.772  13.735   7.191 -0.1191 -0.2200 -0.3306
  916loPI   C4A14322  16.680  13.839   7.640 -0.4021 -0.0659 -0.1666
  916loPI   C5A14323  16.357  13.960   7.854  0.0969 -0.2028  0.1488
  916loPI   C6A14324  16.215  14.224   8.215  0.0021 -0.0687 -0.2841
  916loPI   C1B14325  17.225  13.421   6.631  0.2207 -0.2729  0.0201
  916loPI   C2B14326  17.132  13.332   7.072 -0.0258  0.0879  0.2793
  916loPI   C3B14327  16.948  13.309   7.492  0.1462 -0.1554 -0.0649
  916loPI   C4B14328  16.968  13.511   7.844  0.0473  0.0496 -0.0925
  917loPI    C114329   8.848  12.979   5.759 -0.0772 -0.2311  0.0505
  917loPI    C214330   8.490  13.080   5.905 -0.1200 -0.2118 -0.0668
  917loPI    C314331   8.519  12.921   5.539  0.0326  0.2041 -0.2402
  917loPI   PO414332   8.963  12.863   5.910  0.2185 -0.1508  0.0185
  917loPI   GL114333   8.958  12.783   6.274 -0.0491 -0.1950  0.2817
  917loPI   GL214334   8.617  12.864   6.337 -0.2324  0.1105 -0.0849
  917loPI   C1A14335   9.136  12.777   6.720  0.1173 -0.3956  0.2013
  917loPI   C2A14336   9.174  12.756   7.102  0.2892  0.1797  0.0680
  917loPI   C3A14337   9.086  12.652   7.531  0.0793  0.1243  0.1496
  917loPI   C4A14338   9.033  12.350   7.832 -0.2845  0.0057  0.0027
  917loPI   C5A14339   8.781  12.576   8.231 -0.1358  0.0207 -0.2254
  917loPI   C6A14340   8.604  12.969   8.232 -0.0206  0.0933 -0.2792
  917loPI   C1B14341   8.576  12.917   6.761 -0.1651 -0.2349  0.1535
  917loPI   C2B14342   8.701  12.894   7.187  0.1637 -0.1183 -0.2793
  917loPI   C3B14343   8.720  12.953   7.615  0.0789  0.0333  0.2241
  917loPI   C4B14344   8.479  13.255   7.819  0.1409 -0.0001 -0.1860
  918loPI    C114345   4.742  13.217   5.100 -0.0328  0.2407  0.0889
  918loPI    C214346   4.387  13.309   5.259 -0.0632  0.2083  0.0403
  918loPI    C314347   4.406  13.079   4.933  0.0153 -0.0278  0.2081
  918loPI   PO414348   4.918  13.260   5.339  0.2195  0.1627 -0.2145
  918loPI   GL114349   5.168  13.100   5.739 -0.0418 -0.2231  0.0316
  918loPI   GL214350   5.107  12.870   5.888 -0.0580 -0.0602  0.0349
  918loPI   C1A14351   5.285  13.455   6.024 -0.0073  0.1150  0.0093
  918loPI   C2A14352   5.159  13.492   6.495  0.0627 -0.2683  0.1608
  918loPI   C3A14353   5.110  13.506   6.885  0.2256  0.0527  0.0411
  918loPI   C4A14354   5.042  13.437   7.286  0.0259 -0.0420 -0.1794
  918loPI   C5A14355   5.219  13.162   7.468  0.2774  0.0551 -0.1755
  918loPI   C6A14356   5.531  12.922   7.512 -0.3385  0.0562 -0.1708
  918loPI   C1B14357   4.963  12.723   6.326  0.1383  0.1182  0.5018
  918loPI   C2B14358   4.911  12.635   6.771 -0.1082 -0.1165 -0.0280
  918loPI   C3B14359   5.132  12.594   7.224 -0.1424  0.0492  0.1295
  918loPI   C4B14360   5.290  12.530   7.581 -0.2753  0.2333  0.0489
  919loPI    C114361   1.909  16.593   4.823 -0.0115  0.1670 -0.0169
  919loPI    C214362   1.743  16.884   4.604 -0.2643  0.1130  0.0994
  919loPI    C314363   2.061  16.686   4.465 -0.1159  0.4150  0.0010
  919loPI   PO414364   1.839  16.729   5.077  0.0464 -0.0131 -0.0846
  919loPI   GL114365   1.924  16.781   5.453 -0.4699  0.3373  0.0523
  919loPI   GL214366   2.010  16.538   5.598 -0.0183  0.1810  0.2567
  919loPI   C1A14367   2.328  16.909   5.695  0.2098 -0.2976 -0.3013
  919loPI   C2A14368   2.514  16.991   6.046 -0.3381 -0.3757  0.2066
  919loPI   C3A14369   2.456  17.017   6.539  0.3243  0.2568  0.0863
  919loPI   C4A14370   2.353  16.955   6.959  0.2029  0.3413  0.1844
  919loPI   C5A14371   2.469  17.064   7.421 -0.0569 -0.3171  0.0593
  919loPI   C6A14372   2.685  16.883   7.853 -0.0556  0.5741 -0.1905
  919loPI   C1B14373   2.148  16.619   6.068 -0.0971 -0.0655 -0.0607
  919loPI   C2B14374   2.002  16.640   6.485 -0.1704  0.0333  0.0435
  919loPI   C3B14375   1.944  16.746   6.949  0.1585  0.3996 -0.1019
  919loPI   C4B14376   2.004  16.637   7.398  0.1651 -0.0093 -0.1133
  920loPI    C114377   2.581  13.852   5.265 -0.0042  0.0108  0.1219
  920loPI    C214378   2.736  13.964   4.914  0.0400 -0.0128  0.1338
  920loPI    C314379   2.404  13.741   4.924 -0.0680  0.1451  0.1104
  920loPI   PO414380   2.521  14.060   5.417 -0.1689  0.3237 -0.3956
  920loPI   GL114381   2.454  14.174   5.813 -0.2982 -0.0347  0.1946
  920loPI   GL214382   2.245  13.969   5.876  0.0098  0.5335  0.3039
  920loPI   C1A14383   2.658  14.216   6.200 -0.1275 -0.0255 -0.3954
  920loPI   C2A14384   2.694  14.135   6.653 -0.3040  0.2937 -0.3149
  920loPI   C3A14385   2.687  14.124   7.060 -0.2069 -0.0478  0.0383
  920loPI   C4A14386   2.622  13.960   7.473 -0.0565 -0.1423  0.1525
  920loPI   C5A14387   2.505  13.920   7.843 -0.2148  0.1648 -0.1335
  920loPI   C6A14388   2.280  13.629   8.110 -0.1559  0.0153 -0.0060
  920loPI   C1B14389   2.241  13.889   6.333 -0.2207 -0.0409  0.2429
  920loPI   C2B14390   2.241  13.785   6.778 -0.3262 -0.0951 -0.0521
  920loPI   C3B14391   2.292  13.729   7.192  0.0913  0.0088  0.2560
  920loPI   C4B14392   2.176  13.563   7.556 -0.1890 -0.0009 -0.2144
  921loPI    C114393   8.102  13.885   5.721 -0.0815 -0.0065 -0.0141
  921loPI    C214394   8.073  13.890   5.322 -0.2407  0.1948 -0.0012
  921loPI    C314395   8.371  14.086   5.503 -0.2593  0.2356 -0.0145
  921loPI   PO414396   7.895  13.965   5.805 -0.2286  0.0478  0.0017
  921loPI   GL114397   7.750  13.871   6.163  0.1960  0.0396  0.0207
  921loPI   GL214398   8.062  13.907   6.251 -0.0113  0.2339  0.0566
  921loPI   C1A14399   7.443  13.942   6.495 -0.1116  0.1902 -0.1145
  921loPI   C2A14400   7.403  14.252   6.731 -0.2408 -0.0775  0.0640
  921loPI   C3A14401   7.294  14.264   7.109  0.1287  0.1680 -0.3090
  921loPI   C4A14402   7.388  14.221   7.395  0.2079  0.0327  0.2349
  921loPI   C5A14403   7.603  13.890   7.573 -0.1751  0.2453 -0.1251
  921loPI   C6A14404   7.613  13.480   7.603 -0.2678  0.0486  0.2479
  921loPI   C1B14405   7.972  14.200   6.581 -0.3826  0.0496 -0.0920
  921loPI   C2B14406   7.893  14.282   6.967 -0.1501  0.3811  0.1472
  921loPI   C3B14407   7.970  14.251   7.366 -0.0698 -0.1591  0.0536
  921loPI   C4B14408   8.210  14.359   7.814  0.1403  0.1071  0.1612
  922loPI    C114409   1.933   9.574   4.926  0.0073  0.1952  0.1278
  922loPI    C214410   2.099   9.817   4.655 -0.0364 -0.0681 -0.1407
  922loPI    C314411   1.701   9.779   4.672 -0.0321 -0.0811 -0.0640
  922loPI   PO414412   2.041   9.660   5.196  0.1898 -0.0382 -0.0168
  922loPI   GL114413   2.098   9.610   5.638  0.1605 -0.0287  0.0427
  922loPI   GL214414   1.955   9.843   5.901  0.2182 -0.1272 -0.3189
  922loPI   C1A14415   2.206   9.435   6.007  0.2538 -0.1570  0.0251
  922loPI   C2A14416   2.343   9.489   6.422 -0.0785 -0.1168  0.2753
  922loPI   C3A14417   2.538   9.459   6.779 -0.2557 -0.1331 -0.0102
  922loPI   C4A14418   2.548   9.490   7.132  0.3233  0.3676 -0.0273
  922loPI   C5A14419   2.480   9.665   7.572 -0.0537  0.3410  0.0841
  922loPI   C6A14420   2.311   9.962   7.878 -0.0683 -0.1862  0.0823
  922loPI   C1B14421   1.813  10.050   6.279  0.0250  0.0491  0.0551
  922loPI   C2B14422   1.975   9.957   6.641 -0.0756  0.1885 -0.1708
  922loPI   C3B14423   2.298   9.897   6.775 -0.1105 -0.0647 -0.8240
  922loPI   C4B14424   2.348   9.958   7.189 -0.1522 -0.3240  0.1098
  923loPI    C114425   4.231  15.965   5.321 -0.0919  0.1359  0.0978
  923loPI    C214426   4.330  16.353   5.307  0.0997  0.0831 -0.0472
  923loPI    C314427   4.176  16.173   4.984  0.2206 -0.0152 -0.0509
  923loPI   PO414428   4.468  15.840   5.489  0.1377 -0.0197  0.0545
  923loPI   GL114429   4.765  16.052   5.655 -0.1236  0.0843  0.0042
  923loPI   GL214430   4.598  16.272   5.726 -0.0944 -0.0506 -0.0609
  923loPI   C1A14431   4.772  15.881   6.051 -0.1071  0.1290 -0.1295
  923loPI   C2A14432   4.724  15.807   6.400 -0.0955  0.0073  0.1902
  923loPI   C3A14433   4.594  15.984   6.690 -0.1341 -0.2216  0.0164
  923loPI   C4A14434   4.528  15.910   7.066  0.1149 -0.0205  0.0486
  923loPI   C5A14435   4.421  15.852   7.508  0.1878 -0.2241 -0.0686
  923loPI   C6A14436   4.044  15.806   7.590  0.0434 -0.0473 -0.0519
  923loPI   C1B14437   4.524  16.372   6.035  0.1011 -0.0276  0.0154
  923loPI   C2B14438   4.522  16.449   6.444  0.0391  0.3818  0.0862
  923loPI   C3B14439   4.378  16.402   6.797  0.1795  0.0215 -0.0502
  923loPI   C4B14440   4.139  16.198   7.170  0.1501  0.0079 -0.4191
  924loPI    C114441  11.959   1.807   4.942 -0.0016  0.0268  0.2643
  924loPI    C214442  11.621   1.954   4.788  0.1190 -0.0605 -0.0935
  924loPI    C314443  11.975   2.091   4.661  0.2226 -0.1729  0.0704
  924loPI   PO414444  12.012   1.835   5.142 -0.3372 -0.0647 -0.2081
  924loPI   GL114445  11.848   1.872   5.549 -0.1083  0.0270 -0.1388
  924loPI   GL214446  11.732   1.639   5.682  0.0621 -0.1349  0.0347
  924loPI   C1A14447  11.940   1.901   6.028 -0.5054  0.0017  0.2738
  924loPI   C2A14448  11.985   1.904   6.414  0.4065 -0.0595  0.1334
  924loPI   C3A14449  11.961   1.898   6.834  0.1158 -0.4531  0.3090
  924loPI   C4A14450  11.875   1.912   7.306  0.0756 -0.1886 -0.1123
  924loPI   C5A14451  12.012   1.916   7.731 -0.2121 -0.1099  0.0014
  924loPI   C6A14452  11.876   1.840   8.152  0.2598 -0.0226 -0.1105
  924loPI   C1B14453  11.597   1.523   6.124  0.3119 -0.1609  0.1223
  924loPI   C2B14454  11.648   1.589   6.559 -0.1075  0.0900  0.1691
  924loPI   C3B14455  11.551   1.592   7.053 -0.0372 -0.2423 -0.0655
  924loPI   C4B14456  11.440   1.521   7.471  0.1275  0.0969  0.0729
  925loPI    C114457   1.296  17.495   5.110  0.1892  0.1529 -0.0851
  925loPI    C214458   0.926  17.620   5.196  0.1122 -0.0814 -0.0680
  925loPI    C314459   1.112  17.756   4.869 -0.0328 -0.0489 -0.1376
  925loPI   PO414460   1.379  17.427   5.331  0.1359  0.4443  0.0733
  925loPI   GL114461   1.194  17.347   5.699 -0.1214 -0.0449 -0.2938
  925loPI   GL214462   0.924  17.297   5.754 -0.1356  0.2470  0.2010
  925loPI   C1A14463   1.505  17.328   6.092  0.2803  0.0931 -0.1421
  925loPI   C2A14464   1.422  17.286   6.625 -0.0234  0.0860  0.1565
  925loPI   C3A14465   1.444  17.368   7.190  0.0737 -0.1946  0.1474
  925loPI   C4A14466   1.372  17.318   7.639  0.0867 -0.1509 -0.0033
  925loPI   C5A14467   1.458  17.327   8.100  0.1054 -0.0738  0.1065
  925loPI   C6A14468   1.272  17.393   8.521 -0.0320  0.0983 -0.1409
  925loPI   C1B14469   0.950  17.459   6.133  0.2516  0.2826 -0.1069
  925loPI   C2B14470   0.990  17.493   6.467 -0.1488 -0.1962  0.1302
  925loPI   C3B14471   0.973  17.449   6.913 -0.0867 -0.0827  0.2274
  925loPI   C4B14472   0.970  17.490   7.290  0.0121  0.0895 -0.1343
  926loPI    C114473   6.455  16.769   4.776 -0.0683 -0.0219  0.2055
  926loPI    C214474   6.121  16.781   4.557  0.0185 -0.0707  0.0694
  926loPI    C314475   6.479  16.805   4.378  0.0847  0.2141  0.2340
  926loPI   PO414476   6.413  16.629   4.955 -0.2500  0.1376  0.0043
  926loPI   GL114477   6.367  16.642   5.358  0.1275  0.2615  0.0501
  926loPI   GL214478   6.218  16.412   5.492 -0.1204 -0.0918 -0.1248
  926loPI   C1A14479   6.474  16.725   5.744  0.0759  0.2805  0.0285
  926loPI   C2A14480   6.472  16.550   6.148  0.4154  0.0956 -0.0308
  926loPI   C3A14481   6.305  16.552   6.539 -0.3230  0.0182  0.0003
  926loPI   C4A14482   6.286  16.575   7.041 -0.1855 -0.2682  0.2587
  926loPI   C5A14483   6.150  16.682   7.457 -0.0483  0.2371  0.0044
  926loPI   C6A14484   5.979  16.974   7.749 -0.0183 -0.0121 -0.1353
  926loPI   C1B14485   5.999  16.537   5.759 -0.1233  0.4031  0.0174
  926loPI   C2B14486   5.936  16.720   6.122  0.2793 -0.0595 -0.1477
  926loPI   C3B14487   5.739  16.672   6.511  0.1980 -0.1989 -0.1868
  926loPI   C4B14488   5.783  16.639   6.951 -0.0754  0.1224 -0.3947
  927loPI    C114489   1.620  12.400   5.172 -0.0449 -0.2455  0.0498
  927loPI    C214490   1.317  12.228   4.974 -0.1006 -0.0192 -0.0649
  927loPI    C314491   1.377  12.623   4.945 -0.0355 -0.0005  0.2753
  927loPI   PO414492   1.597  12.338   5.426  0.0300  0.1093  0.1028
  927loPI   GL114493   1.532  12.370   5.928 -0.0086 -0.0346 -0.0132
  927loPI   GL214494   1.852  12.361   5.910  0.0425 -0.1464 -0.1184
  927loPI   C1A14495   1.552  12.583   6.280  0.3164 -0.0299 -0.1640
  927loPI   C2A14496   1.653  12.582   6.746  0.0755 -0.0229  0.2022
  927loPI   C3A14497   1.518  12.493   7.192 -0.2064  0.3183 -0.2805
  927loPI   C4A14498   1.620  12.342   7.553  0.2342 -0.1593 -0.0670
  927loPI   C5A14499   1.583  12.225   7.980  0.1364  0.0762  0.0749
  927loPI   C6A14500   1.400  11.948   8.333  0.1680 -0.2109 -0.1250
  927loPI   C1B14501   2.023  12.444   6.322 -0.0206  0.1194  0.1659
  927loPI   C2B14502   2.116  12.335   6.796  0.1191 -0.0987  0.0288
  927loPI   C3B14503   2.090  12.257   7.297  0.1162 -0.0768 -0.0262
  927loPI   C4B14504   2.105  12.219   7.738  0.2029 -0.0350 -0.1310
  928loPI    C114505   3.893   1.843   4.921  0.0092 -0.0370 -0.1007
  928loPI    C214506   3.991   1.810   4.535 -0.0403  0.0186 -0.1183
  928loPI    C314507   3.885   2.165   4.684  0.0786  0.0177 -0.0294
  928loPI   PO414508   4.082   1.789   5.070 -0.1007 -0.0694 -0.0424
  928loPI   GL114509   4.190   1.814   5.446  0.0100 -0.0862  0.1639
  928loPI   GL214510   4.372   1.960   5.604  0.0397  0.2234  0.0633
  928loPI   C1A14511   4.035   1.584   5.864  0.1284 -0.2526  0.2759
  928loPI   C2A14512   4.004   1.551   6.326  0.2569  0.2084 -0.2550
  928loPI   C3A14513   3.939   1.606   6.750 -0.2478 -0.3060 -0.1358
  928loPI   C4A14514   4.011   1.621   7.292 -0.1883  0.0737 -0.0156
  928loPI   C5A14515   4.136   1.776   7.644  0.1708 -0.0870 -0.4829
  928loPI   C6A14516   4.387   1.936   8.044 -0.0439  0.2452  0.2438
  928loPI   C1B14517   4.274   1.941   6.034 -0.0354 -0.0604 -0.0662
  928loPI   C2B14518   4.306   1.924   6.416  0.3786 -0.1542 -0.1582
  928loPI   C3B14519   4.333   1.970   6.811 -0.1021 -0.1234  0.1630
  928loPI   C4B14520   4.356   2.023   7.264 -0.0583  0.1197  0.0100
  929loPI    C114521  12.071   7.500   5.438  0.0315 -0.0841  0.1430
  929loPI    C214522  12.464   7.446   5.382 -0.0293 -0.1159 -0.2848
  929loPI    C314523  12.258   7.686   5.137 -0.2597 -0.0157  0.0011
  929loPI   PO414524  11.993   7.646   5.687 -0.0931 -0.0411 -0.1320
  929loPI   GL114525  12.065   7.706   6.099 -0.1544 -0.1059  0.0387
  929loPI   GL214526  12.103   8.038   6.016  0.2213 -0.0202  0.1228
  929loPI   C1A14527  12.088   7.768   6.511 -0.2017 -0.0806 -0.0588
  929loPI   C2A14528  12.137   7.701   6.916 -0.2317  0.0005 -0.1659
  929loPI   C3A14529  12.191   7.789   7.346  0.0062  0.0157  0.0176
  929loPI   C4A14530  12.135   7.650   7.720  0.0940  0.0002  0.1331
  929loPI   C5A14531  12.408   7.373   7.933  0.0705  0.1059  0.0471
  929loPI   C6A14532  12.843   7.204   7.824  0.3427 -0.0860  0.2143
  929loPI   C1B14533  12.341   8.200   6.371  0.0109  0.0811  0.1789
  929loPI   C2B14534  12.281   8.199   6.793  0.0973 -0.1803 -0.0107
  929loPI   C3B14535  12.361   8.197   7.246 -0.1444 -0.3569 -0.1820
  929loPI   C4B14536  12.428   8.194   7.679  0.2787  0.0989  0.0707
  930loPI    C114537   9.998  15.800   5.147 -0.1905 -0.1546  0.1990
  930loPI    C214538   9.684  16.001   5.002  0.0124 -0.0740 -0.1377
  930loPI    C314539   9.711  15.605   4.949  0.0071 -0.0686 -0.1811
  930loPI   PO414540  10.018  15.907   5.437  0.2331 -0.1619 -0.0497
  930loPI   GL114541  10.199  15.753   5.774 -0.2621 -0.0033 -0.1745
  930loPI   GL214542  10.494  15.847   5.875 -0.1878 -0.0840  0.2850
  930loPI   C1A14543  10.075  15.852   6.232 -0.1153  0.1563  0.0520
  930loPI   C2A14544  10.141  15.808   6.577  0.3002 -0.1108 -0.3579
  930loPI   C3A14545  10.088  15.875   7.075  0.1939  0.0600 -0.3526
  930loPI   C4A14546  10.144  15.824   7.469  0.0920 -0.1587  0.0791
  930loPI   C5A14547  10.198  15.816   7.851  0.1192  0.1948  0.2128
  930loPI   C6A14548  10.009  15.930   8.219  0.0792 -0.0486 -0.1272
  930loPI   C1B14549  10.562  15.782   6.261 -0.0798  0.0707 -0.0859
  930loPI   C2B14550  10.613  15.855   6.741  0.1472  0.3068  0.2226
  930loPI   C3B14551  10.575  15.809   7.219  0.1835  0.0440  0.0079
  930loPI   C4B14552  10.693  15.952   7.656  0.1577  0.1162 -0.0593
  931loPI    C114553  18.062   4.899   5.545  0.1455  0.0722  0.1301
  931loPI    C214554  18.310   4.585   5.561  0.0350 -0.0366 -0.1942
  931loPI    C314555  18.240   4.766   5.212 -0.1560  0.1454 -0.0642
  931loPI   PO414556  17.785   4.867   5.677  0.1530  0.1129  0.2235
  931loPI   GL114557  17.642   5.170   5.971 -0.1553  0.0526 -0.1694
  931loPI   GL214558  17.350   4.966   6.023 -0.3945 -0.0442 -0.0202
  931loPI   C1A14559  17.652   5.071   6.492 -0.2485  0.1423  0.4892
  931loPI   C2A14560  17.728   5.018   6.899 -0.1024  0.0281 -0.1674
  931loPI   C3A14561  17.943   4.838   7.340 -0.0496 -0.0564 -0.0192
  931loPI   C4A14562  17.868   4.910   7.765  0.2910  0.2506 -0.1847
  931loPI   C5A14563  17.907   4.622   8.144  0.1627 -0.2077 -0.0164
  931loPI   C6A14564  17.980   4.725   8.511  0.0418  0.2056 -0.0468
  931loPI   C1B14565  17.218   5.351   6.241 -0.0512 -0.0646 -0.0296
  931loPI   C2B14566  17.187   5.239   6.682 -0.0585 -0.1647 -0.2363
  931loPI   C3B14567  17.214   5.183   7.116 -0.1363 -0.3005  0.0769
  931loPI   C4B14568  16.959   5.092   7.444 -0.0021  0.1328  0.2629
  932loPI    C114569   7.369  13.467   5.239 -0.1947 -0.1282 -0.2763
  932loPI    C214570   7.630  13.165   5.266 -0.1238 -0.0608 -0.1966
  932loPI    C314571   7.442  13.237   4.920 -0.0007 -0.0800 -0.2682
  932loPI   PO414572   7.272  13.504   5.548 -0.2567 -0.2172 -0.1809
  932loPI   GL114573   6.907  13.422   5.872  0.0722  0.1038 -0.1517
  932loPI   GL214574   7.001  13.203   5.962  0.0225  0.2109 -0.2901
  932loPI   C1A14575   6.506  13.356   6.116 -0.1552  0.3190  0.0637
  932loPI   C2A14576   6.519  13.537   6.459 -0.0133  0.1554 -0.0224
  932loPI   C3A14577   6.567  13.745   6.858  0.2040  0.0366 -0.1294
  932loPI   C4A14578   6.499  13.945   7.268 -0.2604 -0.1777 -0.1921
  932loPI   C5A14579   6.635  14.025   7.705 -0.0689  0.0949  0.0815
  932loPI   C6A14580   6.403  14.110   8.066 -0.1018 -0.0676 -0.0188
  932loPI   C1B14581   6.927  13.199   6.408 -0.1029  0.1468  0.1235
  932loPI   C2B14582   6.909  13.373   6.751  0.1616 -0.0982 -0.2512
  932loPI   C3B14583   6.771  13.390   7.113 -0.2397  0.0103  0.0232
  932loPI   C4B14584   6.694  13.464   7.468  0.1068  0.3771  0.3538
  933loPI    C114585   6.383   3.776   4.983 -0.0678 -0.0982 -0.1338
  933loPI    C214586   6.039   3.798   4.780 -0.1235  0.2596 -0.0066
  933loPI    C314587   6.383   3.898   4.602 -0.1181  0.1563 -0.0544
  933loPI   PO414588   6.275   3.645   5.206  0.3608 -0.2938 -0.0934
  933loPI   GL114589   6.365   3.423   5.495 -0.2030  0.4318 -0.1535
  933loPI   GL214590   6.089   3.242   5.415  0.1855  0.1616 -0.1583
  933loPI   C1A14591   6.196   3.289   5.870 -0.2471  0.0515  0.2024
  933loPI   C2A14592   6.255   3.224   6.357 -0.3039 -0.2733 -0.0197
  933loPI   C3A14593   6.343   3.212   6.795  0.0809 -0.0395  0.0550
  933loPI   C4A14594   6.371   3.156   7.188  0.1701  0.1010 -0.0663
  933loPI   C5A14595   6.096   2.892   7.446 -0.1088 -0.1540  0.2637
  933loPI   C6A14596   5.736   2.812   7.697 -0.0074  0.0081  0.1823
  933loPI   C1B14597   5.955   2.891   5.748 -0.1456 -0.1775 -0.0332
  933loPI   C2B14598   5.834   2.965   6.170 -0.0621 -0.1624 -0.2452
  933loPI   C3B14599   5.881   2.909   6.624 -0.0587  0.3571 -0.3257
  933loPI   C4B14600   6.041   2.820   6.917  0.2121 -0.1185  0.0017
  934loPI    C114601   7.912   8.944   5.523 -0.0375 -0.0363  0.2039
  934loPI    C214602   8.090   8.803   5.194 -0.0072  0.2452  0.0970
  934loPI    C314603   7.799   8.592   5.370 -0.0116  0.0847 -0.0991
  934loPI   PO414604   8.067   9.015   5.666 -0.2630 -0.2561  0.2274
  934loPI   GL114605   8.068   8.957   6.158 -0.0658 -0.0844 -0.0733
  934loPI   GL214606   8.317   8.788   6.164 -0.3267  0.0147 -0.1017
  934loPI   C1A14607   7.857   8.897   6.568 -0.1400 -0.3425 -0.1361
  934loPI   C2A14608   7.739   9.002   6.983 -0.2467  0.1191 -0.0240
  934loPI   C3A14609   7.592   9.207   7.368 -0.1035  0.2165 -0.0331
  934loPI   C4A14610   7.652   9.331   7.725 -0.1892  0.0728  0.0491
  934loPI   C5A14611   7.586   9.623   8.019  0.0090  0.1265  0.1088
  934loPI   C6A14612   7.200   9.741   8.314 -0.0353 -0.2003  0.2499
  934loPI   C1B14613   8.537   8.882   6.411 -0.0069 -0.0997  0.1827
  934loPI   C2B14614   8.404   8.778   6.761  0.0313  0.3849 -0.1352
  934loPI   C3B14615   8.179   8.832   7.152 -0.1162  0.0371 -0.1411
  934loPI   C4B14616   7.963   8.851   7.605 -0.1233 -0.1814 -0.2124
  935loPI    C114617  13.354  13.268   5.426 -0.1187  0.0153 -0.2901
  935loPI    C214618  13.086  13.004   5.288  0.0195 -0.2791 -0.0074
  935loPI    C314619  13.469  12.980   5.173  0.0564 -0.2783  0.1138
  935loPI   PO414620  13.305  13.287   5.729  0.4116  0.0849 -0.2529
  935loPI   GL114621  13.172  13.044   5.971 -0.0302  0.1001  0.2479
  935loPI   GL214622  13.065  13.136   6.202 -0.0037  0.1419  0.1442
  935loPI   C1A14623  13.286  12.741   6.356 -0.0351 -0.0835  0.1860
  935loPI   C2A14624  13.457  12.805   6.725 -0.1712 -0.0832  0.3525
  935loPI   C3A14625  13.406  12.830   7.118 -0.1038  0.0190 -0.2016
  935loPI   C4A14626  13.541  12.840   7.487 -0.0144 -0.0988  0.1036
  935loPI   C5A14627  13.390  12.798   7.949 -0.0156 -0.4043  0.0781
  935loPI   C6A14628  13.307  13.110   8.246 -0.0895  0.0412 -0.0323
  935loPI   C1B14629  13.125  13.184   6.628 -0.1935  0.0270  0.2077
  935loPI   C2B14630  13.110  13.206   7.079  0.3146 -0.1116 -0.0595
  935loPI   C3B14631  13.198  13.209   7.479 -0.3091 -0.3639  0.1005
  935loPI   C4B14632  13.213  13.373   7.863 -0.0153  0.3829  0.0476
  936loPI    C114633   1.368  11.741   4.924  0.0621 -0.1060 -0.1708
  936loPI    C214634   1.570  11.793   4.583 -0.0100 -0.1099 -0.2142
  936loPI    C314635   1.325  11.479   4.626  0.0321 -0.1331 -0.1428
  936loPI   PO414636   1.642  11.829   5.151 -0.2604  0.1273 -0.3788
  936loPI   GL114637   1.714  11.896   5.668 -0.0237 -0.0956  0.0240
  936loPI   GL214638   1.476  11.836   5.837  0.0154 -0.0327  0.1875
  936loPI   C1A14639   1.854  11.957   6.110 -0.0271 -0.1578  0.0982
  936loPI   C2A14640   2.131  11.924   6.434 -0.0267 -0.4699  0.0006
  936loPI   C3A14641   2.285  11.778   6.807  0.0157 -0.1792  0.1392
  936loPI   C4A14642   2.213  11.772   7.192  0.3974  0.1538 -0.0198
  936loPI   C5A14643   1.990  11.553   7.544  0.2493  0.0088 -0.1082
  936loPI   C6A14644   1.839  11.725   7.869  0.1055 -0.1129  0.0278
  936loPI   C1B14645   1.348  11.835   6.219 -0.0935 -0.1256  0.2196
  936loPI   C2B14646   1.537  12.063   6.515  0.1811  0.0007  0.0206
  936loPI   C3B14647   1.744  11.969   6.876 -0.0395 -0.0615  0.1062
  936loPI   C4B14648   1.744  11.947   7.301 -0.2928  0.0528  0.0091
  937loPI    C114649  15.203  17.587   5.415  0.0382 -0.0760 -0.0865
  937loPI    C214650  15.122  17.904   5.645  0.1071 -0.0799 -0.0565
  937loPI    C314651  14.944  17.865   5.289 -0.2355 -0.2288  0.1252
  937loPI   PO414652  15.248  17.400   5.614  0.1622 -0.0210  0.1169
  937loPI   GL114653  15.107  17.533   6.048  0.2256 -0.0405  0.1449
  937loPI   GL214654  14.910  17.755   6.114  0.5284 -0.0703 -0.2657
  937loPI   C1A14655  15.333  17.384   6.387 -0.0212 -0.2626 -0.0630
  937loPI   C2A14656  15.698  17.563   6.711 -0.1452 -0.0551 -0.0902
  937loPI   C3A14657  15.544  17.561   7.193 -0.1030  0.1298  0.2300
  937loPI   C4A14658  15.480  17.290   7.542 -0.2768  0.1256  0.2909
  937loPI   C5A14659  15.278  17.170   7.860  0.0543  0.1857  0.2090
  937loPI   C6A14660  14.891  17.222   8.028  0.1071 -0.0343 -0.1901
  937loPI   C1B14661  14.806  17.828   6.471  0.0044  0.0560 -0.1171
  937loPI   C2B14662  14.859  17.987   6.851  0.1115  0.1368  0.1463
  937loPI   C3B14663  14.844  17.921   7.278  0.1581 -0.2067  0.1633
  937loPI   C4B14664  15.092  17.591   7.413 -0.0196 -0.1957 -0.0299
  938loPI    C114665   2.162  15.799   4.966 -0.0409  0.0934  0.0977
  938loPI    C214666   2.378  15.612   4.686  0.0751 -0.0850  0.3035
  938loPI    C314667   2.071  15.845   4.579  0.1760 -0.0767  0.0245
  938loPI   PO414668   2.300  15.736   5.220  0.0115 -0.0336  0.1718
  938loPI   GL114669   2.403  16.134   5.470 -0.2962 -0.2810 -0.0117
  938loPI   GL214670   2.648  16.261   5.382 -0.4040  0.1020  0.1826
  938loPI   C1A14671   2.290  16.131   5.901 -0.0906 -0.0380 -0.0659
  938loPI   C2A14672   2.193  16.140   6.332  0.3113 -0.0028 -0.0569
  938loPI   C3A14673   2.143  16.034   6.839 -0.0907 -0.1229  0.2137
  938loPI   C4A14674   2.233  16.131   7.244  0.0885 -0.1286 -0.4312
  938loPI   C5A14675   2.156  15.947   7.680 -0.1421  0.0696  0.3186
  938loPI   C6A14676   2.284  15.979   8.127  0.1611  0.1618 -0.0457
  938loPI   C1B14677   2.654  16.474   5.773  0.0365  0.2541 -0.0333
  938loPI   C2B14678   2.684  16.536   6.154 -0.0653  0.0012  0.1499
  938loPI   C3B14679   2.555  16.555   6.546 -0.3005  0.2463 -0.3869
  938loPI   C4B14680   2.472  16.443   6.952  0.2426 -0.0160  0.1076
  939loPI    C114681   9.387   3.257   5.224  0.0553 -0.0510 -0.1279
  939loPI    C214682   9.618   3.562   5.110 -0.1257  0.0897 -0.1226
  939loPI    C314683   9.349   3.613   5.401 -0.0048 -0.1356  0.0324
  939loPI   PO414684   9.514   3.108   5.290 -0.0504  0.1118  0.0830
  939loPI   GL114685   9.685   2.945   5.601  0.2105  0.0286  0.2159
  939loPI   GL214686   9.489   2.698   5.534 -0.2655 -0.1104  0.0304
  939loPI   C1A14687   9.651   2.821   5.999 -0.0170  0.0211  0.1889
  939loPI   C2A14688   9.723   2.818   6.477  0.5021 -0.1540 -0.1927
  939loPI   C3A14689   9.762   2.853   6.971 -0.0227 -0.0920  0.3981
  939loPI   C4A14690   9.668   2.819   7.415  0.2774  0.1935  0.1389
  939loPI   C5A14691   9.583   2.664   7.848 -0.0080  0.0646 -0.2404
  939loPI   C6A14692   9.363   2.947   8.094  0.1827 -0.0510 -0.0845
  939loPI   C1B14693   9.386   2.457   5.936 -0.1644  0.0574 -0.0037
  939loPI   C2B14694   9.409   2.426   6.320 -0.1108 -0.0909  0.4067
  939loPI   C3B14695   9.332   2.480   6.753 -0.2036  0.2337  0.0228
  939loPI   C4B14696   9.348   2.455   7.231  0.0259 -0.2139 -0.0319
  940loPI    C114697   1.775   5.468   5.089  0.0337 -0.0563 -0.0494
  940loPI    C214698   1.939   5.153   4.906 -0.0410  0.0029 -0.2206
  940loPI    C314699   1.638   5.350   4.732 -0.1664  0.0123  0.0030
  940loPI   PO414700   1.748   5.331   5.355 -0.1872  0.1157  0.0829
  940loPI   GL114701   1.748   5.143   5.788  0.2045 -0.0779 -0.3483
  940loPI   GL214702   1.835   4.829   5.902  0.0481  0.1009 -0.3367
  940loPI   C1A14703   1.647   5.291   6.075 -0.1410 -0.0032  0.1494
  940loPI   C2A14704   1.732   5.408   6.468  0.2729  0.1650  0.1610
  940loPI   C3A14705   1.730   5.407   6.922 -0.1850  0.0097  0.0437
  940loPI   C4A14706   1.727   5.678   7.200 -0.2698  0.1212  0.0055
  940loPI   C5A14707   1.628   6.038   7.394  0.1609  0.4812 -0.3701
  940loPI   C6A14708   1.202   6.211   7.301  0.0321 -0.3906 -0.0467
  940loPI   C1B14709   1.811   4.839   6.341  0.0415  0.2232  0.0876
  940loPI   C2B14710   1.728   4.828   6.807  0.3144 -0.2250  0.1121
  940loPI   C3B14711   1.676   4.952   7.232  0.1321 -0.0438  0.0608
  940loPI   C4B14712   1.779   5.263   7.475  0.1284  0.1172 -0.1416
  941loPI    C114713   5.239   9.527   5.134 -0.0705 -0.0626  0.0826
  941loPI    C214714   5.185   9.231   5.397 -0.1433  0.0325  0.1755
  941loPI    C314715   5.249   9.146   5.011  0.2577 -0.1184  0.2699
  941loPI   PO414716   5.449   9.703   5.358  0.3195  0.0108 -0.2610
  941loPI   GL114717   5.369   9.789   5.830 -0.2969  0.0180 -0.0172
  941loPI   GL214718   5.676   9.800   5.948 -0.2278  0.1583 -0.0136
  941loPI   C1A14719   5.191   9.717   6.211  0.2661 -0.0729  0.1517
  941loPI   C2A14720   5.207   9.791   6.654 -0.4695  0.1004  0.1439
  941loPI   C3A14721   5.156   9.784   7.132 -0.1563 -0.0427  0.1194
  941loPI   C4A14722   5.230   9.865   7.617  0.0063 -0.4792  0.2363
  941loPI   C5A14723   5.514   9.767   7.998  0.0864  0.2404 -0.0256
  941loPI   C6A14724   5.601   9.598   8.363  0.0231 -0.0764  0.4350
  941loPI   C1B14725   5.758   9.695   6.305  0.2385 -0.1239 -0.0860
  941loPI   C2B14726   5.812   9.661   6.747  0.0069 -0.0434 -0.0295
  941loPI   C3B14727   5.656   9.627   7.144  0.1390  0.1316 -0.4556
  941loPI   C4B14728   5.704   9.642   7.511 -0.0698  0.1789 -0.0781
  942loPI    C114729  17.921   4.364   5.164 -0.0486 -0.0299 -0.0022
  942loPI    C214730  17.713   4.085   4.966  0.0682 -0.1010 -0.0256
  942loPI    C314731  17.721   4.462   4.831 -0.0011 -0.1097 -0.0546
  942loPI   PO414732  17.833   4.377   5.430 -0.0377 -0.1414 -0.0162
  942loPI   GL114733  17.954   4.300   5.805  0.1714  0.0782 -0.0109
  942loPI   GL214734  17.808   4.038   6.053 -0.0583  0.0453  0.0189
  942loPI   C1A14735  18.205   4.374   6.182 -0.3171 -0.5900  0.0975
  942loPI   C2A14736  18.356   4.197   6.664  0.0943 -0.0801  0.1366
  942loPI   C3A14737  18.687   4.141   6.940 -0.0224  0.1494  0.1681
  942loPI   C4A14738  18.854   3.935   7.285 -0.3689 -0.0412 -0.0100
  942loPI   C5A14739  19.070   3.932   7.697  0.1826 -0.1211  0.1052
  942loPI   C6A14740  19.498   4.059   7.723 -0.0786 -0.0633  0.1388
  942loPI   C1B14741  17.560   3.877   6.425  0.1349 -0.0174  0.2176
  942loPI   C2B14742  17.427   3.853   6.791 -0.0996  0.0133 -0.4921
  942loPI   C3B14743  17.525   3.896   7.225  0.0573  0.0023 -0.0788
  942loPI   C4B14744  17.490   3.853   7.655 -0.2624 -0.0847 -0.2845
  943loPI    C114745   0.988  11.425   5.159 -0.1807  0.1721  0.2927
  943loPI    C214746   1.355  11.270   5.128 -0.1025  0.3550  0.2980
  943loPI    C314747   1.054  11.112   4.918 -0.0248  0.1940  0.3060
  943loPI   PO414748   0.952  11.410   5.433 -0.3226  0.0061  0.0132
  943loPI   GL114749   1.073  11.577   5.800  0.1181  0.0845 -0.0803
  943loPI   GL214750   0.868  11.386   5.918 -0.1343  0.4253  0.1728
  943loPI   C1A14751   1.066  12.062   5.872  0.2108  0.2543  0.0914
  943loPI   C2A14752   1.045  12.270   6.258  0.1825 -0.2348  0.2399
  943loPI   C3A14753   1.068  12.176   6.589 -0.0253  0.0030  0.0113
  943loPI   C4A14754   1.173  12.112   6.965 -0.2528 -0.0088  0.2953
  943loPI   C5A14755   1.186  12.093   7.442 -0.1972 -0.2746  0.0588
  943loPI   C6A14756   1.182  11.966   7.892  0.1862  0.1194  0.5006
  943loPI   C1B14757   1.130  11.364   6.291  0.2044 -0.1269 -0.1445
  943loPI   C2B14758   1.155  11.633   6.726 -0.1955  0.2164 -0.0039
  943loPI   C3B14759   1.404  11.688   7.033 -0.1083  0.0143 -0.0439
  943loPI   C4B14760   1.459  11.667   7.539  0.3663 -0.2072 -0.0297
  944loPI    C114761   2.541  10.321   5.066  0.1202 -0.2771  0.2562
  944loPI    C214762   2.634   9.947   4.957  0.1047 -0.1308 -0.2869
  944loPI    C314763   2.439  10.187   4.703 -0.0294  0.1983  0.1159
  944loPI   PO414764   2.701  10.344   5.262  0.2680  0.1289  0.1216
  944loPI   GL114765   2.769  10.183   5.702  0.2480 -0.0170 -0.2767
  944loPI   GL214766   2.727  10.462   5.760 -0.1579 -0.0576 -0.0041
  944loPI   C1A14767   2.866  10.099   6.117 -0.1529 -0.0215 -0.1270
  944loPI   C2A14768   2.806   9.826   6.502  0.1717  0.0180  0.2645
  944loPI   C3A14769   2.863   9.889   6.932  0.1242  0.2280  0.2319
  944loPI   C4A14770   2.853   9.845   7.357 -0.1703  0.2519  0.0659
  944loPI   C5A14771   2.897   9.896   7.826 -0.0061 -0.2601 -0.0526
  944loPI   C6A14772   2.714  10.280   8.073 -0.0507  0.3858  0.0347
  944loPI   C1B14773   2.524  10.524   6.103 -0.3161  0.4352  0.2494
  944loPI   C2B14774   2.440  10.765   6.479 -0.1753 -0.2536  0.1748
  944loPI   C3B14775   2.534  10.828   6.860 -0.1582  0.0877  0.1005
  944loPI   C4B14776   2.548  10.831   7.278 -0.0897 -0.0372 -0.2617
  945loPI    C114777   5.561   4.194   4.705 -0.0682  0.1604 -0.2080
  945loPI    C214778   5.730   3.985   4.409  0.0297 -0.1505  0.0621
  945loPI    C314779   5.850   4.360   4.482  0.2613 -0.1987 -0.0588
  945loPI   PO414780   5.525   3.884   4.930  0.2325  0.1401 -0.1078
  945loPI   GL114781   5.509   3.738   5.251 -0.0356 -0.0769  0.0641
  945loPI   GL214782   5.765   3.536   5.239  0.0819 -0.0977  0.0032
  945loPI   C1A14783   5.679   3.906   5.693  0.0939  0.1022  0.1595
  945loPI   C2A14784   5.680   3.972   6.118 -0.0181 -0.1115  0.0387
  945loPI   C3A14785   5.724   3.891   6.559  0.0615  0.0483 -0.2666
  945loPI   C4A14786   5.826   3.915   6.971 -0.3163  0.4664  0.2496
  945loPI   C5A14787   5.731   3.895   7.352 -0.1426 -0.2147  0.0104
  945loPI   C6A14788   5.844   3.796   7.772 -0.0464  0.0598 -0.2729
  945loPI   C1B14789   5.678   3.407   5.610  0.2102  0.1632 -0.1230
  945loPI   C2B14790   5.764   3.422   6.085 -0.0149  0.2082  0.0665
  945loPI   C3B14791   5.849   3.413   6.516 -0.2112  0.0442  0.0506
  945loPI   C4B14792   5.885   3.358   7.059  0.0911  0.0452 -0.1603
  946loPI    C114793  16.593   7.855   4.951 -0.2558  0.2241 -0.0567
  946loPI    C214794  16.764   7.951   4.602 -0.2446 -0.1315 -0.1525
  946loPI    C314795  16.581   7.598   4.645 -0.1173 -0.1539  0.2476
  946loPI   PO414796  16.734   7.737   5.247 -0.2295 -0.0873  0.0925
  946loPI   GL114797  16.813   7.808   5.762  0.2918  0.3244  0.1700
  946loPI   GL214798  16.582   7.592   5.702 -0.0305  0.0420 -0.1912
  946loPI   C1A14799  17.058   7.952   6.151 -0.0316 -0.1063  0.2491
  946loPI   C2A14800  17.057   7.907   6.581 -0.0158  0.0360  0.1499
  946loPI   C3A14801  16.990   7.807   6.977 -0.0789 -0.0373  0.3557
  946loPI   C4A14802  17.100   7.798   7.319 -0.1438 -0.0774 -0.3868
  946loPI   C5A14803  17.187   7.768   7.774  0.2622  0.1092 -0.1738
  946loPI   C6A14804  17.204   7.793   8.177 -0.1696 -0.1258  0.1921
  946loPI   C1B14805  16.519   7.594   6.234  0.0179  0.1243  0.3068
  946loPI   C2B14806  16.580   7.540   6.636  0.0232 -0.2637 -0.0623
  946loPI   C3B14807  16.646   7.470   7.091 -0.1223  0.1859 -0.1780
  946loPI   C4B14808  16.821   7.379   7.466  0.1174  0.1233 -0.0023
  947loPI    C114809  10.747   7.332   5.468 -0.1648  0.1240 -0.0209
  947loPI    C214810  11.128   7.219   5.421 -0.1931 -0.0639  0.1850
  947loPI    C314811  10.928   7.378   5.114 -0.0324 -0.2175 -0.0018
  947loPI   PO414812  10.682   7.113   5.693  0.0210  0.0404 -0.2247
  947loPI   GL114813  10.952   6.850   5.938 -0.0219 -0.1029 -0.2489
  947loPI   GL214814  11.199   6.556   5.964  0.3226 -0.0098  0.0899
  947loPI   C1A14815  10.802   6.980   6.313 -0.0405  0.0362 -0.1110
  947loPI   C2A14816  10.954   7.102   6.685  0.1686  0.1417  0.1462
  947loPI   C3A14817  10.953   7.113   7.137 -0.0835  0.3504  0.2420
  947loPI   C4A14818  10.966   7.043   7.525  0.0454  0.2798  0.1498
  947loPI   C5A14819  10.909   6.679   7.714 -0.0205 -0.1163 -0.1807
  947loPI   C6A14820  10.570   6.284   7.586 -0.0725 -0.0228 -0.1008
  947loPI   C1B14821  11.214   6.671   6.466 -0.2400  0.0457 -0.2185
  947loPI   C2B14822  11.249   6.690   6.882  0.0656  0.1007  0.4767
  947loPI   C3B14823  11.272   6.678   7.249  0.3188  0.1755 -0.1318
  947loPI   C4B14824  11.401   6.647   7.755 -0.1096 -0.0672  0.0091
  948loPI    C114825  16.774   6.441   5.047 -0.2210 -0.0565  0.0722
  948loPI    C214826  17.059   6.186   5.162  0.0894  0.3149  0.1453
  948loPI    C314827  16.877   6.136   4.810  0.0593 -0.0732  0.2117
  948loPI   PO414828  16.585   6.551   5.253 -0.1886 -0.1386 -0.0586
  948loPI   GL114829  16.684   6.502   5.756  0.0138 -0.1905 -0.2947
  948loPI   GL214830  16.909   6.249   5.682  0.0333  0.0124  0.0376
  948loPI   C1A14831  16.473   6.631   6.093 -0.0035  0.1802  0.1626
  948loPI   C2A14832  16.618   6.533   6.411  0.0352 -0.1058  0.2098
  948loPI   C3A14833  16.680   6.532   6.828  0.0767 -0.1013 -0.0461
  948loPI   C4A14834  16.497   6.480   7.180  0.0870 -0.0138  0.1548
  948loPI   C5A14835  16.285   6.384   7.592 -0.1321  0.0928 -0.0763
  948loPI   C6A14836  16.364   6.233   8.002  0.0220  0.2107 -0.1901
  948loPI   C1B14837  16.989   6.293   6.110 -0.2420 -0.1798  0.0374
  948loPI   C2B14838  17.119   6.322   6.569  0.0531  0.0110  0.1515
  948loPI   C3B14839  17.132   6.224   6.987  0.1242  0.3219 -0.1425
  948loPI   C4B14840  16.955   6.248   7.345  0.1429  0.1088 -0.0632
  949loPI    C114841  17.407  10.830   5.402 -0.0698  0.0775  0.0928
  949loPI    C214842  17.390  11.014   5.046 -0.3404 -0.0222  0.0522
  949loPI    C314843  17.640  10.706   5.101 -0.1204  0.1495  0.0235
  949loPI   PO414844  17.241  10.707   5.497 -0.0737 -0.1736 -0.0704
  949loPI   GL114845  17.157  10.522   5.982  0.0585 -0.1331 -0.0747
  949loPI   GL214846  17.378  10.256   5.925 -0.2203 -0.1244 -0.0087
  949loPI   C1A14847  16.851  10.553   6.252 -0.1886 -0.1135  0.2336
  949loPI   C2A14848  16.815  10.449   6.666  0.1923  0.0509  0.2800
  949loPI   C3A14849  16.606  10.450   7.126 -0.0090  0.2563 -0.0772
  949loPI   C4A14850  16.681  10.469   7.468  0.1480  0.2967 -0.1274
  949loPI   C5A14851  16.720  10.496   7.923  0.1557 -0.3071 -0.0253
  949loPI   C6A14852  17.145  10.569   8.090  0.1799  0.1999  0.0799
  949loPI   C1B14853  17.294  10.174   6.383  0.0882  0.3885 -0.2276
  949loPI   C2B14854  17.244  10.190   6.811 -0.0200  0.1678 -0.0510
  949loPI   C3B14855  17.191  10.244   7.243  0.0231 -0.2699  0.2379
  949loPI   C4B14856  17.145  10.396   7.628 -0.4397 -0.0363  0.1915
  950loPI    C114857   7.985  11.092   6.027  0.1416 -0.0981 -0.0787
  950loPI    C214858   8.332  11.153   5.837  0.0463  0.0406 -0.2114
  950loPI    C314859   8.106  10.837   5.744  0.1485 -0.0648 -0.1059
  950loPI   PO414860   8.063  11.124   6.268  0.0008 -0.0893 -0.3722
  950loPI   GL114861   8.228  11.390   6.529 -0.5318 -0.1375 -0.0981
  950loPI   GL214862   7.981  11.388   6.701 -0.1254  0.1403 -0.0273
  950loPI   C1A14863   8.442  11.546   6.812  0.2681 -0.2596 -0.1664
  950loPI   C2A14864   8.533  11.704   7.236 -0.0734  0.1169  0.3894
  950loPI   C3A14865   8.420  11.545   7.605 -0.0776 -0.0666 -0.0493
  950loPI   C4A14866   8.171  11.336   7.784 -0.1315  0.1705  0.0928
  950loPI   C5A14867   8.058  11.136   8.126 -0.2623 -0.1820  0.2593
  950loPI   C6A14868   8.133  11.078   8.519  0.0248 -0.2495 -0.1844
  950loPI   C1B14869   7.689  11.545   6.867  0.3381  0.2364 -0.3782
  950loPI   C2B14870   7.487  11.836   7.243  0.0009  0.2967  0.2120
  950loPI   C3B14871   7.358  11.966   7.628 -0.0021 -0.4448 -0.0248
  950loPI   C4B14872   7.445  11.937   8.031  0.0809 -0.2483 -0.1850
  951loPI    C114873   9.185  17.108   4.888 -0.0610  0.0326  0.1140
  951loPI    C214874   8.913  16.970   4.630  0.0271  0.0218  0.0260
  951loPI    C314875   9.212  17.200   4.500 -0.0593  0.2098  0.1553
  951loPI   PO414876   9.210  16.944   5.062  0.1012 -0.4544 -0.1485
  951loPI   GL114877   9.036  16.740   5.402 -0.1592 -0.1420  0.0746
  951loPI   GL214878   8.740  16.844   5.618  0.0916 -0.2280 -0.1617
  951loPI   C1A14879   9.247  16.820   5.774  0.0783  0.2030  0.1100
  951loPI   C2A14880   9.335  16.980   6.153  0.0744 -0.0181  0.1118
  951loPI   C3A14881   9.363  16.988   6.595  0.0692 -0.1323 -0.2248
  951loPI   C4A14882   9.225  16.986   6.986  0.1368  0.1566 -0.1580
  951loPI   C5A14883   9.232  16.830   7.380  0.0628 -0.1648 -0.1594
  951loPI   C6A14884   8.996  16.840   7.756 -0.1751 -0.1611 -0.1085
  951loPI   C1B14885   8.820  16.744   6.059 -0.0887  0.0107 -0.0176
  951loPI   C2B14886   8.971  16.596   6.466  0.1828  0.0077 -0.0067
  951loPI   C3B14887   8.886  16.527   6.948  0.0178  0.3219  0.1891
  951loPI   C4B14888   8.794  16.493   7.309 -0.2278  0.2282  0.0282
  952loPI    C114889  16.717  15.177   5.865  0.0501 -0.0250 -0.0382
  952loPI    C214890  16.359  15.075   5.719  0.0184  0.1028 -0.0506
  952loPI    C314891  16.684  14.864   5.618 -0.0724 -0.0955  0.0662
  952loPI   PO414892  16.704  15.466   5.849 -0.0329 -0.5008 -0.0226
  952loPI   GL114893  16.698  15.894   6.142  0.0259  0.0237 -0.0770
  952loPI   GL214894  16.848  16.126   6.064  0.1496  0.1704  0.1191
  952loPI   C1A14895  16.568  16.018   6.502 -0.1262 -0.1929 -0.1536
  952loPI   C2A14896  16.671  15.916   6.904  0.2468 -0.1366 -0.0125
  952loPI   C3A14897  16.869  16.003   7.280 -0.0162 -0.0210 -0.0649
  952loPI   C4A14898  17.039  15.797   7.618 -0.0556  0.0296 -0.2998
  952loPI   C5A14899  17.190  15.462   7.741  0.1588  0.2951  0.0529
  952loPI   C6A14900  17.435  15.203   8.004  0.0976  0.0390  0.1712
  952loPI   C1B14901  17.009  16.223   6.455 -0.1347  0.2306 -0.1583
  952loPI   C2B14902  16.993  16.269   6.856  0.0050 -0.0807 -0.0618
  952loPI   C3B14903  17.304  16.279   7.214  0.1870 -0.1003  0.1041
  952loPI   C4B14904  17.391  16.214   7.580 -0.0642  0.2539 -0.0447
  953loPI    C114905  11.252   2.293   4.818 -0.3569 -0.0709  0.2228
  953loPI    C214906  11.117   2.082   4.506 -0.1986  0.1058  0.0319
  953loPI    C314907  11.020   2.468   4.544 -0.2482  0.0757  0.2230
  953loPI   PO414908  11.181   2.148   5.016  0.1131 -0.2862 -0.0305
  953loPI   GL114909  11.207   2.133   5.442  0.0400  0.1382 -0.2152
  953loPI   GL214910  10.916   2.197   5.387 -0.1827  0.0052 -0.3012
  953loPI   C1A14911  11.133   1.730   5.686 -0.0770  0.0157  0.1625
  953loPI   C2A14912  11.087   1.644   6.039  0.1361 -0.1976  0.0539
  953loPI   C3A14913  11.046   1.615   6.520 -0.2564  0.1193  0.1454
  953loPI   C4A14914  11.050   1.631   7.012  0.1574 -0.0361 -0.1938
  953loPI   C5A14915  10.919   1.588   7.456  0.0779  0.0222  0.3217
  953loPI   C6A14916  11.078   1.651   7.878  0.4119 -0.1052 -0.1831
  953loPI   C1B14917  10.910   2.129   5.858  0.0309 -0.0311 -0.1752
  953loPI   C2B14918  10.904   2.076   6.315  0.3593 -0.3531  0.2247
  953loPI   C3B14919  10.962   2.084   6.736  0.0452 -0.0103 -0.1748
  953loPI   C4B14920  10.765   2.031   7.186 -0.2480 -0.4655 -0.0094
  954loPI    C114921  13.215  10.185   5.647 -0.1238  0.0768  0.1159
  954loPI    C214922  13.015  10.389   5.366  0.0219  0.1211  0.0432
  954loPI    C314923  13.351  10.194   5.271  0.0380  0.0838  0.1739
  954loPI   PO414924  13.080  10.013   5.733 -0.0116 -0.2600 -0.1167
  954loPI   GL114925  13.091   9.952   6.170 -0.0799  0.0389 -0.1338
  954loPI   GL214926  12.710   9.921   6.074  0.1289  0.1146 -0.0272
  954loPI   C1A14927  13.027   9.938   6.553  0.1415  0.0630  0.1363
  954loPI   C2A14928  12.848   9.747   6.854  0.0905  0.0101  0.0531
  954loPI   C3A14929  12.700   9.658   7.192  0.0962  0.1884 -0.0689
  954loPI   C4A14930  12.629   9.739   7.560  0.0565  0.0674  0.2125
  954loPI   C5A14931  12.282   9.406   7.786  0.0355 -0.0279  0.2096
  954loPI   C6A14932  11.811   9.403   7.929 -0.0819 -0.0469  0.0898
  954loPI   C1B14933  12.555   9.674   6.455 -0.0566  0.1378 -0.0815
  954loPI   C2B14934  12.302   9.569   6.819 -0.4125 -0.0856 -0.1466
  954loPI   C3B14935  12.225   9.501   7.240 -0.2459  0.2599  0.1343
  954loPI   C4B14936  11.967   9.675   7.467  0.0822  0.2156 -0.1521
  955loPI    C114937   7.414   3.655   4.884  0.4579  0.0137 -0.0790
  955loPI    C214938   7.386   3.994   4.673 -0.2579  0.0119 -0.0118
  955loPI    C314939   7.322   3.642   4.495 -0.0609 -0.0507  0.0385
  955loPI   PO414940   7.301   3.733   5.105 -0.0401  0.5218  0.2087
  955loPI   GL114941   7.174   3.608   5.570 -0.2457  0.2647 -0.0614
  955loPI   GL214942   7.459   3.549   5.568 -0.1924 -0.3355  0.0874
  955loPI   C1A14943   7.106   3.445   5.916 -0.1609 -0.1376  0.0480
  955loPI   C2A14944   7.176   3.474   6.289  0.2852 -0.2119 -0.1004
  955loPI   C3A14945   7.159   3.401   6.724 -0.4261 -0.0132 -0.2505
  955loPI   C4A14946   7.173   3.404   7.169  0.0029  0.2028  0.3470
  955loPI   C5A14947   7.209   3.466   7.504 -0.0124 -0.1884  0.1304
  955loPI   C6A14948   6.872   3.221   7.778  0.1642  0.1155  0.0834
  955loPI   C1B14949   7.473   3.856   5.973 -0.3728  0.5067  0.0509
  955loPI   C2B14950   7.533   3.815   6.412 -0.4056  0.1228  0.3338
  955loPI   C3B14951   7.557   3.737   6.826 -0.2753 -0.0795 -0.1813
  955loPI   C4B14952   7.666   3.872   7.150 -0.0170  0.0903  0.0882
  956loPI    C114953   8.202  17.171   4.933 -0.1563  0.1454  0.1431
  956loPI    C214954   7.836  17.300   4.833 -0.0590  0.2118 -0.1379
  956loPI    C314955   8.065  17.116   4.561 -0.0154 -0.1434  0.1304
  956loPI   PO414956   8.144  16.917   5.153 -0.0661 -0.1848  0.1624
  956loPI   GL114957   8.248  16.808   5.551 -0.0586  0.1300  0.0902
  956loPI   GL214958   8.001  16.914   5.680  0.3180  0.0670  0.3415
  956loPI   C1A14959   8.336  16.671   5.949  0.2161  0.2700 -0.2216
  956loPI   C2A14960   8.389  16.689   6.421 -0.0122  0.1144  0.0199
  956loPI   C3A14961   8.416  16.608   6.802 -0.0329  0.3232 -0.3160
  956loPI   C4A14962   8.333  16.546   7.143 -0.0526 -0.2780 -0.1544
  956loPI   C5A14963   8.399  16.500   7.620 -0.1235  0.1282 -0.1518
  956loPI   C6A14964   8.306  16.485   8.038 -0.1642 -0.0136 -0.0962
  956loPI   C1B14965   7.832  16.784   6.036 -0.0238 -0.1275 -0.0004
  956loPI   C2B14966   7.887  16.750   6.474  0.1541  0.0845 -0.0227
  956loPI   C3B14967   7.914  16.577   6.880  0.2958 -0.0419  0.0308
  956loPI   C4B14968   7.883  16.580   7.378  0.1447  0.0970  0.2770
  957loPI    C114969   1.544   4.276   4.736  0.1588  0.0317  0.1341
  957loPI    C214970   1.158   4.177   4.707  0.1176  0.3248 -0.4565
  957loPI    C314971   1.437   3.949   4.533  0.2227  0.0904  0.0045
  957loPI   PO414972   1.531   4.309   5.078 -0.1211 -0.0754  0.0537
  957loPI   GL114973   1.452   4.126   5.419  0.1599 -0.1810  0.1343
  957loPI   GL214974   1.666   4.430   5.569 -0.1285  0.1033  0.1709
  957loPI   C1A14975   1.403   4.155   5.864  0.0835 -0.0359  0.0030
  957loPI   C2A14976   1.417   4.205   6.320 -0.2472  0.2937 -0.2639
  957loPI   C3A14977   1.404   3.986   6.701  0.3638  0.0073  0.0362
  957loPI   C4A14978   1.573   3.746   6.944 -0.1721 -0.1249  0.0259
  957loPI   C5A14979   1.637   3.871   7.395  0.1350  0.3668  0.2469
  957loPI   C6A14980   1.938   4.140   7.740  0.0918 -0.0592  0.0135
  957loPI   C1B14981   1.835   4.386   6.118  0.2100 -0.0181 -0.1258
  957loPI   C2B14982   1.836   4.329   6.551 -0.0683  0.0750 -0.2006
  957loPI   C3B14983   1.918   4.160   7.040 -0.0446  0.2199  0.2228
  957loPI   C4B14984   2.147   4.054   7.302 -0.0195  0.1833 -0.1142
  958loPI    C114985   2.617   3.051   5.239 -0.1369 -0.3087 -0.0054
  958loPI    C214986   2.877   3.121   4.943 -0.1135 -0.2260  0.0343
  958loPI    C314987   2.536   3.330   4.964 -0.0459 -0.1264  0.1504
  958loPI   PO414988   2.749   3.035   5.468  0.2160  0.2567 -0.0074
  958loPI   GL114989   2.665   2.706   5.775 -0.0931 -0.0486 -0.0498
  958loPI   GL214990   2.418   2.570   5.926  0.1472 -0.1509 -0.2023
  958loPI   C1A14991   2.815   2.735   6.119  0.0268 -0.2658 -0.0558
  958loPI   C2A14992   2.745   2.798   6.498 -0.1679  0.0833 -0.0557
  958loPI   C3A14993   2.739   2.984   6.904  0.0476 -0.1309 -0.1996
  958loPI   C4A14994   2.748   2.855   7.292 -0.1643  0.1653  0.2440
  958loPI   C5A14995   2.949   3.012   7.611  0.1340 -0.2099 -0.1704
  958loPI   C6A14996   3.221   3.063   7.923 -0.3347 -0.1016  0.2479
  958loPI   C1B14997   2.415   2.417   6.313 -0.3124 -0.1215 -0.0836
  958loPI   C2B14998   2.358   2.491   6.686  0.2493 -0.0263  0.3519
  958loPI   C3B14999   2.297   2.691   7.088  0.3125 -0.2284  0.1281
  958loPI   C4B15000   2.410   2.525   7.480 -0.0128 -0.1452  0.2839
  959loPI    C115001   3.773  16.875   4.951  0.0383 -0.1644  0.1827
  959loPI    C215002   3.752  16.539   4.736  0.2745  0.0687 -0.2186
  959loPI    C315003   3.569  16.871   4.607  0.1946  0.1450  0.0820
  959loPI   PO415004   3.884  16.659   5.197 -0.0540  0.4350 -0.3371
  959loPI   GL115005   4.006  16.648   5.562 -0.1312 -0.0944  0.0739
  959loPI   GL215006   4.049  16.331   5.696  0.2374 -0.2883  0.1614
  959loPI   C1A15007   3.995  16.960   5.851  0.2606 -0.0165  0.0495
  959loPI   C2A15008   3.905  17.107   6.221 -0.0807  0.3201 -0.1850
  959loPI   C3A15009   3.774  17.065   6.609 -0.0816  0.3342 -0.1006
  959loPI   C4A15010   3.727  17.174   7.022  0.0939  0.1079  0.0679
  959loPI   C5A15011   3.545  17.024   7.425 -0.2475  0.1066  0.1437
  959loPI   C6A15012   3.785  17.216   7.800  0.0968 -0.2788 -0.3575
  959loPI   C1B15013   4.053  16.454   6.069 -0.1311 -0.1400  0.0190
  959loPI   C2B15014   4.055  16.645   6.530 -0.1348 -0.1410  0.1173
  959loPI   C3B15015   3.802  16.571   6.937 -0.1390  0.1795  0.0781
  959loPI   C4B15016   3.904  16.684   7.300 -0.0266  0.2703 -0.1434
  960loPI    C115017   2.546   9.505   5.198  0.4035  0.3378  0.1952
  960loPI    C215018   2.696   9.247   4.932 -0.1087 -0.0554  0.2718
  960loPI    C315019   2.423   9.516   4.817  0.0816  0.1488  0.2903
  960loPI   PO415020   2.791   9.614   5.357 -0.1273 -0.2596 -0.1369
  960loPI   GL115021   3.014   9.427   5.765 -0.2905 -0.2175 -0.0273
  960loPI   GL215022   3.092   9.739   5.796  0.0973  0.2707 -0.0381
  960loPI   C1A15023   2.805   9.368   6.195 -0.0789  0.5295 -0.0163
  960loPI   C2A15024   2.931   9.344   6.560 -0.2271  0.0138  0.0323
  960loPI   C3A15025   3.055   9.383   6.990  0.0550 -0.0696 -0.2243
  960loPI   C4A15026   3.044   9.384   7.426 -0.2481 -0.1215 -0.1548
  960loPI   C5A15027   2.781   9.272   7.876 -0.3318 -0.2636  0.0037
  960loPI   C6A15028   2.577   9.173   8.239  0.1003 -0.0963  0.1380
  960loPI   C1B15029   3.218   9.689   6.203 -0.2609  0.2219  0.0158
  960loPI   C2B15030   3.364   9.802   6.587 -0.1019  0.0478 -0.0477
  960loPI   C3B15031   3.363   9.760   6.982  0.1627 -0.2135  0.0864
  960loPI   C4B15032   3.357   9.770   7.495 -0.0190 -0.0837  0.1754
  961loPI    C115033   5.563  15.301   5.108  0.2207  0.0423 -0.0984
  961loPI    C215034   5.366  14.961   5.182  0.1411  0.1108  0.0073
  961loPI    C315035   5.729  14.949   5.016  0.1209 -0.0236 -0.0286
  961loPI   PO415036   5.403  15.459   5.307  0.0290 -0.0110 -0.0328
  961loPI   GL115037   5.383  15.479   5.789 -0.3984  0.0226  0.0050
  961loPI   GL215038   5.569  15.490   5.833  0.1004  0.1702 -0.0093
  961loPI   C1A15039   5.036  15.456   6.136 -0.2291  0.1533 -0.1608
  961loPI   C2A15040   4.895  15.292   6.537  0.0763  0.1502 -0.1893
  961loPI   C3A15041   4.847  15.360   7.005 -0.0156  0.1830 -0.0412
  961loPI   C4A15042   4.634  15.453   7.316 -0.0770 -0.0704 -0.0356
  961loPI   C5A15043   4.568  15.415   7.748 -0.0733  0.0191  0.2401
  961loPI   C6A15044   4.259  15.623   8.003  0.0222  0.0899  0.1633
  961loPI   C1B15045   5.532  15.365   6.295 -0.1737 -0.0624  0.3979
  961loPI   C2B15046   5.365  15.325   6.723 -0.0159  0.0839 -0.0054
  961loPI   C3B15047   5.399  15.243   7.098  0.1354  0.3758  0.1296
  961loPI   C4B15048   5.218  15.180   7.583 -0.0253 -0.1002  0.0464
  962loPI    C115049  17.391   9.830   5.586  0.1988 -0.0239  0.1130
  962loPI    C215050  17.416   9.932   5.200  0.2176 -0.1246  0.0874
  962loPI    C315051  17.561   9.580   5.324  0.1759 -0.1095  0.1795
  962loPI   PO415052  17.143   9.907   5.624 -0.1655  0.1339  0.1010
  962loPI   GL115053  16.948  10.107   6.027 -0.0526 -0.2850 -0.0324
  962loPI   GL215054  17.207   9.790   6.080  0.1416 -0.0410 -0.0346
  962loPI   C1A15055  16.787   9.952   6.412  0.2459  0.1154  0.2834
  962loPI   C2A15056  16.805   9.987   6.877 -0.3188  0.1555  0.0391
  962loPI   C3A15057  16.734   9.972   7.293 -0.2328 -0.5179 -0.2315
  962loPI   C4A15058  16.852   9.937   7.663  0.2660 -0.1183 -0.0287
  962loPI   C5A15059  16.932   9.951   8.047 -0.1281 -0.0165  0.2097
  962loPI   C6A15060  17.253   9.692   8.269 -0.1919 -0.1646 -0.0249
  962loPI   C1B15061  17.228   9.640   6.444  0.0560 -0.2776 -0.1489
  962loPI   C2B15062  17.226   9.697   6.880 -0.0985 -0.1509 -0.0077
  962loPI   C3B15063  17.181   9.698   7.303 -0.1406 -0.2161  0.2510
  962loPI   C4B15064  17.268   9.693   7.786  0.3523 -0.1034 -0.3213
  963loPI    C115065   4.366   0.886   4.806 -0.1045 -0.1362 -0.1646
  963loPI    C215066   4.034   0.911   4.586 -0.0828 -0.0629 -0.1893
  963loPI    C315067   4.392   0.941   4.411 -0.0674  0.1432 -0.1253
  963loPI   PO415068   4.317   0.914   5.072  0.2061 -0.1261 -0.0824
  963loPI   GL115069   4.155   0.850   5.390  0.0463 -0.3591 -0.1934
  963loPI   GL215070   3.797   0.860   5.498  0.1162 -0.1978 -0.4436
  963loPI   C1A15071   4.169   1.062   5.796  0.1418  0.2334  0.1584
  963loPI   C2A15072   4.171   0.998   6.292 -0.4492 -0.0602  0.1495
  963loPI   C3A15073   4.149   1.151   6.650  0.1209  0.2065 -0.1194
  963loPI   C4A15074   4.151   1.094   7.081 -0.2436  0.1320 -0.1565
  963loPI   C5A15075   4.110   1.037   7.509  0.2160 -0.0942  0.3580
  963loPI   C6A15076   4.158   0.803   8.013  0.0694  0.2109 -0.1329
  963loPI   C1B15077   3.861   0.638   5.901  0.1932  0.1124  0.1113
  963loPI   C2B15078   3.784   0.670   6.285  0.2517 -0.2756  0.1436
  963loPI   C3B15079   3.763   0.666   6.693 -0.2574  0.0579  0.0877
  963loPI   C4B15080   3.716   0.801   7.178  0.0856  0.0190 -0.1175
  964loPI    C115081   8.547  13.393   5.476 -0.0885  0.3246  0.0364
  964loPI    C215082   8.522  13.672   5.191  0.0037  0.0955 -0.2003
  964loPI    C315083   8.652  13.305   5.100  0.0200  0.0149  0.1360
  964loPI   PO415084   8.401  13.520   5.659  0.2228  0.2661 -0.1359
  964loPI   GL115085   8.386  13.564   5.977  0.0984  0.0499  0.1175
  964loPI   GL215086   8.207  13.382   6.132 -0.2051  0.0298 -0.2280
  964loPI   C1A15087   8.628  13.788   6.288 -0.2468 -0.0166 -0.2598
  964loPI   C2A15088   8.744  13.783   6.649  0.1379  0.2818 -0.0450
  964loPI   C3A15089   8.781  13.756   7.108  0.3876  0.1423  0.0135
  964loPI   C4A15090   8.560  13.563   7.445 -0.2736 -0.2297  0.2505
  964loPI   C5A15091   8.516  13.721   7.869 -0.0276 -0.1163 -0.0576
  964loPI   C6A15092   8.395  14.021   8.224  0.3255 -0.2812  0.2106
  964loPI   C1B15093   8.417  13.353   6.550 -0.2888  0.0070  0.0458
  964loPI   C2B15094   8.484  13.323   7.030 -0.0195 -0.2274 -0.0828
  964loPI   C3B15095   8.246  13.158   7.259  0.0876  0.0017 -0.2060
  964loPI   C4B15096   8.024  13.237   7.588 -0.0835  0.1188  0.3065
  965loPI    C115097  11.071   6.166   5.536  0.0167  0.3459 -0.0557
  965loPI    C215098  11.190   6.028   5.180 -0.1417  0.0888 -0.0117
  965loPI    C315099  10.835   6.209   5.216 -0.2252 -0.0856  0.0559
  965loPI   PO415100  11.281   6.241   5.618  0.0219  0.1490 -0.0060
  965loPI   GL115101  11.393   6.073   5.995 -0.2198 -0.1982 -0.0590
  965loPI   GL215102  11.631   6.262   6.113  0.1640  0.5604  0.0417
  965loPI   C1A15103  11.143   6.074   6.278  0.0590  0.2656 -0.3454
  965loPI   C2A15104  11.157   6.173   6.758 -0.1215 -0.1431 -0.0218
  965loPI   C3A15105  11.232   6.126   7.153  0.1226  0.3312 -0.0722
  965loPI   C4A15106  11.153   6.306   7.534  0.2912  0.3272  0.3424
  965loPI   C5A15107  11.049   6.221   7.981 -0.0951  0.0800  0.2990
  965loPI   C6A15108  10.934   6.177   8.392 -0.2465 -0.5100 -0.1889
  965loPI   C1B15109  11.550   6.277   6.518  0.1649  0.1032 -0.5897
  965loPI   C2B15110  11.592   6.354   6.932 -0.1797  0.0613 -0.4709
  965loPI   C3B15111  11.609   6.360   7.371 -0.1392 -0.3934 -0.0823
  965loPI   C4B15112  11.529   6.036   7.776  0.0088 -0.3155 -0.0063
  966loPI    C115113   1.705   3.665   5.496 -0.0300 -0.1617  0.1656
  966loPI    C215114   2.022   3.486   5.661  0.1505  0.1351  0.1486
  966loPI    C315115   2.061   3.847   5.493 -0.1210  0.0198 -0.1741
  966loPI   PO415116   1.601   3.487   5.323  0.0919  0.0833  0.0686
  966loPI   GL115117   1.646   3.158   5.628 -0.2468 -0.2736  0.0161
  966loPI   GL215118   1.272   3.193   5.681 -0.0349 -0.0543  0.3847
  966loPI   C1A15119   1.732   3.291   6.064  0.2453  0.0058  0.4770
  966loPI   C2A15120   1.742   3.167   6.458  0.0318  0.0338 -0.0341
  966loPI   C3A15121   1.762   3.291   6.908  0.3207  0.1179  0.1573
  966loPI   C4A15122   1.710   3.303   7.276 -0.2297  0.0400 -0.0481
  966loPI   C5A15123   1.698   3.360   7.702  0.2819 -0.4252  0.1211
  966loPI   C6A15124   1.687   3.729   7.916  0.0114 -0.1244  0.0158
  966loPI   C1B15125   1.022   3.339   5.991  0.0516  0.0038 -0.1664
  966loPI   C2B15126   0.804   3.374   6.344  0.0789 -0.2626 -0.2667
  966loPI   C3B15127   0.757   3.360   6.770  0.0979 -0.1417  0.0709
  966loPI   C4B15128   0.776   3.446   7.287 -0.0106  0.0307 -0.1712
  967loPI    C115129   0.531  12.326   4.914  0.1290  0.2461  0.3496
  967loPI    C215130   0.892  12.499   4.908  0.0204  0.4726  0.0109
  967loPI    C315131   0.585  12.672   4.719 -0.1237 -0.0277 -0.2295
  967loPI   PO415132   0.506  12.274   5.150  0.0634 -0.0726  0.1684
  967loPI   GL115133   0.438  12.328   5.561  0.1226  0.1363  0.3527
  967loPI   GL215134   0.187  12.577   5.674  0.2623 -0.0116  0.2893
  967loPI   C1A15135   0.598  12.305   6.083 -0.2702 -0.0066  0.1160
  967loPI   C2A15136   0.644  12.398   6.525  0.0554 -0.0612 -0.0173
  967loPI   C3A15137   0.697  12.343   6.939  0.0010 -0.0717  0.2985
  967loPI   C4A15138   0.747  12.288   7.325  0.1331  0.1848 -0.0492
  967loPI   C5A15139   0.745  12.203   7.765  0.0836 -0.0759 -0.0766
  967loPI   C6A15140   0.997  12.326   8.167 -0.1686 -0.0816 -0.2913
  967loPI   C1B15141   0.245  12.659   6.042 -0.2762 -0.0999  0.2476
  967loPI   C2B15142   0.110  12.597   6.388 -0.0028 -0.2392  0.0624
  967loPI   C3B15143   0.269  12.586   6.764 -0.0762 -0.1193  0.0521
  967loPI   C4B15144   0.248  12.453   7.173 -0.0475  0.0965 -0.0256
  968loPI    C115145  17.743  15.837   5.464 -0.0057  0.0831  0.0016
  968loPI    C215146  17.801  15.651   5.114 -0.1966 -0.0849  0.0574
  968loPI    C315147  17.482  15.887   5.166 -0.1171  0.0169  0.0874
  968loPI   PO415148  18.060  15.721   5.594  0.0882  0.0650  0.0099
  968loPI   GL115149  18.171  15.784   6.034  0.2176 -0.1962 -0.2096
  968loPI   GL215150  18.382  16.031   6.104 -0.0055  0.0891 -0.0382
  968loPI   C1A15151  18.242  15.615   6.392 -0.0870 -0.1479 -0.0162
  968loPI   C2A15152  18.348  15.433   6.845 -0.1129  0.1332 -0.2868
  968loPI   C3A15153  18.214  15.480   7.300 -0.1412  0.0517 -0.0296
  968loPI   C4A15154  18.156  15.642   7.709  0.2013 -0.0683 -0.1668
  968loPI   C5A15155  18.058  15.914   8.100  0.0639  0.2120 -0.0012
  968loPI   C6A15156  18.025  15.720   8.549 -0.2169  0.1926  0.0618
  968loPI   C1B15157  18.512  16.295   6.496  0.2387  0.2884  0.1683
  968loPI   C2B15158  18.514  16.350   6.900  0.1834 -0.0567  0.1667
  968loPI   C3B15159  18.352  16.693   7.318 -0.0024  0.0723  0.1175
  968loPI   C4B15160  18.286  16.689   7.726  0.5271  0.0089  0.0134
  969loPI    C115161   8.172   9.781   5.856  0.1171 -0.2524  0.1761
  969loPI    C215162   7.988   9.480   6.045 -0.0468 -0.2970 -0.0502
  969loPI    C315163   7.991   9.493   5.645 -0.0795  0.0261 -0.0429
  969loPI   PO415164   8.402   9.773   5.964  0.0356  0.2676 -0.2197
  969loPI   GL115165   8.432   9.681   6.337 -0.1091  0.0884 -0.1453
  969loPI   GL215166   8.548   9.353   6.317 -0.2254  0.2670 -0.0863
  969loPI   C1A15167   8.477   9.603   6.727  0.0692 -0.0871  0.1380
  969loPI   C2A15168   8.360   9.649   7.208 -0.0541  0.1933  0.1532
  969loPI   C3A15169   8.462   9.676   7.616  0.1643 -0.3148  0.0880
  969loPI   C4A15170   8.609   9.454   7.907  0.0434 -0.2082  0.1301
  969loPI   C5A15171   8.982   9.398   8.170 -0.1732 -0.1546  0.4607
  969loPI   C6A15172   9.147   9.336   8.549  0.0098 -0.0781  0.1848
  969loPI   C1B15173   8.100   9.332   6.548  0.1847  0.1709 -0.2973
  969loPI   C2B15174   8.196   9.272   6.982  0.2330  0.0611  0.0384
  969loPI   C3B15175   8.148   9.301   7.464  0.3449 -0.3378 -0.2767
  969loPI   C4B15176   8.067   9.286   7.954 -0.1153  0.1241  0.0311
  970loPI    C115177  15.375   0.213   5.495 -0.0148  0.0861  0.2800
  970loPI    C215178  15.759   0.167   5.394 -0.0939 -0.0309  0.0247
  970loPI    C315179  15.580   0.521   5.341  0.0321  0.0832  0.3362
  970loPI   PO415180  15.418   0.168   5.729  0.2559  0.0403 -0.0417
  970loPI   GL115181  15.380  -0.145   6.031 -0.1405 -0.4910  0.0120
  970loPI   GL215182  15.459   0.197   6.224 -0.2495 -0.1739 -0.0933
  970loPI   C1A15183  15.400  -0.296   6.498  0.0809  0.1829 -0.1470
  970loPI   C2A15184  15.211  -0.571   6.840  0.1429 -0.0369 -0.1273
  970loPI   C3A15185  14.717  -0.691   6.951 -0.0273 -0.1527 -0.0350
  970loPI   C4A15186  14.740  -0.902   7.315  0.0604  0.0816  0.0465
  970loPI   C5A15187  14.492  -0.955   7.742 -0.0732  0.0008  0.1490
  970loPI   C6A15188  14.315  -0.908   8.108 -0.1259  0.1748 -0.1123
  970loPI   C1B15189  15.493   0.188   6.713 -0.1539  0.0763  0.0325
  970loPI   C2B15190  15.332   0.006   6.958  0.0683  0.0250  0.0240
  970loPI   C3B15191  15.351  -0.228   7.316 -0.0917 -0.2589 -0.0304
  970loPI   C4B15192  15.435  -0.376   7.682 -0.2367 -0.2212 -0.1599
  971loPI    C115193  11.560   0.197   5.167  0.3888 -0.0365 -0.2068
  971loPI    C215194  11.332   0.036   4.880 -0.0620  0.0029  0.1186
  971loPI    C315195  11.677   0.214   4.785 -0.0281 -0.2974 -0.3532
  971loPI   PO415196  11.420   0.230   5.368  0.0577 -0.0279  0.2561
  971loPI   GL115197  11.231   0.200   5.825  0.2466  0.1922  0.2645
  971loPI   GL215198  11.515   0.352   5.841  0.1925 -0.0490  0.0467
  971loPI   C1A15199  11.112   0.210   6.257  0.0872 -0.1956  0.2765
  971loPI   C2A15200  11.068   0.214   6.650  0.3043 -0.0287 -0.0311
  971loPI   C3A15201  11.059   0.198   7.091 -0.0807  0.1160 -0.0177
  971loPI   C4A15202  11.007   0.293   7.585 -0.0645  0.3213 -0.0305
  971loPI   C5A15203  10.820   0.145   7.996 -0.0932  0.1313  0.0431
  971loPI   C6A15204  10.998  -0.031   8.262 -0.0025  0.1005  0.0396
  971loPI   C1B15205  11.517   0.629   6.140 -0.0428 -0.2271 -0.0758
  971loPI   C2B15206  11.474   0.683   6.618 -0.0592  0.1290 -0.1258
  971loPI   C3B15207  11.401   0.604   7.039  0.5942 -0.2620 -0.1696
  971loPI   C4B15208  11.302   0.692   7.429  0.2292  0.2121 -0.0218
  972loPI    C115209  11.722   7.778   5.197 -0.0928 -0.1514  0.0724
  972loPI    C215210  11.416   7.533   5.118 -0.0444 -0.1901  0.0044
  972loPI    C315211  11.790   7.422   5.028 -0.0545  0.0573 -0.3657
  972loPI   PO415212  11.649   7.890   5.429 -0.2995 -0.2374 -0.1066
  972loPI   GL115213  11.633   7.900   5.810  0.1769 -0.0760  0.3321
  972loPI   GL215214  11.352   7.802   5.953  0.2678  0.1611 -0.0241
  972loPI   C1A15215  11.667   8.111   6.330 -0.3002 -0.0444  0.1526
  972loPI   C2A15216  11.759   8.136   6.760  0.1467  0.0803 -0.1890
  972loPI   C3A15217  11.830   8.103   7.204 -0.2070  0.1407  0.3608
  972loPI   C4A15218  11.922   8.124   7.612 -0.1805 -0.2390  0.0950
  972loPI   C5A15219  12.114   8.034   7.971  0.1813 -0.0423 -0.2034
  972loPI   C6A15220  12.561   8.047   8.210  0.4240 -0.1173 -0.1631
  972loPI   C1B15221  11.532   7.630   6.273  0.0067  0.0334  0.1873
  972loPI   C2B15222  11.543   7.656   6.658  0.0251  0.1492  0.1918
  972loPI   C3B15223  11.640   7.680   7.017 -0.1949  0.0389  0.1576
  972loPI   C4B15224  11.615   7.683   7.468  0.0265  0.0425  0.3688
  973loPI    C115225   8.050  16.058   5.099 -0.0875 -0.0114 -0.0382
  973loPI    C215226   8.019  15.746   4.851  0.0311  0.0111 -0.0818
  973loPI    C315227   8.213  16.076   4.734  0.1162  0.0095  0.0523
  973loPI   PO415228   8.067  16.006   5.384  0.1431 -0.0056  0.0616
  973loPI   GL115229   7.977  16.251   5.760 -0.2053  0.2203  0.1300
  973loPI   GL215230   8.289  15.988   5.852 -0.1122  0.1589  0.1953
  973loPI   C1A15231   8.048  16.334   6.155 -0.3688 -0.1781 -0.0834
  973loPI   C2A15232   8.097  16.262   6.553 -0.3813 -0.0701  0.1122
  973loPI   C3A15233   8.161  16.127   6.934  0.0267  0.4659 -0.1835
  973loPI   C4A15234   8.060  16.025   7.338  0.2868  0.0146  0.1354
  973loPI   C5A15235   8.067  16.059   7.766 -0.0746 -0.0854 -0.2585
  973loPI   C6A15236   7.860  16.241   8.147  0.1711  0.2284  0.2821
  973loPI   C1B15237   8.266  15.864   6.242 -0.0003  0.3590 -0.0264
  973loPI   C2B15238   8.320  15.707   6.622 -0.1004  0.1519  0.1487
  973loPI   C3B15239   8.315  15.650   7.044  0.1593  0.1663 -0.0102
  973loPI   C4B15240   8.262  15.602   7.492 -0.0651  0.6425 -0.1521
  974loPI    C115241   7.097   9.530   5.470 -0.0673  0.0406  0.1936
  974loPI    C215242   6.839   9.686   5.207  0.0466 -0.1437 -0.0319
  974loPI    C315243   7.231   9.690   5.129  0.1073  0.0445  0.2629
  974loPI   PO415244   7.044   9.606   5.696 -0.0074 -0.0998  0.1356
  974loPI   GL115245   6.945   9.559   6.095 -0.3623  0.0072  0.2389
  974loPI   GL215246   6.724   9.398   6.048 -0.0138  0.2856  0.0390
  974loPI   C1A15247   7.133   9.618   6.583 -0.0574  0.0337  0.1072
  974loPI   C2A15248   7.276   9.678   7.008  0.2165 -0.1416 -0.0751
  974loPI   C3A15249   7.362   9.733   7.428  0.0284 -0.3311  0.0653
  974loPI   C4A15250   7.216  10.024   7.822 -0.3326  0.0076  0.0773
  974loPI   C5A15251   6.992  10.147   8.119  0.1377  0.1227 -0.0917
  974loPI   C6A15252   6.786  10.057   8.547 -0.0383  0.0346  0.0433
  974loPI   C1B15253   6.741   9.342   6.521  0.0803  0.3433  0.0903
  974loPI   C2B15254   6.743   9.194   6.892 -0.1258  0.2674  0.1557
  974loPI   C3B15255   6.680   9.291   7.305 -0.2703 -0.0669 -0.0719
  974loPI   C4B15256   6.692   9.210   7.788 -0.2111 -0.1743 -0.0580
  975loPI    C115257   2.542   7.723   5.046  0.0867  0.1879 -0.1299
  975loPI    C215258   2.802   7.983   4.889  0.0124  0.2394 -0.1681
  975loPI    C315259   2.569   7.764   4.650  0.1947  0.0126 -0.1421
  975loPI   PO415260   2.640   7.604   5.203  0.0673 -0.2654 -0.2250
  975loPI   GL115261   2.453   7.382   5.569 -0.2131  0.0917  0.1780
  975loPI   GL215262   2.160   7.223   5.502 -0.0339  0.1828 -0.0747
  975loPI   C1A15263   2.323   7.172   5.984 -0.0381 -0.0594  0.3744
  975loPI   C2A15264   2.356   6.990   6.332 -0.0171  0.0823 -0.0835
  975loPI   C3A15265   2.405   6.892   6.737 -0.1551 -0.0434  0.0317
  975loPI   C4A15266   2.392   6.931   7.118 -0.1676 -0.1645  0.1315
  975loPI   C5A15267   2.277   6.948   7.474  0.0235 -0.3037 -0.1310
  975loPI   C6A15268   2.302   6.803   7.795 -0.0374 -0.0528 -0.1326
  975loPI   C1B15269   1.841   7.344   5.798  0.1712  0.1258 -0.2942
  975loPI   C2B15270   1.843   7.213   6.224  0.4307 -0.0943  0.0279
  975loPI   C3B15271   1.914   7.098   6.673  0.0003  0.1395 -0.1174
  975loPI   C4B15272   1.984   7.092   7.161  0.1086  0.2609  0.3101
  976loPI    C115273  16.462  15.966   5.723  0.0513  0.3086 -0.0875
  976loPI    C215274  16.506  15.946   5.326 -0.0597 -0.1632 -0.0822
  976loPI    C315275  16.813  15.854   5.566 -0.0294  0.0032 -0.0553
  976loPI   PO415276  16.327  16.216   5.816 -0.0440  0.1768 -0.0762
  976loPI   GL115277  16.174  16.345   6.138  0.1907  0.1097 -0.1605
  976loPI   GL215278  15.957  16.595   5.950 -0.3080  0.0609  0.2518
  976loPI   C1A15279  16.142  16.240   6.491 -0.0488 -0.1519  0.1389
  976loPI   C2A15280  16.073  16.282   6.939 -0.0144 -0.2493  0.1626
  976loPI   C3A15281  15.987  16.459   7.312 -0.0286 -0.0721  0.3846
  976loPI   C4A15282  16.005  16.447   7.770 -0.0976  0.2605 -0.0208
  976loPI   C5A15283  16.440  16.399   8.014 -0.0188 -0.1099  0.1258
  976loPI   C6A15284  16.746  16.259   8.311  0.0499  0.2403 -0.0066
  976loPI   C1B15285  16.061  16.738   6.349 -0.1595  0.0281  0.1605
  976loPI   C2B15286  16.151  16.780   6.684 -0.1228 -0.1679 -0.2307
  976loPI   C3B15287  16.253  16.806   7.079 -0.1110 -0.0659 -0.2335
  976loPI   C4B15288  16.479  16.680   7.535 -0.0821 -0.1930  0.4462
  977loPI    C115289   4.725  16.606   5.263 -0.0201 -0.0592 -0.1497
  977loPI    C215290   4.754  16.229   5.131  0.1910 -0.1138  0.0452
  977loPI    C315291   4.885  16.532   4.904  0.0407 -0.1579 -0.1027
  977loPI   PO415292   4.841  16.628   5.469  0.2930 -0.0710 -0.0345
  977loPI   GL115293   4.787  16.808   5.865  0.0957  0.3420  0.0335
  977loPI   GL215294   4.451  16.791   5.791 -0.1433 -0.1008  0.1413
  977loPI   C1A15295   4.816  16.852   6.267  0.1725  0.1093  0.0264
  977loPI   C2A15296   4.784  16.772   6.732 -0.1952 -0.0682  0.0521
  977loPI   C3A15297   4.679  16.856   7.057  0.0011 -0.0756 -0.0675
  977loPI   C4A15298   4.375  16.626   7.299  0.1284 -0.2068 -0.1732
  977loPI   C5A15299   4.280  16.777   7.761  0.0443  0.0092 -0.1397
  977loPI   C6A15300   3.991  16.875   8.161 -0.0472  0.0387 -0.0441
  977loPI   C1B15301   4.358  16.914   6.190 -0.0341 -0.1102  0.3734
  977loPI   C2B15302   4.343  17.022   6.618  0.0695  0.0659 -0.0310
  977loPI   C3B15303   4.194  16.976   7.027 -0.0423 -0.1206  0.1815
  977loPI   C4B15304   4.095  17.109   7.429 -0.0626  0.0615  0.5011
  978loPI    C115305  12.082   9.232   5.306  0.2087 -0.1784 -0.0516
  978loPI    C215306  11.937   8.873   5.406 -0.1386 -0.0854 -0.2065
  978loPI    C315307  11.996   8.965   5.021 -0.0958  0.0400 -0.1706
  978loPI   PO415308  11.871   9.407   5.456 -0.3269 -0.1442 -0.1724
  978loPI   GL115309  11.880   9.289   5.803 -0.0353  0.0199 -0.3755
  978loPI   GL215310  12.031   9.019   5.885 -0.1533 -0.0399  0.0262
  978loPI   C1A15311  11.667   9.302   6.194 -0.0661 -0.0879 -0.1388
  978loPI   C2A15312  11.607   9.103   6.561  0.1065 -0.0066 -0.2746
  978loPI   C3A15313  11.580   8.972   6.967 -0.0126  0.2846  0.0411
  978loPI   C4A15314  11.629   8.907   7.302  0.0395  0.0220  0.1017
  978loPI   C5A15315  11.580   8.918   7.686 -0.3007 -0.0828  0.1658
  978loPI   C6A15316  11.543   8.901   8.106 -0.3257  0.1125  0.0387
  978loPI   C1B15317  12.029   8.993   6.286 -0.2387 -0.0173 -0.0273
  978loPI   C2B15318  12.077   9.066   6.656  0.0032 -0.1662 -0.1547
  978loPI   C3B15319  12.085   8.999   7.101  0.0373 -0.3641 -0.0199
  978loPI   C4B15320  12.061   9.026   7.501 -0.0528  0.0681  0.1711
  979loPI    C115321   1.683  12.949   5.187  0.1259  0.0902  0.1399
  979loPI    C215322   1.732  13.107   4.823  0.2193  0.0623  0.1400
  979loPI    C315323   1.388  13.162   5.020  0.0635 -0.1532 -0.0661
  979loPI   PO415324   1.911  12.996   5.292 -0.0730  0.0000 -0.1075
  979loPI   GL115325   2.019  13.294   5.620 -0.1941 -0.1957  0.2515
  979loPI   GL215326   2.245  13.141   5.825 -0.2089  0.2053  0.0344
  979loPI   C1A15327   1.931  13.437   6.091 -0.0052  0.3097  0.1781
  979loPI   C2A15328   1.912  13.405   6.518  0.0617  0.1481 -0.0934
  979loPI   C3A15329   1.865  13.413   6.919 -0.1557 -0.1604  0.1157
  979loPI   C4A15330   1.807  13.335   7.389 -0.1693  0.1481 -0.4715
  979loPI   C5A15331   1.830  13.154   7.758 -0.2182 -0.2329 -0.6622
  979loPI   C6A15332   1.760  12.677   7.880 -0.0068 -0.3422 -0.1992
  979loPI   C1B15333   2.171  12.935   6.125  0.0232  0.0772 -0.1262
  979loPI   C2B15334   1.930  12.905   6.419 -0.0785 -0.0720 -0.1048
  979loPI   C3B15335   1.976  12.959   6.837 -0.1806  0.4199  0.0132
  979loPI   C4B15336   1.924  12.744   7.315 -0.5303  0.1055  0.3057
  980loPI    C115337   7.723   2.284   5.085 -0.1482 -0.1057  0.3063
  980loPI    C215338   7.328   2.226   5.122 -0.1891 -0.1131 -0.0943
  980loPI    C315339   7.477   2.376   4.782  0.1305  0.1330  0.1479
  980loPI   PO415340   7.819   2.029   5.160  0.1473 -0.0421  0.3053
  980loPI   GL115341   7.627   1.706   5.386  0.0598 -0.1612  0.2834
  980loPI   GL215342   7.329   1.834   5.589  0.0016 -0.0675  0.1668
  980loPI   C1A15343   7.758   1.725   5.842  0.0496  0.1362 -0.0467
  980loPI   C2A15344   7.784   1.513   6.224  0.1140  0.0841 -0.0364
  980loPI   C3A15345   7.751   1.406   6.679  0.2383 -0.1484 -0.0500
  980loPI   C4A15346   7.738   1.274   6.968  0.1659 -0.1585 -0.0630
  980loPI   C5A15347   7.684   1.214   7.338  0.1417  0.1772 -0.0548
  980loPI   C6A15348   7.748   1.556   7.641  0.0223  0.3566  0.1679
  980loPI   C1B15349   7.239   1.600   5.987 -0.1615 -0.2264  0.1020
  980loPI   C2B15350   7.293   1.546   6.430 -0.0944  0.0768 -0.0610
  980loPI   C3B15351   7.234   1.394   6.803  0.3358  0.1136 -0.0135
  980loPI   C4B15352   7.235   1.411   7.206 -0.0445  0.0684  0.1161
  981loPI    C115353   9.099   2.071   5.065  0.2029  0.2022  0.1040
  981loPI    C215354   9.115   2.282   4.726  0.0960  0.1465  0.0638
  981loPI    C315355   9.419   2.041   4.826 -0.0088 -0.0798 -0.1521
  981loPI   PO415356   9.049   2.222   5.273 -0.2233  0.1171 -0.0294
  981loPI   GL115357   8.975   2.313   5.632  0.0994 -0.0686 -0.0027
  981loPI   GL215358   8.836   2.535   5.796 -0.0497  0.0486  0.0342
  981loPI   C1A15359   9.077   2.062   6.105  0.0441 -0.0260 -0.0590
  981loPI   C2A15360   9.087   2.059   6.512  0.1174 -0.2145  0.0074
  981loPI   C3A15361   8.985   1.956   6.927  0.0310 -0.0036 -0.0364
  981loPI   C4A15362   8.947   2.012   7.341  0.0954 -0.2124 -0.0978
  981loPI   C5A15363   9.202   2.252   7.663 -0.0363 -0.1281 -0.2034
  981loPI   C6A15364   9.103   2.722   7.602  0.1182 -0.1960 -0.1148
  981loPI   C1B15365   8.872   2.489   6.208  0.1690 -0.1452  0.0801
  981loPI   C2B15366   8.832   2.520   6.661  0.4118 -0.1376  0.4207
  981loPI   C3B15367   8.867   2.479   7.121 -0.2269 -0.2520  0.1842
  981loPI   C4B15368   8.724   2.430   7.508  0.1031 -0.1857 -0.0083
  982loPI    C115369  10.742   3.073   5.295 -0.0851 -0.1959 -0.1643
  982loPI    C215370  11.099   3.154   5.136  0.0586 -0.2896  0.1048
  982loPI    C315371  10.767   3.222   4.925  0.2130  0.1887  0.0037
  982loPI   PO415372  10.831   3.134   5.588 -0.2902 -0.1648 -0.1780
  982loPI   GL115373  10.990   3.282   6.015  0.1762  0.1844  0.2334
  982loPI   GL215374  11.107   3.034   6.036  0.1632 -0.0019 -0.0197
  982loPI   C1A15375  10.726   3.569   6.192 -0.0698  0.1794 -0.0327
  982loPI   C2A15376  10.710   3.520   6.666 -0.4581 -0.1926  0.1513
  982loPI   C3A15377  10.486   3.521   7.020  0.0766 -0.0661 -0.0387
  982loPI   C4A15378  10.441   3.431   7.556 -0.0184  0.1531 -0.3813
  982loPI   C5A15379  10.238   3.352   7.950  0.0601 -0.1328 -0.0179
  982loPI   C6A15380  10.049   3.344   8.350 -0.0092 -0.1603 -0.0605
  982loPI   C1B15381  11.034   3.059   6.479  0.3602  0.0946 -0.0825
  982loPI   C2B15382  11.047   2.954   6.957 -0.0840 -0.0036  0.1915
  982loPI   C3B15383  11.050   2.833   7.407  0.1315 -0.2183  0.3130
  982loPI   C4B15384  11.102   2.776   7.803 -0.0166  0.1528  0.1712
  983loPI    C115385  13.201   8.219   5.178  0.1105  0.5135  0.1145
  983loPI    C215386  13.547   8.392   5.279  0.2320  0.2273  0.1965
  983loPI    C315387  13.526   8.163   4.951  0.0857  0.3533  0.1172
  983loPI   PO415388  13.147   8.074   5.385  0.0792 -0.1248  0.1078
  983loPI   GL115389  12.916   8.079   5.722 -0.2494  0.0162 -0.1900
  983loPI   GL215390  13.029   7.887   5.855  0.4406  0.0554 -0.1580
  983loPI   C1A15391  12.892   8.325   6.162 -0.1075 -0.1873 -0.0371
  983loPI   C2A15392  12.840   8.308   6.564  0.1841 -0.1572  0.1141
  983loPI   C3A15393  12.807   8.269   7.030 -0.2958 -0.0207  0.1061
  983loPI   C4A15394  12.859   8.278   7.443 -0.0873 -0.2450 -0.0247
  983loPI   C5A15395  13.148   8.576   7.571  0.0128 -0.2986  0.1387
  983loPI   C6A15396  13.163   8.897   7.674  0.4136 -0.1542 -0.2584
  983loPI   C1B15397  13.117   7.864   6.279 -0.1394  0.2322  0.1699
  983loPI   C2B15398  13.132   7.972   6.683  0.2686 -0.0781  0.3519
  983loPI   C3B15399  13.178   7.925   7.099 -0.0503 -0.0432 -0.0634
  983loPI   C4B15400  13.243   8.013   7.556 -0.1185 -0.0221  0.0604
  984loPI    C115401  15.814  11.771   5.589  0.2992 -0.0016 -0.0945
  984loPI    C215402  15.602  11.555   5.850  0.2332  0.2818  0.0899
  984loPI    C315403  15.470  11.600   5.475  0.2578 -0.0113  0.0436
  984loPI   PO415404  16.055  11.707   5.717  0.0718 -0.0567  0.1373
  984loPI   GL115405  16.301  11.751   6.022  0.0392 -0.1095  0.1545
  984loPI   GL215406  16.199  11.435   6.156  0.0458 -0.2169  0.1016
  984loPI   C1A15407  16.470  11.817   6.374 -0.1599  0.3602  0.1720
  984loPI   C2A15408  16.605  11.769   6.794 -0.1464  0.2533 -0.2300
  984loPI   C3A15409  16.713  11.763   7.314 -0.0262 -0.1620 -0.1440
  984loPI   C4A15410  16.842  11.721   7.729  0.0200  0.1394  0.1676
  984loPI   C5A15411  16.973  11.986   8.110  0.0335  0.1132 -0.3154
  984loPI   C6A15412  16.955  12.451   8.007 -0.3572  0.0702  0.1278
  984loPI   C1B15413  16.587  11.335   6.178  0.3197  0.1618 -0.2319
  984loPI   C2B15414  16.947  11.131   6.263  0.0005  0.2061  0.1349
  984loPI   C3B15415  17.210  10.807   6.513  0.0359 -0.0414  0.0673
  984loPI   C4B15416  17.244  10.746   6.816 -0.0404  0.0428  0.0523
  985loPI    C115417   6.012   7.439   4.920 -0.0429  0.0941  0.0216
  985loPI    C215418   5.866   7.288   4.579  0.1781  0.0302 -0.0469
  985loPI    C315419   5.856   7.683   4.644 -0.0419  0.0249 -0.0406
  985loPI   PO415420   5.991   7.322   5.063  0.2517 -0.4071 -0.2175
  985loPI   GL115421   6.197   7.166   5.448  0.2302 -0.0750 -0.2109
  985loPI   GL215422   6.289   7.508   5.482 -0.1501  0.2023 -0.3035
  985loPI   C1A15423   6.007   7.147   5.805 -0.2045  0.1135 -0.1829
  985loPI   C2A15424   5.860   7.152   6.264 -0.0760  0.0574 -0.2333
  985loPI   C3A15425   5.935   7.228   6.627 -0.0473  0.0900 -0.0722
  985loPI   C4A15426   5.884   7.097   7.088 -0.0133 -0.1399  0.2499
  985loPI   C5A15427   5.908   7.031   7.525 -0.0354  0.0252  0.3706
  985loPI   C6A15428   5.903   6.898   7.885  0.0433 -0.2166  0.3730
  985loPI   C1B15429   6.438   7.507   5.879  0.0310 -0.0669 -0.1214
  985loPI   C2B15430   6.151   7.523   6.142 -0.0094 -0.2430 -0.0209
  985loPI   C3B15431   6.313   7.529   6.552 -0.2327  0.1293 -0.2849
  985loPI   C4B15432   6.225   7.522   7.043 -0.2029 -0.0297  0.2207
  986loPI    C115433   4.115  15.442   5.365  0.2502  0.1264  0.0792
  986loPI    C215434   4.409  15.225   5.528  0.0454 -0.1444  0.0926
  986loPI    C315435   4.381  15.258   5.131  0.1015 -0.1077  0.0917
  986loPI   PO415436   3.887  15.466   5.509 -0.0918 -0.2849 -0.1471
  986loPI   GL115437   3.933  15.469   5.834  0.3130  0.1758  0.2487
  986loPI   GL215438   4.114  15.268   6.012 -0.1033 -0.0367 -0.0121
  986loPI   C1A15439   3.754  15.664   6.191 -0.1413  0.1579  0.1315
  986loPI   C2A15440   3.634  15.648   6.635 -0.1737 -0.1719 -0.1199
  986loPI   C3A15441   3.271  15.733   6.911 -0.1960  0.0078  0.2937
  986loPI   C4A15442   3.081  15.846   7.280 -0.0669 -0.0980  0.1602
  986loPI   C5A15443   3.177  16.125   7.567 -0.0230 -0.4857 -0.1481
  986loPI   C6A15444   3.026  16.561   7.705  0.0733 -0.2093 -0.0631
  986loPI   C1B15445   3.957  15.268   6.483 -0.1665  0.0234  0.0297
  986loPI   C2B15446   3.862  15.126   6.898 -0.2268 -0.1377 -0.0296
  986loPI   C3B15447   3.893  15.048   7.337  0.1093  0.1476 -0.3417
  986loPI   C4B15448   3.969  14.914   7.707 -0.0024 -0.0534 -0.1451
  987loPI    C115449   4.432  17.613   5.122 -0.1716  0.1153  0.0248
  987loPI    C215450   4.768  17.774   4.977 -0.0535  0.0317  0.2026
  987loPI    C315451   4.589  17.476   4.781 -0.1235  0.1951  0.0146
  987loPI   PO415452   4.474  17.411   5.343  0.1363 -0.0091  0.0477
  987loPI   GL115453   4.452  17.285   5.658 -0.1484  0.0297 -0.0412
  987loPI   GL215454   4.287  17.362   5.917 -0.3479  0.0840  0.1437
  987loPI   C1A15455   4.716  17.306   6.149  0.1566  0.0499 -0.0067
  987loPI   C2A15456   4.720  17.368   6.565  0.1603 -0.0128  0.1327
  987loPI   C3A15457   4.613  17.344   6.941  0.1242 -0.2071  0.0527
  987loPI   C4A15458   4.594  17.253   7.379  0.1851 -0.1374 -0.1990
  987loPI   C5A15459   4.793  16.938   7.566  0.1431 -0.3171 -0.0424
  987loPI   C6A15460   5.132  16.857   7.784  0.0102  0.0132  0.0554
  987loPI   C1B15461   4.222  17.460   6.356 -0.1669 -0.0778  0.2174
  987loPI   C2B15462   4.073  17.421   6.742 -0.3369  0.0120 -0.1086
  987loPI   C3B15463   4.063  17.551   7.168  0.1546 -0.0711 -0.0905
  987loPI   C4B15464   4.047  17.640   7.583  0.0964 -0.1696  0.2337
  988loPI    C115465   7.497   1.193   4.866  0.0771 -0.0455 -0.1051
  988loPI    C215466   7.765   1.393   4.646  0.1472 -0.1987 -0.1600
  988loPI    C315467   7.504   1.147   4.469 -0.1390  0.0730 -0.1244
  988loPI   PO415468   7.466   1.401   5.052  0.0651  0.2591 -0.2888
  988loPI   GL115469   7.328   1.262   5.457  0.3417  0.1189 -0.1403
  988loPI   GL215470   7.454   1.326   5.691 -0.1615 -0.2364  0.1242
  988loPI   C1A15471   7.149   0.921   5.673 -0.1446  0.2481  0.2332
  988loPI   C2A15472   6.985   0.843   6.091 -0.0970 -0.2582  0.0662
  988loPI   C3A15473   6.930   0.739   6.528 -0.2884  0.1681 -0.0472
  988loPI   C4A15474   6.995   0.458   6.896 -0.2610 -0.0257  0.0150
  988loPI   C5A15475   7.003   0.387   7.289  0.0450  0.0523  0.2876
  988loPI   C6A15476   6.975   0.304   7.697  0.0041 -0.3053  0.0491
  988loPI   C1B15477   7.421   1.091   6.043  0.1231 -0.0659  0.3567
  988loPI   C2B15478   7.386   0.962   6.463 -0.0120  0.0693 -0.1003
  988loPI   C3B15479   7.382   0.802   6.882 -0.1951  0.1329 -0.1936
  988loPI   C4B15480   7.303   0.769   7.355  0.0369 -0.3306 -0.2039
  989loPI    C115481   2.918   3.643   4.947  0.1058 -0.0503  0.0473
  989loPI    C215482   2.935   3.998   5.132 -0.0035 -0.0954  0.1449
  989loPI    C315483   2.801   3.975   4.756 -0.0194 -0.0360  0.1467
  989loPI   PO415484   2.906   3.532   5.255 -0.1192 -0.0580 -0.0897
  989loPI   GL115485   2.903   3.485   5.714 -0.3853 -0.0396  0.0925
  989loPI   GL215486   3.017   3.870   5.600  0.0036 -0.1119  0.3565
  989loPI   C1A15487   2.760   3.373   6.082 -0.0079  0.2922 -0.0670
  989loPI   C2A15488   3.087   3.144   6.297  0.0983 -0.2847  0.0014
  989loPI   C3A15489   3.206   2.786   6.659 -0.0220 -0.3249  0.2123
  989loPI   C4A15490   3.301   2.449   6.890  0.0337 -0.0723 -0.2616
  989loPI   C5A15491   3.370   2.214   7.215 -0.2431  0.2509 -0.1341
  989loPI   C6A15492   3.326   2.357   7.662  0.1646 -0.2623 -0.0524
  989loPI   C1B15493   3.129   4.120   5.900 -0.0166 -0.1391  0.0281
  989loPI   C2B15494   3.160   4.176   6.330 -0.0811 -0.1603  0.0893
  989loPI   C3B15495   3.415   4.165   6.737 -0.0722  0.0840 -0.1834
  989loPI   C4B15496   3.474   4.169   7.069  0.2456 -0.0784 -0.1121
  990loPI    C115497   0.299   5.197   5.407 -0.1218  0.1076  0.0762
  990loPI    C215498   0.368   5.515   5.174  0.1178 -0.1076 -0.1522
  990loPI    C315499   0.197   5.188   5.021  0.1674 -0.2075  0.0027
  990loPI   PO415500   0.236   5.268   5.602  0.2511  0.1595  0.1435
  990loPI   GL115501   0.138   5.112   5.956  0.0865 -0.1649  0.1741
  990loPI   GL215502  -0.037   4.889   6.054  0.2528 -0.2230 -0.2244
  990loPI   C1A15503   0.344   5.152   6.387  0.1339 -0.0629  0.1123
  990loPI   C2A15504   0.368   5.116   6.830 -0.2764 -0.1160  0.2002
  990loPI   C3A15505   0.282   4.981   7.262 -0.3622 -0.2948  0.0267
  990loPI   C4A15506   0.099   4.716   7.648  0.1344  0.2134 -0.1190
  990loPI   C5A15507   0.015   4.350   7.807  0.0099 -0.0609  0.3067
  990loPI   C6A15508   0.007   3.922   7.866  0.2156  0.0463 -0.1322
  990loPI   C1B15509  -0.029   4.850   6.443 -0.1928  0.0126  0.2200
  990loPI   C2B15510   0.045   4.735   6.874  0.1012 -0.0176 -0.2444
  990loPI   C3B15511   0.094   4.441   7.157  0.1217 -0.0742  0.1156
  990loPI   C4B15512   0.196   4.116   7.366  0.1872  0.0291  0.1592
  991loPI    C115513   7.430  14.240   5.049  0.0265  0.0422 -0.1678
  991loPI    C215514   7.814  14.133   5.017  0.0938  0.1361  0.2568
  991loPI    C315515   7.622  14.288   4.702  0.3726 -0.0043  0.0128
  991loPI   PO415516   7.426  14.349   5.324 -0.1194  0.1190  0.3170
  991loPI   GL115517   7.083  14.594   5.656  0.0445 -0.0612 -0.0711
  991loPI   GL215518   6.788  14.520   5.783 -0.1401  0.0017 -0.3401
  991loPI   C1A15519   7.115  14.339   6.137  0.2654  0.2799 -0.1967
  991loPI   C2A15520   6.943  14.259   6.425  0.2871  0.0574 -0.1807
  991loPI   C3A15521   6.835  14.253   6.816 -0.0055  0.1061  0.3647
  991loPI   C4A15522   6.806  14.352   7.298  0.1003  0.0106  0.1934
  991loPI   C5A15523   6.577  14.520   7.674 -0.0049  0.1019  0.0334
  991loPI   C6A15524   6.414  14.822   7.965 -0.2507 -0.1785  0.1040
  991loPI   C1B15525   6.742  14.683   6.172 -0.2944 -0.1141  0.0761
  991loPI   C2B15526   6.702  14.748   6.578 -0.1930  0.0735  0.1111
  991loPI   C3B15527   6.654  14.820   7.043 -0.2008 -0.3611 -0.1996
  991loPI   C4B15528   6.754  14.900   7.394  0.0728 -0.0067 -0.2283
  992loPI    C115529   8.743   4.789   5.117 -0.0780 -0.0394 -0.0184
  992loPI    C215530   8.568   5.119   4.973 -0.0665 -0.0970 -0.1668
  992loPI    C315531   8.952   5.045   4.891 -0.0041 -0.0312  0.0588
  992loPI   PO415532   8.634   4.855   5.406 -0.3931  0.3588 -0.1859
  992loPI   GL115533   8.422   5.220   5.802  0.0915 -0.6308 -0.0696
  992loPI   GL215534   8.269   5.535   5.909 -0.0636 -0.0824  0.2555
  992loPI   C1A15535   8.257   5.095   6.244 -0.0141 -0.0019  0.2218
  992loPI   C2A15536   8.188   5.068   6.661 -0.3011  0.1104 -0.0677
  992loPI   C3A15537   8.231   5.038   7.067  0.0683 -0.2509  0.1651
  992loPI   C4A15538   8.194   5.076   7.487  0.3604 -0.0395  0.0588
  992loPI   C5A15539   8.151   5.335   7.841 -0.0349 -0.4810  0.0421
  992loPI   C6A15540   8.534   5.533   8.005 -0.1948 -0.1852 -0.0077
  992loPI   C1B15541   8.613   5.473   6.295 -0.0216 -0.1009 -0.0676
  992loPI   C2B15542   8.730   5.386   6.673  0.0332 -0.3496 -0.2359
  992loPI   C3B15543   8.595   5.419   7.072  0.0724 -0.2243 -0.1032
  992loPI   C4B15544   8.522   5.437   7.564  0.1829 -0.3239 -0.1164
  993loPI    C115545  12.325  15.781   5.521  0.1367  0.0247  0.0137
  993loPI    C215546  12.312  15.401   5.645  0.0327 -0.0278 -0.1547
  993loPI    C315547  12.201  15.494   5.272 -0.0166  0.1785 -0.0900
  993loPI   PO415548  12.496  15.969   5.613  0.1114  0.2444 -0.0258
  993loPI   GL115549  12.500  16.095   5.989  0.0325 -0.2100  0.0365
  993loPI   GL215550  12.668  16.087   6.162  0.2259  0.3463  0.0481
  993loPI   C1A15551  12.327  15.730   6.298 -0.1143 -0.1568 -0.0101
  993loPI   C2A15552  12.117  15.668   6.701 -0.0140  0.0676 -0.0955
  993loPI   C3A15553  12.260  15.719   7.179  0.0755  0.2495  0.1332
  993loPI   C4A15554  12.142  15.745   7.608  0.0469 -0.3116 -0.0220
  993loPI   C5A15555  12.127  15.676   8.074 -0.3118 -0.1865  0.0040
  993loPI   C6A15556  12.403  15.351   8.233  0.4593  0.1567  0.0406
  993loPI   C1B15557  12.425  16.076   6.569 -0.0448 -0.1330  0.0192
  993loPI   C2B15558  12.570  16.088   6.949  0.0343  0.1283 -0.1579
  993loPI   C3B15559  12.479  16.110   7.467  0.0800  0.3237 -0.0653
  993loPI   C4B15560  12.529  16.225   7.926 -0.0495 -0.0721  0.0688
  994loPI    C115561  14.816   3.387   5.387  0.0258 -0.0944  0.0277
  994loPI    C215562  14.479   3.342   5.599  0.0423  0.0114  0.0767
  994loPI    C315563  14.640   3.028   5.411 -0.1793 -0.0036 -0.0915
  994loPI   PO415564  14.916   3.577   5.458 -0.2276 -0.0817  0.0180
  994loPI   GL115565  15.004   3.552   5.796  0.0372  0.0515 -0.1597
  994loPI   GL215566  15.185   3.308   5.970  0.1710  0.0255 -0.0286
  994loPI   C1A15567  14.998   3.832   6.186 -0.2040 -0.0833  0.1276
  994loPI   C2A15568  15.104   3.830   6.571  0.2149  0.0270 -0.0477
  994loPI   C3A15569  15.164   4.183   6.909 -0.0449  0.1296 -0.0862
  994loPI   C4A15570  15.219   4.125   7.321  0.2051 -0.0660  0.2921
  994loPI   C5A15571  15.202   4.193   7.724 -0.1156 -0.0692  0.1021
  994loPI   C6A15572  15.150   4.032   8.163 -0.1301  0.0856  0.1323
  994loPI   C1B15573  15.314   3.427   6.312 -0.1390 -0.0481 -0.2430
  994loPI   C2B15574  15.315   3.348   6.680  0.1287  0.0475 -0.5388
  994loPI   C3B15575  15.281   3.404   7.155 -0.3353 -0.0113  0.3623
  994loPI   C4B15576  15.277   3.656   7.590  0.0108  0.1276  0.0462
  995loPI    C115577   2.982   4.941   5.308 -0.0445  0.0176 -0.0686
  995loPI    C215578   2.996   4.667   5.017  0.0347 -0.1850  0.1228
  995loPI    C315579   2.726   4.962   5.001 -0.0309 -0.2550 -0.1010
  995loPI   PO415580   3.333   4.927   5.337 -0.2502 -0.0518 -0.0041
  995loPI   GL115581   3.794   4.923   5.592 -0.0692  0.0061 -0.1851
  995loPI   GL215582   3.759   4.747   5.808 -0.3325  0.1009  0.1857
  995loPI   C1A15583   3.979   5.221   5.871  0.0947 -0.2870  0.1869
  995loPI   C2A15584   3.942   5.467   6.127  0.0832 -0.0083 -0.0443
  995loPI   C3A15585   3.857   5.456   6.383  0.0722  0.0639 -0.0736
  995loPI   C4A15586   3.565   5.626   6.700  0.1826 -0.1145  0.2004
  995loPI   C5A15587   3.502   5.541   7.178  0.1518  0.1266  0.0233
  995loPI   C6A15588   3.438   5.713   7.570  0.0951  0.2144  0.2848
  995loPI   C1B15589   4.010   4.818   6.168 -0.1608 -0.1967  0.4485
  995loPI   C2B15590   4.174   4.809   6.530  0.0826 -0.3613  0.0267
  995loPI   C3B15591   4.096   4.896   6.860  0.4163  0.0736  0.0618
  995loPI   C4B15592   4.043   4.876   7.261 -0.1963  0.0996  0.0293
  996loPI    C115593   4.210  14.177   5.361  0.0470 -0.0098 -0.1311
  996loPI    C215594   4.326  14.385   5.040  0.1710  0.3560  0.1437
  996loPI    C315595   4.596  14.270   5.312  0.0780 -0.0221  0.0824
  996loPI   PO415596   3.958  14.263   5.516 -0.1053 -0.2114  0.1721
  996loPI   GL115597   3.778  14.530   5.851  0.4023  0.0340  0.1121
  996loPI   GL215598   3.456  14.613   5.824  0.1364 -0.1045 -0.2725
  996loPI   C1A15599   4.016  14.341   6.194 -0.0593  0.0929  0.1764
  996loPI   C2A15600   4.001  14.212   6.657 -0.0047 -0.1511 -0.2560
  996loPI   C3A15601   3.955  14.113   7.116 -0.1353  0.0803  0.0873
  996loPI   C4A15602   3.958  14.078   7.534 -0.2499 -0.0888 -0.0184
  996loPI   C5A15603   4.278  14.055   7.941  0.1383 -0.0831 -0.4651
  996loPI   C6A15604   4.307  13.625   8.112  0.0348 -0.1019  0.0327
  996loPI   C1B15605   3.235  14.908   6.179 -0.1400  0.1309 -0.0492
  996loPI   C2B15606   3.385  14.831   6.629 -0.2489  0.1105  0.1281
  996loPI   C3B15607   3.626  14.682   7.054  0.2261  0.0023 -0.3536
  996loPI   C4B15608   3.758  14.543   7.399 -0.1257 -0.2104 -0.1518
  997loPI    C115609   2.594  17.992   4.781 -0.0044  0.1968 -0.0496
  997loPI    C215610   2.819  18.216   4.538  0.3343 -0.1522 -0.0681
  997loPI    C315611   2.626  17.897   4.394  0.0615 -0.0243  0.0081
  997loPI   PO415612   2.448  18.147   4.973  0.1684 -0.2276  0.1373
  997loPI   GL115613   2.359  18.522   5.260  0.1119 -0.2193  0.1843
  997loPI   GL215614   2.502  18.733   5.402  0.1133  0.0827  0.0726
  997loPI   C1A15615   2.162  18.427   5.645 -0.1235 -0.0038 -0.3041
  997loPI   C2A15616   2.123  18.403   6.089  0.1564 -0.0945 -0.0644
  997loPI   C3A15617   2.145  18.486   6.515  0.0530  0.0664  0.0292
  997loPI   C4A15618   2.019  18.575   6.912 -0.0249 -0.0462  0.1540
  997loPI   C5A15619   2.058  18.464   7.443 -0.3146  0.2401  0.2190
  997loPI   C6A15620   2.268  18.361   7.756 -0.1235  0.1605  0.1627
  997loPI   C1B15621   2.513  18.722   5.847  0.0198  0.2644  0.0563
  997loPI   C2B15622   2.499  18.823   6.395 -0.1138  0.0736  0.0038
  997loPI   C3B15623   2.407  18.867   6.839 -0.0434  0.0473  0.2769
  997loPI   C4B15624   2.311  18.830   7.256  0.0414 -0.0058  0.1685
  998loPI    C115625  14.861  10.047   5.047  0.1111  0.2043  0.0131
  998loPI    C215626  15.074  10.241   4.770 -0.0303  0.0819 -0.1839
  998loPI    C315627  14.921   9.881   4.688 -0.1061  0.0615  0.0413
  998loPI   PO415628  14.955  10.190   5.243  0.1422  0.1633 -0.1530
  998loPI   GL115629  15.037   9.934   5.644 -0.2707 -0.0065  0.0399
  998loPI   GL215630  14.783  10.212   5.705  0.0004 -0.1867  0.1191
  998loPI   C1A15631  15.290   9.784   5.882  0.1654  0.0354  0.1768
  998loPI   C2A15632  15.479   9.635   6.192  0.1494  0.1337 -0.0066
  998loPI   C3A15633  15.320   9.419   6.649  0.3178 -0.2072  0.0896
  998loPI   C4A15634  15.230   9.529   7.079 -0.2781 -0.2373 -0.2282
  998loPI   C5A15635  14.955   9.606   7.518 -0.1285 -0.4526  0.1273
  998loPI   C6A15636  14.790   9.422   7.921 -0.1092 -0.2129 -0.1787
  998loPI   C1B15637  15.014  10.206   6.087  0.0023  0.3716  0.3048
  998loPI   C2B15638  14.887  10.281   6.519  0.3674 -0.0117  0.0932
  998loPI   C3B15639  14.940  10.271   6.925  0.2319  0.1012 -0.0482
  998loPI   C4B15640  14.915  10.327   7.342  0.0451 -0.0383 -0.1811
  999loPI    C115641  10.805  16.937   5.187 -0.0262 -0.0575  0.1201
  999loPI    C215642  11.000  16.989   4.842 -0.0658  0.0665  0.1161
  999loPI    C315643  11.104  16.691   5.087  0.0040  0.0167  0.0266
  999loPI   PO415644  10.740  17.083   5.305  0.0635  0.0173  0.3423
  999loPI   GL115645  10.651  17.070   5.639  0.1652 -0.0676 -0.1147
  999loPI   GL215646  10.256  17.089   5.726 -0.2339  0.0177  0.0241
  999loPI   C1A15647  10.713  17.189   6.060 -0.1289  0.2143 -0.1386
  999loPI   C2A15648  10.647  17.143   6.407  0.1136 -0.2376 -0.0559
  999loPI   C3A15649  10.535  17.217   6.783 -0.1887  0.1871  0.3105
  999loPI   C4A15650  10.504  17.227   7.192  0.0230  0.0514  0.1092
  999loPI   C5A15651  10.496  17.205   7.655 -0.0414  0.0728 -0.2110
  999loPI   C6A15652  10.481  17.300   8.144  0.1718 -0.1094  0.0274
  999loPI   C1B15653  10.192  17.199   6.210 -0.1770  0.3180 -0.2795
  999loPI   C2B15654  10.033  17.294   6.573 -0.0741  0.0686  0.1792
  999loPI   C3B15655  10.043  17.272   7.041  0.1621 -0.0834  0.0613
  999loPI   C4B15656  10.066  17.271   7.423  0.0873  0.0733  0.1398
 1000loPI    C115657   2.686  12.354   5.196  0.1026  0.0685 -0.0306
 1000loPI    C215658   2.593  12.656   4.952  0.0656 -0.0155 -0.1213
 1000loPI    C315659   2.975  12.546   4.997  0.0891  0.1068 -0.0134
 1000loPI   PO415660   2.584  12.450   5.489  0.1583  0.0457 -0.2308
 1000loPI   GL115661   2.581  12.801   5.787  0.0941 -0.0671 -0.1154
 1000loPI   GL215662   2.957  12.707   5.838 -0.0548 -0.2003  0.0831
 1000loPI   C1A15663   2.631  12.749   6.233 -0.2395 -0.1132 -0.1285
 1000loPI   C2A15664   2.427  12.745   6.665  0.3036 -0.2752  0.1522
 1000loPI   C3A15665   2.415  12.692   7.218  0.1550  0.3201  0.5375
 1000loPI   C4A15666   2.344  12.693   7.630  0.0135  0.0800  0.2358
 1000loPI   C5A15667   2.503  12.658   8.101  0.0741  0.1651  0.1473
 1000loPI   C6A15668   2.882  12.761   8.176 -0.0405  0.0224  0.1741
 1000loPI   C1B15669   3.190  12.867   6.223 -0.0189 -0.0012 -0.0689
 1000loPI   C2B15670   3.460  12.902   6.446  0.0803  0.0442 -0.2377
 1000loPI   C3B15671   3.361  12.937   6.841 -0.0004  0.1367  0.0346
 1000loPI   C4B15672   3.374  12.935   7.263  0.3313  0.1386  0.2034
 1001loPI    C115673   4.713   6.278   5.270 -0.0044  0.3152 -0.0904
 1001loPI    C215674   5.066   6.114   5.178 -0.0420  0.2543 -0.1267
 1001loPI    C315675   4.808   6.209   4.888 -0.1986 -0.0222 -0.0820
 1001loPI   PO415676   4.745   6.300   5.531 -0.1242 -0.1985  0.0545
 1001loPI   GL115677   4.642   6.246   5.805 -0.0312  0.0878 -0.1198
 1001loPI   GL215678   4.678   6.602   5.951  0.0031  0.0717  0.0390
 1001loPI   C1A15679   4.708   6.091   6.325  0.1087  0.2816  0.0087
 1001loPI   C2A15680   4.746   6.107   6.713  0.1955  0.2588  0.0767
 1001loPI   C3A15681   4.675   6.106   7.064 -0.1863  0.0237 -0.1219
 1001loPI   C4A15682   4.843   5.990   7.456  0.1092 -0.0285 -0.0623
 1001loPI   C5A15683   5.093   5.787   7.758 -0.0313 -0.3677 -0.4309
 1001loPI   C6A15684   5.361   5.728   8.054  0.0662  0.1452 -0.1152
 1001loPI   C1B15685   4.666   6.608   6.355  0.0355  0.0278 -0.1018
 1001loPI   C2B15686   4.661   6.632   6.770  0.0841  0.0190 -0.0730
 1001loPI   C3B15687   4.619   6.690   7.252 -0.1882 -0.0250 -0.1458
 1001loPI   C4B15688   4.608   6.525   7.580 -0.1079  0.1924 -0.0751
 1002loPI    C115689   0.988   4.864   5.208 -0.3696 -0.0099 -0.1240
 1002loPI    C215690   1.147   4.501   5.255  0.1154  0.1833 -0.2156
 1002loPI    C315691   0.969   4.598   4.911 -0.0732  0.0139 -0.1674
 1002loPI   PO415692   0.902   4.954   5.492  0.0931 -0.1411  0.3555
 1002loPI   GL115693   0.586   4.943   5.769 -0.0824 -0.2857  0.0039
 1002loPI   GL215694   0.698   5.348   5.733 -0.2770 -0.1923 -0.2588
 1002loPI   C1A15695   0.846   4.815   6.196  0.1619 -0.1326  0.0211
 1002loPI   C2A15696   0.845   4.904   6.693  0.1479  0.1398 -0.0666
 1002loPI   C3A15697   1.086   4.718   7.053  0.2125  0.1780 -0.0731
 1002loPI   C4A15698   0.999   4.766   7.465 -0.0655  0.2385  0.1514
 1002loPI   C5A15699   0.605   4.785   7.721 -0.0696 -0.1147  0.0750
 1002loPI   C6A15700   0.373   4.644   8.060 -0.2467 -0.0363 -0.1181
 1002loPI   C1B15701   0.699   5.387   6.076  0.0337 -0.1260 -0.2066
 1002loPI   C2B15702   0.759   5.434   6.522 -0.0467 -0.0264  0.0892
 1002loPI   C3B15703   0.895   5.343   6.878 -0.1770 -0.0905 -0.1591
 1002loPI   C4B15704   0.771   5.249   7.313 -0.5525 -0.1308 -0.0264
 1003loPI    C115705   5.111   4.138   5.174  0.0713 -0.0849  0.1520
 1003loPI    C215706   5.046   4.140   4.780  0.0475 -0.0976  0.1558
 1003loPI    C315707   5.226   4.452   4.954 -0.2809  0.0763  0.1914
 1003loPI   PO415708   5.014   3.806   5.222 -0.0492  0.2707 -0.1790
 1003loPI   GL115709   4.705   3.657   5.527 -0.1190 -0.2129  0.2480
 1003loPI   GL215710   4.405   3.427   5.625  0.0424  0.0150  0.0586
 1003loPI   C1A15711   4.806   3.732   5.903  0.1249 -0.2619 -0.0708
 1003loPI   C2A15712   4.907   3.712   6.291 -0.0447  0.0657 -0.2537
 1003loPI   C3A15713   4.856   3.727   6.717 -0.3016 -0.0362 -0.1165
 1003loPI   C4A15714   4.835   3.649   7.152  0.0205  0.2068  0.1955
 1003loPI   C5A15715   4.864   3.832   7.569 -0.2856 -0.2976  0.3799
 1003loPI   C6A15716   4.982   3.913   7.961  0.2500  0.0065 -0.1725
 1003loPI   C1B15717   4.401   3.325   6.038  0.0891  0.3203  0.0613
 1003loPI   C2B15718   4.508   3.346   6.413  0.0270  0.0098  0.0553
 1003loPI   C3B15719   4.459   3.385   6.865  0.1176 -0.2703  0.0874
 1003loPI   C4B15720   4.401   3.229   7.260  0.0448  0.1947 -0.0517
 1004loPI    C115721   5.286   0.600   4.814  0.1076 -0.0219 -0.0679
 1004loPI    C215722   5.098   0.321   4.597 -0.0652  0.2623 -0.2896
 1004loPI    C315723   5.465   0.442   4.493  0.1003 -0.0353 -0.0654
 1004loPI   PO415724   5.298   0.566   5.064 -0.3039  0.1676  0.0878
 1004loPI   GL115725   5.167   0.585   5.387  0.0546 -0.0752 -0.2974
 1004loPI   GL215726   4.903   0.455   5.412 -0.3745  0.1489  0.1880
 1004loPI   C1A15727   5.200   0.798   5.809 -0.0381  0.0940 -0.3036
 1004loPI   C2A15728   5.074   0.809   6.231  0.1587 -0.0473 -0.1333
 1004loPI   C3A15729   5.032   0.916   6.646  0.0959 -0.1379  0.2793
 1004loPI   C4A15730   5.154   0.930   7.037 -0.1128  0.2685 -0.4077
 1004loPI   C5A15731   5.008   0.939   7.295 -0.0753 -0.0623 -0.0494
 1004loPI   C6A15732   4.737   1.198   7.648  0.0152  0.0878  0.4025
 1004loPI   C1B15733   4.759   0.387   5.902  0.0363 -0.0691  0.1454
 1004loPI   C2B15734   4.764   0.489   6.419 -0.1955 -0.1075  0.0914
 1004loPI   C3B15735   4.652   0.496   6.881  0.0040 -0.1615  0.1955
 1004loPI   C4B15736   4.740   0.427   7.230 -0.0217  0.0669  0.0888
 1005loPI    C115737   9.892   6.705   5.168 -0.0461  0.0779  0.0393
 1005loPI    C215738   9.796   6.626   4.788 -0.1044  0.0771  0.0541
 1005loPI    C315739   9.949   6.338   5.020  0.2273  0.1573 -0.0585
 1005loPI   PO415740   9.673   6.778   5.277 -0.1017 -0.0395  0.0008
 1005loPI   GL115741   9.648   6.726   5.716  0.0765  0.0649 -0.3451
 1005loPI   GL215742   9.410   6.576   5.820 -0.1767  0.0772  0.0419
 1005loPI   C1A15743   9.721   7.037   6.081 -0.1540 -0.1858  0.2674
 1005loPI   C2A15744   9.704   7.010   6.519  0.0597  0.3224 -0.1698
 1005loPI   C3A15745   9.490   6.926   6.949 -0.1441  0.1497 -0.0073
 1005loPI   C4A15746   9.556   6.826   7.445  0.0109  0.2023 -0.3972
 1005loPI   C5A15747   9.349   6.772   7.802  0.0651 -0.3892  0.1630
 1005loPI   C6A15748   9.494   6.787   8.266  0.2665  0.1490 -0.0112
 1005loPI   C1B15749   9.335   6.675   6.241  0.3053  0.0293  0.4156
 1005loPI   C2B15750   9.293   6.630   6.579  0.1144  0.0915  0.1325
 1005loPI   C3B15751   9.128   6.608   6.932  0.2051 -0.1501  0.3142
 1005loPI   C4B15752   9.136   6.615   7.313 -0.1345  0.0110  0.4271
 1006loPI    C115753   7.857  14.894   5.195 -0.1291  0.1397  0.2506
 1006loPI    C215754   7.920  14.653   4.882 -0.1082  0.2775  0.1477
 1006loPI    C315755   7.547  14.754   4.986 -0.1151  0.2325  0.1672
 1006loPI   PO415756   7.962  14.844   5.367  0.1082  0.2746  0.0465
 1006loPI   GL115757   7.878  14.747   5.827  0.1180  0.2298 -0.3028
 1006loPI   GL215758   8.121  14.934   5.839 -0.0152 -0.2429 -0.1185
 1006loPI   C1A15759   7.826  14.848   6.276 -0.0770  0.1851  0.0912
 1006loPI   C2A15760   7.628  15.114   6.434  0.0234 -0.1225  0.2088
 1006loPI   C3A15761   7.492  15.217   6.821  0.1896 -0.0819 -0.0212
 1006loPI   C4A15762   7.448  15.222   7.282  0.0083 -0.2368  0.4052
 1006loPI   C5A15763   7.303  15.554   7.672  0.0817  0.0414 -0.1178
 1006loPI   C6A15764   7.054  15.890   7.725 -0.0046  0.3667 -0.0728
 1006loPI   C1B15765   8.309  14.799   6.189 -0.0403  0.2170 -0.0816
 1006loPI   C2B15766   8.220  14.679   6.613  0.2063 -0.0170  0.0742
 1006loPI   C3B15767   8.172  14.728   7.098  0.0053  0.1168  0.2337
 1006loPI   C4B15768   8.026  14.773   7.498 -0.0118 -0.0915  0.0476
 1007loPI    C115769   6.569   3.014   5.017  0.0030 -0.0573  0.0134
 1007loPI    C215770   6.216   3.192   4.953 -0.0459 -0.2038 -0.1320
 1007loPI    C315771   6.311   2.858   4.754  0.2392 -0.0804 -0.2090
 1007loPI   PO415772   6.679   3.117   5.117 -0.1560  0.0385 -0.1140
 1007loPI   GL115773   6.798   3.097   5.527 -0.1553 -0.0107  0.3720
 1007loPI   GL215774   6.456   2.920   5.569 -0.0941 -0.2451 -0.2658
 1007loPI   C1A15775   6.718   3.160   6.021 -0.1010  0.0637  0.2250
 1007loPI   C2A15776   6.793   3.101   6.490  0.3109  0.1512  0.3160
 1007loPI   C3A15777   6.834   3.018   6.954 -0.0926  0.1949 -0.3523
 1007loPI   C4A15778   7.029   2.919   7.397 -0.1927  0.0745  0.2406
 1007loPI   C5A15779   7.044   2.724   7.777 -0.0464 -0.2346 -0.2181
 1007loPI   C6A15780   6.845   2.389   7.948 -0.0279 -0.0010 -0.2276
 1007loPI   C1B15781   6.341   2.811   6.025  0.0719  0.0362 -0.0071
 1007loPI   C2B15782   6.431   2.719   6.528 -0.0839  0.0184  0.1444
 1007loPI   C3B15783   6.499   2.665   7.044  0.1796 -0.0903 -0.0617
 1007loPI   C4B15784   6.597   2.670   7.478 -0.1263  0.0140 -0.0623
 1008loPI    C115785   9.560   1.611   5.129  0.0563  0.0059  0.2813
 1008loPI    C215786   9.848   1.789   4.915 -0.0747  0.0299  0.1233
 1008loPI    C315787   9.847   1.391   4.958 -0.2133 -0.0046 -0.1730
 1008loPI   PO415788   9.658   1.818   5.387  0.0992  0.1117  0.1995
 1008loPI   GL115789   9.598   1.972   5.749 -0.0253  0.1405  0.1631
 1008loPI   GL215790   9.774   2.207   5.769  0.1679 -0.1221  0.1273
 1008loPI   C1A15791   9.536   1.889   6.223  0.2511  0.1113 -0.2677
 1008loPI   C2A15792   9.531   1.966   6.662  0.2380 -0.0294  0.0597
 1008loPI   C3A15793   9.498   1.944   7.026 -0.2791  0.2201  0.0441
 1008loPI   C4A15794   9.435   1.857   7.478 -0.3205 -0.1063  0.0335
 1008loPI   C5A15795   9.315   1.819   7.889 -0.1604  0.0012 -0.1394
 1008loPI   C6A15796   9.081   1.686   8.296  0.0547 -0.0646 -0.2517
 1008loPI   C1B15797   9.855   2.356   6.182 -0.0608 -0.1453 -0.0053
 1008loPI   C2B15798   9.910   2.360   6.573 -0.0231 -0.0753 -0.1725
 1008loPI   C3B15799   9.782   2.354   6.911 -0.1779 -0.1345 -0.0353
 1008loPI   C4B15800   9.818   2.282   7.377 -0.1799  0.3185 -0.2652
 1009loPI    C115801   5.693  12.784   5.128  0.1810 -0.0160  0.0649
 1009loPI    C215802   5.758  12.565   4.799 -0.1012  0.0156 -0.0151
 1009loPI    C315803   6.005  12.866   4.892 -0.0368  0.0256 -0.2144
 1009loPI   PO415804   5.696  12.654   5.302  0.0954  0.0726 -0.0722
 1009loPI   GL115805   5.429  12.461   5.625  0.1904  0.1134  0.1473
 1009loPI   GL215806   5.196  12.229   5.668  0.0943 -0.1142 -0.0030
 1009loPI   C1A15807   5.595  12.130   5.949  0.0048  0.2011 -0.1161
 1009loPI   C2A15808   5.580  12.093   6.438  0.0484  0.2527 -0.3592
 1009loPI   C3A15809   5.113  12.108   6.736  0.0481  0.1402  0.1222
 1009loPI   C4A15810   4.960  12.115   7.164 -0.0031 -0.1841  0.0751
 1009loPI   C5A15811   5.023  12.092   7.629  0.0950 -0.1783  0.2516
 1009loPI   C6A15812   4.982  12.310   8.091  0.0607 -0.0982  0.0065
 1009loPI   C1B15813   5.156  12.268   6.179 -0.0790  0.0635 -0.0851
 1009loPI   C2B15814   5.381  12.504   6.476  0.0929 -0.1907  0.2506
 1009loPI   C3B15815   5.494  12.513   6.864 -0.0082 -0.2366  0.0626
 1009loPI   C4B15816   5.633  12.486   7.246 -0.2265  0.1607  0.1481
 1010loPI    C115817   7.872   4.203   5.350  0.0307  0.2254 -0.1422
 1010loPI    C215818   7.523   4.059   5.483  0.1686  0.1033  0.0939
 1010loPI    C315819   7.572   4.136   5.094 -0.0324 -0.1341  0.0193
 1010loPI   PO415820   7.916   4.494   5.474 -0.0679  0.2293 -0.1188
 1010loPI   GL115821   8.212   4.526   5.815  0.0840 -0.3277 -0.1993
 1010loPI   GL215822   8.425   4.667   6.008  0.2116  0.0928 -0.1458
 1010loPI   C1A15823   7.860   4.608   6.102 -0.0762 -0.1027 -0.1624
 1010loPI   C2A15824   7.784   4.559   6.495 -0.2949  0.0666  0.0689
 1010loPI   C3A15825   7.855   4.692   6.856  0.0961 -0.2262 -0.2932
 1010loPI   C4A15826   7.892   4.686   7.230 -0.0329 -0.2292 -0.1211
 1010loPI   C5A15827   7.877   4.750   7.645  0.1400  0.1605 -0.0130
 1010loPI   C6A15828   7.826   4.526   8.039  0.0451 -0.3873 -0.1978
 1010loPI   C1B15829   8.278   4.595   6.464  0.0206  0.1708  0.0514
 1010loPI   C2B15830   8.354   4.561   6.850  0.0048 -0.1772 -0.1397
 1010loPI   C3B15831   8.343   4.591   7.338 -0.0616  0.1379  0.4455
 1010loPI   C4B15832   8.326   4.551   7.803  0.0938 -0.1485  0.0987
 1011loPI    C115833   4.035   2.572   4.961 -0.0458  0.1113 -0.0555
 1011loPI    C215834   4.376   2.612   4.754 -0.0284  0.0564 -0.0377
 1011loPI    C315835   4.026   2.707   4.585 -0.0193 -0.0408 -0.1117
 1011loPI   PO415836   3.970   2.702   5.138  0.0374 -0.2675  0.0894
 1011loPI   GL115837   3.830   2.759   5.602  0.2138  0.0911  0.0581
 1011loPI   GL215838   3.655   3.000   5.641 -0.0729 -0.2177  0.0083
 1011loPI   C1A15839   3.976   2.825   6.028  0.2498 -0.0916 -0.1752
 1011loPI   C2A15840   4.089   2.977   6.455 -0.1212 -0.0587  0.1636
 1011loPI   C3A15841   4.082   2.982   6.945  0.1364 -0.0239 -0.1708
 1011loPI   C4A15842   3.823   3.188   7.233 -0.0143 -0.1361 -0.3277
 1011loPI   C5A15843   3.875   3.542   7.579 -0.0926  0.1266  0.1729
 1011loPI   C6A15844   3.512   3.441   7.778  0.0148 -0.0483 -0.0360
 1011loPI   C1B15845   3.576   3.129   6.065  0.0346  0.5016  0.0588
 1011loPI   C2B15846   3.524   3.203   6.491  0.0891 -0.2463 -0.0736
 1011loPI   C3B15847   3.497   3.153   6.898 -0.2451  0.4275 -0.5147
 1011loPI   C4B15848   3.257   2.869   7.143 -0.1304  0.4568  0.1521
 1012loPI    C115849  13.489  16.893   5.503 -0.3326  0.0535  0.1378
 1012loPI    C215850  13.246  17.124   5.283 -0.2818  0.0545  0.0824
 1012loPI    C315851  13.607  17.258   5.389 -0.2937  0.0415  0.1398
 1012loPI   PO415852  13.370  16.774   5.730  0.2085  0.2019  0.1530
 1012loPI   GL115853  13.358  16.490   6.075  0.2506 -0.1812 -0.1274
 1012loPI   GL215854  13.280  16.242   6.269 -0.1906 -0.0521 -0.1790
 1012loPI   C1A15855  13.307  16.609   6.577  0.1849 -0.0832  0.0994
 1012loPI   C2A15856  13.233  16.848   6.907 -0.1301 -0.1480  0.0837
 1012loPI   C3A15857  13.115  17.045   7.330  0.1815  0.1786  0.0093
 1012loPI   C4A15858  12.935  17.149   7.711 -0.2350  0.0007 -0.2057
 1012loPI   C5A15859  12.914  16.942   8.148 -0.0505 -0.0574 -0.4468
 1012loPI   C6A15860  12.790  16.547   8.268 -0.0758  0.1868  0.0355
 1012loPI   C1B15861  13.258  16.109   6.747  0.1558 -0.0489 -0.1195
 1012loPI   C2B15862  13.192  15.981   7.081 -0.0730  0.3370  0.2058
 1012loPI   C3B15863  13.127  16.073   7.517 -0.0879  0.0190 -0.3218
 1012loPI   C4B15864  13.025  16.184   7.898  0.0712 -0.0623  0.0297
 1013loPI    C115865  10.847  12.954   5.094 -0.0141 -0.2643  0.1042
 1013loPI    C215866  11.207  12.913   4.926 -0.0288 -0.1268  0.0385
 1013loPI    C315867  10.929  12.631   4.873 -0.0628 -0.0448 -0.2424
 1013loPI   PO415868  10.970  12.997   5.379 -0.1047  0.1428  0.2254
 1013loPI   GL115869  10.915  13.090   5.768  0.3837 -0.1849  0.1054
 1013loPI   GL215870  10.560  13.154   5.714  0.0727 -0.1096  0.1690
 1013loPI   C1A15871  11.271  13.077   6.028  0.0359  0.0154  0.1746
 1013loPI   C2A15872  11.464  13.144   6.441  0.1542  0.0625  0.1307
 1013loPI   C3A15873  11.499  13.146   6.924 -0.0585  0.2550  0.1585
 1013loPI   C4A15874  11.568  13.103   7.311  0.0857 -0.2382  0.1103
 1013loPI   C5A15875  11.593  13.083   7.730 -0.0548  0.1891 -0.0346
 1013loPI   C6A15876  11.308  13.248   8.035  0.1405  0.1835  0.1909
 1013loPI   C1B15877  10.668  13.320   6.137  0.2027  0.2179 -0.3793
 1013loPI   C2B15878  10.724  13.551   6.540 -0.0263  0.1727 -0.0230
 1013loPI   C3B15879  10.688  13.560   6.934 -0.4739  0.2635 -0.0690
 1013loPI   C4B15880  10.779  13.432   7.330  0.0810 -0.0202  0.3832
 1014loPI    C115881  10.580   2.585   5.251 -0.1331  0.0536 -0.0813
 1014loPI    C215882  10.834   2.744   4.986  0.0824 -0.0344  0.0697
 1014loPI    C315883  10.734   2.358   4.960 -0.0028 -0.0102  0.0362
 1014loPI   PO415884  10.617   2.649   5.563 -0.0158 -0.3927  0.0106
 1014loPI   GL115885  10.638   2.824   5.961  0.2176 -0.0342  0.0725
 1014loPI   GL215886  10.428   3.093   5.930 -0.1819 -0.0019  0.2587
 1014loPI   C1A15887  10.741   2.597   6.351  0.0100  0.2316  0.0727
 1014loPI   C2A15888  10.731   2.493   6.821 -0.3422  0.0699  0.0926
 1014loPI   C3A15889  10.730   2.516   7.196 -0.1409 -0.1348 -0.0113
 1014loPI   C4A15890  10.737   2.476   7.569  0.0526  0.0090 -0.1473
 1014loPI   C5A15891  10.434   2.456   7.915 -0.0359 -0.1691  0.1053
 1014loPI   C6A15892  10.048   2.608   7.851 -0.1176 -0.1566  0.2483
 1014loPI   C1B15893  10.528   3.122   6.393  0.0210  0.0181  0.0981
 1014loPI   C2B15894  10.620   3.041   6.808 -0.0785  0.1465  0.1172
 1014loPI   C3B15895  10.616   3.027   7.212  0.1069 -0.1643 -0.0284
 1014loPI   C4B15896  10.520   2.931   7.675 -0.3413 -0.1771 -0.0830
 1015loPI    C115897   5.756  17.311   4.887 -0.1809  0.1312  0.1573
 1015loPI    C215898   5.730  17.132   4.530 -0.0426 -0.0750  0.2487
 1015loPI    C315899   5.836  17.517   4.554  0.0855 -0.0983  0.0749
 1015loPI   PO415900   5.585  17.153   5.034 -0.1990 -0.0726 -0.0217
 1015loPI   GL115901   5.450  17.114   5.427 -0.2296 -0.0056 -0.1566
 1015loPI   GL215902   5.502  17.414   5.449  0.2603 -0.1992  0.1434
 1015loPI   C1A15903   5.656  16.941   5.779  0.3046 -0.2881  0.2603
 1015loPI   C2A15904   5.733  17.106   6.244  0.1456  0.0762  0.0654
 1015loPI   C3A15905   5.656  17.119   6.677  0.1858 -0.2681 -0.0477
 1015loPI   C4A15906   5.614  17.133   7.113  0.1239 -0.0181 -0.2321
 1015loPI   C5A15907   5.624  16.806   7.442 -0.2572  0.0317 -0.2297
 1015loPI   C6A15908   5.767  16.502   7.669 -0.4538 -0.0592  0.0779
 1015loPI   C1B15909   5.552  17.398   5.867 -0.3167  0.2183 -0.0711
 1015loPI   C2B15910   5.567  17.596   6.322  0.1859  0.2928 -0.0145
 1015loPI   C3B15911   5.503  17.674   6.727 -0.4268 -0.0455  0.0583
 1015loPI   C4B15912   5.452  17.589   7.162 -0.0240  0.1156 -0.0931
 1016loPI    C115913   2.829   0.314   4.945 -0.1413  0.2843 -0.0011
 1016loPI    C215914   2.830   0.526   4.606 -0.0452  0.0267 -0.1646
 1016loPI    C315915   2.484   0.444   4.789 -0.0729  0.4480 -0.0179
 1016loPI   PO415916   2.974   0.421   5.079 -0.0714  0.2840 -0.3952
 1016loPI   GL115917   2.997   0.378   5.511 -0.0526 -0.1296 -0.2156
 1016loPI   GL215918   2.823   0.082   5.392  0.1761  0.1833 -0.0458
 1016loPI   C1A15919   3.032   0.406   5.904  0.1334  0.0553 -0.2030
 1016loPI   C2A15920   2.992   0.493   6.301  0.0012  0.2815 -0.0642
 1016loPI   C3A15921   2.866   0.532   6.754 -0.0700  0.0998 -0.2369
 1016loPI   C4A15922   2.863   0.564   7.238  0.1288 -0.0174 -0.0152
 1016loPI   C5A15923   2.750   0.347   7.541 -0.2817 -0.2231 -0.1387
 1016loPI   C6A15924   2.843   0.126   7.858  0.0006 -0.4009 -0.2504
 1016loPI   C1B15925   2.655   0.040   5.731  0.0072 -0.1559 -0.1926
 1016loPI   C2B15926   2.611   0.158   6.238  0.1880 -0.0869 -0.0408
 1016loPI   C3B15927   2.575   0.163   6.663 -0.0710 -0.1873  0.0962
 1016loPI   C4B15928   2.421   0.155   7.057 -0.1184  0.3140 -0.0321
 1017loPI    C115929   3.478   2.661   5.268  0.1038 -0.0703 -0.0188
 1017loPI    C215930   3.220   2.786   4.988  0.2340  0.2099 -0.0169
 1017loPI    C315931   3.535   2.562   4.884  0.1789  0.1555 -0.0677
 1017loPI   PO415932   3.219   2.686   5.478  0.2117  0.1703 -0.2197
 1017loPI   GL115933   3.237   2.564   5.910  0.3855  0.2693  0.0267
 1017loPI   GL215934   3.520   2.503   5.893 -0.2312 -0.0076  0.0891
 1017loPI   C1A15935   3.158   2.449   6.305 -0.2437 -0.3207  0.0722
 1017loPI   C2A15936   2.897   2.313   6.483  0.0221 -0.1057  0.2014
 1017loPI   C3A15937   2.807   2.466   6.913  0.2075  0.1105 -0.0861
 1017loPI   C4A15938   2.954   2.428   7.298 -0.2873 -0.2575  0.0969
 1017loPI   C5A15939   2.856   2.552   7.731  0.0377  0.3198  0.0115
 1017loPI   C6A15940   3.162   2.553   8.136 -0.2974 -0.1632 -0.3298
 1017loPI   C1B15941   3.600   2.648   6.316  0.1720  0.0733  0.0478
 1017loPI   C2B15942   3.673   2.718   6.682  0.3038 -0.1738  0.1860
 1017loPI   C3B15943   3.754   2.634   7.082  0.3982  0.2463  0.1858
 1017loPI   C4B15944   3.584   2.845   7.520  0.0914 -0.0213 -0.0589
 1018loPI    C115945   8.082  12.055   5.830  0.0619 -0.0111 -0.0393
 1018loPI    C215946   7.684  12.027   5.868  0.0773  0.0775  0.1995
 1018loPI    C315947   7.843  12.176   5.532 -0.0897  0.0181  0.0931
 1018loPI   PO415948   8.169  12.241   5.953  0.0977 -0.1239  0.2810
 1018loPI   GL115949   8.034  12.418   6.229  0.1126  0.1598 -0.1121
 1018loPI   GL215950   8.104  12.775   6.119 -0.0321  0.1064  0.0167
 1018loPI   C1A15951   7.873  12.463   6.662 -0.0585  0.0207 -0.3245
 1018loPI   C2A15952   7.699  12.366   7.052 -0.4284 -0.1247  0.0941
 1018loPI   C3A15953   7.589  12.331   7.410  0.0849 -0.3378 -0.0187
 1018loPI   C4A15954   7.798  12.108   7.682 -0.2751 -0.2083  0.4942
 1018loPI   C5A15955   8.087  11.866   7.804 -0.0791  0.1625  0.0570
 1018loPI   C6A15956   8.401  11.746   8.031 -0.0762 -0.1418 -0.0155
 1018loPI   C1B15957   8.106  12.901   6.495 -0.1295 -0.1742 -0.0127
 1018loPI   C2B15958   8.094  13.130   6.841 -0.1448 -0.1647  0.2024
 1018loPI   C3B15959   7.817  13.488   7.140  0.0167  0.1460 -0.5162
 1018loPI   C4B15960   7.583  13.851   7.005  0.0013 -0.0095 -0.1445
 1019loPI    C115961  11.311  16.979   5.459 -0.1208 -0.1217  0.0692
 1019loPI    C215962  11.690  17.102   5.429 -0.2056  0.1360  0.0280
 1019loPI    C315963  11.465  17.067   5.101 -0.1761 -0.1585  0.0362
 1019loPI   PO415964  11.142  17.080   5.552 -0.1640  0.1477  0.1410
 1019loPI   GL115965  11.237  17.207   5.940 -0.2632  0.3673 -0.0090
 1019loPI   GL215966  11.539  17.102   5.905 -0.0838 -0.2760 -0.1044
 1019loPI   C1A15967  11.134  17.145   6.413  0.3453 -0.0818 -0.0104
 1019loPI   C2A15968  11.026  17.168   6.863  0.2126 -0.3081 -0.0096
 1019loPI   C3A15969  11.004  17.124   7.331  0.3093 -0.1402 -0.1006
 1019loPI   C4A15970  10.986  17.092   7.682 -0.1279  0.1905 -0.2102
 1019loPI   C5A15971  10.862  16.935   7.996 -0.0107  0.2075  0.2553
 1019loPI   C6A15972  10.631  16.681   8.297  0.3003  0.0751  0.1936
 1019loPI   C1B15973  11.611  17.039   6.298  0.0490 -0.0433 -0.1208
 1019loPI   C2B15974  11.559  17.026   6.769  0.4278  0.1663 -0.1177
 1019loPI   C3B15975  11.520  17.065   7.165  0.0556 -0.0603  0.2392
 1019loPI   C4B15976  11.500  16.976   7.625 -0.0224  0.2743  0.1548
 1020loPI    C115977  11.947  12.870   5.404 -0.1823 -0.0777  0.0430
 1020loPI    C215978  11.999  13.266   5.399 -0.2068 -0.0750  0.0036
 1020loPI    C315979  12.313  13.023   5.350 -0.2141 -0.0591 -0.1256
 1020loPI   PO415980  11.778  12.799   5.627  0.1962  0.2120 -0.1712
 1020loPI   GL115981  11.680  12.706   5.979  0.0604 -0.0118  0.1220
 1020loPI   GL215982  11.830  12.521   6.151 -0.2029 -0.0983 -0.0875
 1020loPI   C1A15983  11.358  12.617   6.228  0.1390 -0.0159  0.0453
 1020loPI   C2A15984  11.214  12.694   6.629 -0.2160  0.1736  0.0150
 1020loPI   C3A15985  11.297  12.672   7.070 -0.1487  0.1177 -0.1075
 1020loPI   C4A15986  11.343  12.638   7.490  0.4600 -0.2863 -0.0938
 1020loPI   C5A15987  11.280  12.722   7.868  0.1501 -0.1530 -0.0017
 1020loPI   C6A15988  10.971  12.909   8.051  0.0266 -0.2570  0.1847
 1020loPI   C1B15989  11.723  12.645   6.519 -0.0561 -0.2028 -0.0289
 1020loPI   C2B15990  11.810  12.726   7.008 -0.0974  0.2682  0.1078
 1020loPI   C3B15991  11.851  12.693   7.411 -0.0452 -0.1820 -0.1236
 1020loPI   C4B15992  11.823  12.636   7.763 -0.0805 -0.4163 -0.1538
 1021loPI    C115993  10.649  11.922   5.405  0.2101  0.1040 -0.1483
 1021loPI    C215994  10.947  11.743   5.208  0.0481 -0.1768 -0.1443
 1021loPI    C315995  10.579  11.588   5.197 -0.0268 -0.0262  0.1328
 1021loPI   PO415996  10.755  12.039   5.659 -0.0808  0.0652 -0.0605
 1021loPI   GL115997  10.793  11.881   6.037  0.0110  0.3160 -0.0169
 1021loPI   GL215998  10.519  12.080   6.116 -0.0856 -0.0960 -0.1721
 1021loPI   C1A15999  10.753  11.831   6.510 -0.2989  0.1122  0.0292
 1021loPI   C2A16000  10.655  11.841   6.918 -0.3527  0.1234 -0.0748
 1021loPI   C3A16001  10.760  11.765   7.310 -0.0757 -0.2662 -0.1426
 1021loPI   C4A16002  10.757  11.795   7.694  0.1464 -0.0189  0.0170
 1021loPI   C5A16003  10.477  11.905   8.002  0.1318 -0.1232 -0.0444
 1021loPI   C6A16004  10.219  11.870   8.377  0.1578 -0.0247 -0.1311
 1021loPI   C1B16005  10.336  12.103   6.436  0.1082  0.3377 -0.4116
 1021loPI   C2B16006  10.458  12.205   6.724 -0.1981 -0.1129 -0.0704
 1021loPI   C3B16007  10.484  12.258   7.181 -0.0458  0.1559  0.2821
 1021loPI   C4B16008  10.515  12.212   7.536 -0.2039 -0.2005  0.1312
 1022loPI    C116009   0.768   3.698   5.093  0.3005 -0.0832  0.0849
 1022loPI    C216010   0.907   4.072   5.125  0.3871 -0.0951 -0.1340
 1022loPI    C316011   0.720   3.956   4.791 -0.2515 -0.0481  0.1919
 1022loPI   PO416012   0.950   3.556   5.187  0.3447 -0.0150  0.0696
 1022loPI   GL116013   1.177   3.681   5.587  0.0978  0.0766 -0.0637
 1022loPI   GL216014   0.991   3.926   5.573 -0.0123  0.1104  0.3703
 1022loPI   C1A16015   1.449   3.661   5.949 -0.0349  0.2162  0.0373
 1022loPI   C2A16016   1.677   3.714   6.347 -0.1200 -0.0001 -0.3762
 1022loPI   C3A16017   1.953   3.690   6.676 -0.1216  0.1222 -0.1151
 1022loPI   C4A16018   2.105   3.633   7.067  0.0919 -0.2242 -0.2244
 1022loPI   C5A16019   2.093   3.637   7.543  0.0479 -0.2215  0.0005
 1022loPI   C6A16020   2.122   3.234   7.905  0.2645  0.3187  0.2046
 1022loPI   C1B16021   0.946   3.848   6.026 -0.1362  0.0092 -0.0438
 1022loPI   C2B16022   1.085   3.761   6.353 -0.2649  0.1443 -0.1214
 1022loPI   C3B16023   1.276   3.427   6.562  0.1483 -0.2255 -0.0052
 1022loPI   C4B16024   1.256   3.403   7.039  0.0413  0.1235 -0.2614
 1023loPI    C116025  18.021   6.697   5.162  0.0180  0.3866  0.0031
 1023loPI    C216026  17.920   6.540   4.808  0.2752  0.0800  0.0612
 1023loPI    C316027  18.082   6.905   4.825 -0.0653  0.2432 -0.1018
 1023loPI   PO416028  18.105   6.466   5.267  0.0532  0.0828  0.0765
 1023loPI   GL116029  18.013   6.437   5.613 -0.1917 -0.2189  0.0235
 1023loPI   GL216030  17.836   6.365   5.777  0.0093 -0.0057 -0.0125
 1023loPI   C1A16031  18.397   6.271   5.942 -0.1675 -0.2765 -0.1446
 1023loPI   C2A16032  18.377   6.106   6.352 -0.0025  0.2070  0.1682
 1023loPI   C3A16033  18.426   6.158   6.770  0.0502  0.1306 -0.0145
 1023loPI   C4A16034  18.483   6.131   7.301  0.0220 -0.1812 -0.0322
 1023loPI   C5A16035  18.441   5.969   7.651  0.0998 -0.4568 -0.1397
 1023loPI   C6A16036  18.612   6.066   8.009  0.0875  0.0332  0.0728
 1023loPI   C1B16037  17.959   6.440   6.205 -0.2536  0.0308  0.3250
 1023loPI   C2B16038  18.012   6.394   6.559 -0.0860  0.3033  0.2016
 1023loPI   C3B16039  18.079   6.446   6.983  0.0127  0.3266  0.0894
 1023loPI   C4B16040  18.034   6.312   7.400 -0.0600 -0.1113 -0.2116
 1024loPI    C116041  16.279   9.054   5.180 -0.0407  0.0601 -0.0591
 1024loPI    C216042  16.169   9.165   4.811 -0.1714 -0.0948 -0.0678
 1024loPI    C316043  16.382   8.830   4.865  0.0231  0.0347 -0.0204
 1024loPI   PO416044  16.429   9.201   5.333 -0.0558  0.0886  0.1738
 1024loPI   GL116045  16.584   9.022   5.656 -0.0450 -0.3247  0.1665
 1024loPI   GL216046  16.931   8.926   5.647  0.0904 -0.0033 -0.0474
 1024loPI   C1A16047  16.390   9.115   5.983  0.1484  0.1716 -0.3338
 1024loPI   C2A16048  16.412   9.106   6.426  0.0390  0.1080 -0.0364
 1024loPI   C3A16049  16.379   9.089   6.790 -0.0919 -0.0363  0.2157
 1024loPI   C4A16050  16.331   9.147   7.222 -0.0222 -0.1022 -0.0347
 1024loPI   C5A16051  16.554   9.010   7.681 -0.0516 -0.3276  0.2565
 1024loPI   C6A16052  16.848   8.846   8.007  0.1745  0.2102 -0.0370
 1024loPI   C1B16053  16.857   8.930   6.056 -0.1957 -0.0152 -0.1167
 1024loPI   C2B16054  16.943   8.990   6.448 -0.1365  0.0337  0.4839
 1024loPI   C3B16055  16.874   8.910   6.843  0.0790  0.0976  0.2181
 1024loPI   C4B16056  16.811   8.914   7.247  0.0561  0.0112  0.0498
 1025loPI    C116057  13.771  10.076   5.494 -0.1250 -0.0193 -0.2104
 1025loPI    C216058  13.833  10.086   5.099 -0.3926  0.0191 -0.2535
 1025loPI    C316059  13.911  10.409   5.322 -0.0023 -0.0826 -0.2344
 1025loPI   PO416060  13.668   9.824   5.491  0.0465 -0.0294  0.0411
 1025loPI   GL116061  13.413   9.644   5.853  0.3710  0.1825  0.0955
 1025loPI   GL216062  13.081   9.556   5.872  0.2160  0.1024 -0.0002
 1025loPI   C1A16063  13.453   9.601   6.289  0.1135  0.1376 -0.1264
 1025loPI   C2A16064  13.462   9.536   6.671  0.2371  0.3352 -0.0119
 1025loPI   C3A16065  13.514   9.441   7.150  0.1499 -0.3556 -0.0523
 1025loPI   C4A16066  13.461   9.456   7.658 -0.0000  0.0724  0.1371
 1025loPI   C5A16067  13.325   9.594   8.054 -0.0304 -0.1175  0.0341
 1025loPI   C6A16068  13.046   9.542   8.415  0.0902 -0.3441 -0.1537
 1025loPI   C1B16069  12.956   9.393   6.167  0.0846  0.3742 -0.0460
 1025loPI   C2B16070  13.029   9.242   6.514  0.0723 -0.0904  0.1028
 1025loPI   C3B16071  13.041   9.271   7.011 -0.1738 -0.2292 -0.0158
 1025loPI   C4B16072  13.004   9.380   7.436 -0.0555  0.1185  0.1149
 1026loPI    C116073  16.954  12.649   5.247  0.3060 -0.1213 -0.0108
 1026loPI    C216074  17.338  12.746   5.191  0.2869 -0.0827 -0.0748
 1026loPI    C316075  17.050  12.948   5.000  0.2197  0.0658  0.1789
 1026loPI   PO416076  16.923  12.691   5.511  0.2327  0.3506  0.1289
 1026loPI   GL116077  17.070  12.553   5.966 -0.0203  0.0399 -0.0058
 1026loPI   GL216078  16.719  12.434   6.023 -0.0584  0.1734 -0.2178
 1026loPI   C1A16079  16.902  12.682   6.416 -0.0148 -0.0588  0.1239
 1026loPI   C2A16080  16.818  12.489   6.791 -0.2118 -0.0169 -0.0057
 1026loPI   C3A16081  16.919  12.239   7.161 -0.1064 -0.0821 -0.0473
 1026loPI   C4A16082  17.155  12.221   7.548  0.2515  0.1789 -0.0516
 1026loPI   C5A16083  17.371  12.587   7.646 -0.0962  0.2385  0.1187
 1026loPI   C6A16084  17.342  12.970   7.376 -0.0237  0.2005 -0.1650
 1026loPI   C1B16085  16.803  12.162   6.409 -0.1166 -0.2067 -0.2033
 1026loPI   C2B16086  17.026  12.054   6.710  0.0134  0.1802 -0.1141
 1026loPI   C3B16087  17.095  11.774   6.994 -0.2201 -0.1272  0.1965
 1026loPI   C4B16088  17.256  11.644   7.374 -0.0058  0.0583 -0.1101
 1027loPI    C116089  15.085   8.871   5.206  0.0364  0.0045  0.0422
 1027loPI    C216090  15.441   8.771   5.054  0.0272 -0.2010  0.1516
 1027loPI    C316091  15.133   8.518   5.023 -0.0958 -0.0474  0.1062
 1027loPI   PO416092  15.268   8.999   5.431  0.1193  0.3144 -0.2558
 1027loPI   GL116093  15.261   9.180   5.829  0.1650  0.0174 -0.2316
 1027loPI   GL216094  15.494   8.977   5.947  0.2825 -0.0436 -0.1448
 1027loPI   C1A16095  15.098   9.148   6.183 -0.2236 -0.1130  0.1643
 1027loPI   C2A16096  14.859   9.239   6.614 -0.1505 -0.0736  0.0611
 1027loPI   C3A16097  14.923   9.186   7.000  0.0079 -0.0510  0.1252
 1027loPI   C4A16098  14.619   9.088   7.265 -0.3738  0.3323  0.0019
 1027loPI   C5A16099  14.762   8.988   7.686  0.3180 -0.0034  0.0296
 1027loPI   C6A16100  14.640   8.498   7.911 -0.2138  0.1544 -0.1757
 1027loPI   C1B16101  15.502   8.848   6.385  0.2385 -0.0803  0.1767
 1027loPI   C2B16102  15.437   8.966   6.838 -0.0614  0.1561 -0.1938
 1027loPI   C3B16103  15.205   8.853   7.154 -0.2926 -0.0144  0.0578
 1027loPI   C4B16104  15.192   9.183   7.498  0.0255 -0.2397 -0.0352
 1028loPI    C116105   8.031   6.373   5.011 -0.1927 -0.0515 -0.1362
 1028loPI    C216106   8.152   6.130   4.717 -0.2887 -0.0095 -0.2109
 1028loPI    C316107   8.180   6.527   4.673 -0.0037 -0.0072 -0.0342
 1028loPI   PO416108   8.172   6.416   5.243 -0.1209  0.0505 -0.0084
 1028loPI   GL116109   8.361   6.638   5.567  0.1180 -0.0720 -0.2551
 1028loPI   GL216110   8.607   6.461   5.435 -0.1147  0.0625 -0.1538
 1028loPI   C1A16111   8.066   6.561   5.909  0.0208 -0.0367 -0.2243
 1028loPI   C2A16112   8.036   6.543   6.298  0.0749 -0.1238  0.1473
 1028loPI   C3A16113   7.975   6.592   6.630 -0.0139 -0.1051 -0.0636
 1028loPI   C4A16114   7.779   6.611   7.097  0.1423 -0.0046  0.1415
 1028loPI   C5A16115   7.836   6.534   7.553  0.1654 -0.3232  0.0607
 1028loPI   C6A16116   7.812   6.275   7.830 -0.1711 -0.2481 -0.1719
 1028loPI   C1B16117   8.642   6.467   5.947  0.2525 -0.1061  0.4558
 1028loPI   C2B16118   8.491   6.461   6.383 -0.1364 -0.1445  0.0128
 1028loPI   C3B16119   8.382   6.394   6.790  0.1949  0.1242 -0.0147
 1028loPI   C4B16120   8.237   6.451   7.265  0.0806 -0.1166  0.3888
 1029loPI    C116121  14.406  16.055   5.471  0.3687 -0.0384 -0.0137
 1029loPI    C216122  14.231  16.411   5.417  0.0303 -0.2107 -0.0850
 1029loPI    C316123  14.500  16.278   5.153  0.2223  0.0264 -0.0126
 1029loPI   PO416124  14.230  15.852   5.679  0.1361  0.0861 -0.0913
 1029loPI   GL116125  14.191  15.965   6.128  0.4457 -0.1357 -0.1396
 1029loPI   GL216126  14.347  15.656   6.260 -0.3075  0.1553 -0.0925
 1029loPI   C1A16127  14.288  16.044   6.505  0.1654  0.1237 -0.1832
 1029loPI   C2A16128  14.243  16.099   6.895 -0.0194  0.0427 -0.0649
 1029loPI   C3A16129  14.204  16.055   7.368 -0.0019 -0.0205  0.0986
 1029loPI   C4A16130  14.209  15.642   7.615  0.1245  0.1294 -0.0869
 1029loPI   C5A16131  14.059  15.202   7.909  0.0855  0.0961  0.3097
 1029loPI   C6A16132  13.908  15.091   8.309 -0.0910 -0.1760 -0.1989
 1029loPI   C1B16133  14.348  15.581   6.732  0.4546  0.0556  0.0265
 1029loPI   C2B16134  14.353  15.535   7.153  0.0655  0.0081 -0.0705
 1029loPI   C3B16135  14.619  15.375   7.427  0.0803  0.1426 -0.0644
 1029loPI   C4B16136  14.689  15.366   7.810 -0.1377 -0.1836 -0.3654
 1030loPI    C116137  13.828   1.757   5.463  0.0803  0.0938 -0.1914
 1030loPI    C216138  13.658   2.056   5.258 -0.1916 -0.0739 -0.2161
 1030loPI    C316139  13.739   1.709   5.075 -0.1738 -0.1266 -0.1088
 1030loPI   PO416140  13.732   1.879   5.780  0.0418 -0.0607 -0.1851
 1030loPI   GL116141  13.534   2.132   6.040 -0.0910  0.1097 -0.0121
 1030loPI   GL216142  13.284   2.397   5.976  0.0260 -0.0287 -0.2108
 1030loPI   C1A16143  13.674   2.190   6.422 -0.1758 -0.1033 -0.2275
 1030loPI   C2A16144  13.847   2.157   6.802  0.0971 -0.0859 -0.1567
 1030loPI   C3A16145  13.923   2.337   7.227 -0.3711  0.1994 -0.4548
 1030loPI   C4A16146  13.859   2.687   7.508 -0.1510  0.3152 -0.2271
 1030loPI   C5A16147  13.543   2.944   7.642 -0.0435 -0.0477 -0.0014
 1030loPI   C6A16148  13.481   3.354   7.790  0.1346 -0.1242  0.0066
 1030loPI   C1B16149  13.199   2.373   6.400 -0.0426 -0.0572 -0.2592
 1030loPI   C2B16150  13.317   2.260   6.761  0.0677 -0.1403 -0.0234
 1030loPI   C3B16151  13.391   2.201   7.106 -0.2215 -0.1114 -0.1241
 1030loPI   C4B16152  13.350   2.358   7.513 -0.2367  0.1704  0.1909
 1031loPI    C116153  10.925  16.301   5.384 -0.0319 -0.2238 -0.0971
 1031loPI    C216154  11.258  16.149   5.222  0.0880  0.0506 -0.1134
 1031loPI    C316155  10.911  16.126   5.024  0.1100 -0.1711 -0.1290
 1031loPI   PO416156  11.001  16.583   5.531 -0.2565  0.0515 -0.1739
 1031loPI   GL116157  10.946  16.783   5.888 -0.1361  0.1267 -0.0910
 1031loPI   GL216158  11.246  16.681   5.982  0.1076 -0.1691 -0.0074
 1031loPI   C1A16159  10.806  16.645   6.293 -0.1583  0.0789  0.0004
 1031loPI   C2A16160  10.733  16.673   6.702  0.0211 -0.1856 -0.2137
 1031loPI   C3A16161  10.725  16.763   7.071  0.1338  0.1922 -0.0757
 1031loPI   C4A16162  10.712  16.682   7.513 -0.0287  0.0678 -0.0894
 1031loPI   C5A16163  10.768  16.420   7.873 -0.0827  0.0472  0.0350
 1031loPI   C6A16164  10.428  16.209   8.032 -0.1318 -0.0474  0.0605
 1031loPI   C1B16165  11.258  16.621   6.453 -0.4697 -0.3403 -0.1995
 1031loPI   C2B16166  11.248  16.627   6.897  0.0353  0.5007 -0.3381
 1031loPI   C3B16167  11.212  16.640   7.406 -0.0020 -0.2870 -0.1861
 1031loPI   C4B16168  11.242  16.652   7.884 -0.1569  0.1162  0.1708
 1032loPI    C116169   2.534  11.347   5.308 -0.0291 -0.0518  0.0635
 1032loPI    C216170   2.310  11.380   4.979 -0.0728  0.2581  0.1211
 1032loPI    C316171   2.653  11.175   4.967 -0.0470  0.3123 -0.1313
 1032loPI   PO416172   2.525  11.531   5.438 -0.0794 -0.0137  0.3011
 1032loPI   GL116173   2.414  11.619   5.821 -0.0311  0.3352 -0.0730
 1032loPI   GL216174   2.115  11.595   5.830  0.1838 -0.2094 -0.1843
 1032loPI   C1A16175   2.656  11.572   6.212  0.0837  0.1755  0.1301
 1032loPI   C2A16176   2.705  11.646   6.628 -0.0765 -0.2075 -0.0397
 1032loPI   C3A16177   2.793  11.696   7.018 -0.1871  0.1326  0.1330
 1032loPI   C4A16178   2.710  11.670   7.415  0.1829  0.2098  0.2403
 1032loPI   C5A16179   2.410  11.841   7.625 -0.0024  0.3595 -0.0821
 1032loPI   C6A16180   2.283  11.711   8.053 -0.0282  0.4557 -0.2404
 1032loPI   C1B16181   2.224  11.306   6.189 -0.1307  0.2030 -0.2322
 1032loPI   C2B16182   2.347  11.267   6.629  0.1783  0.1236  0.0147
 1032loPI   C3B16183   2.382  11.300   7.090 -0.0456 -0.1384 -0.0656
 1032loPI   C4B16184   2.434  11.282   7.535 -0.1467  0.0300 -0.2844
 1033loPI    C116185   6.022   6.366   4.857 -0.1226  0.1206  0.0448
 1033loPI    C216186   6.133   6.092   4.587 -0.1305  0.0251  0.1376
 1033loPI    C316187   5.782   6.280   4.549 -0.0800  0.0969  0.0180
 1033loPI   PO416188   6.173   6.298   5.087  0.1727 -0.3073 -0.0801
 1033loPI   GL116189   5.996   6.331   5.572  0.0729 -0.1353  0.0746
 1033loPI   GL216190   5.995   6.668   5.666  0.3297 -0.1272 -0.1362
 1033loPI   C1A16191   6.054   6.258   6.089  0.2234  0.1293  0.1221
 1033loPI   C2A16192   6.003   6.204   6.566 -0.1188 -0.0934  0.0168
 1033loPI   C3A16193   6.059   6.108   6.985 -0.0655 -0.0775 -0.3325
 1033loPI   C4A16194   6.095   6.055   7.469  0.0679 -0.2865 -0.1326
 1033loPI   C5A16195   6.066   6.161   7.832 -0.1119  0.2408 -0.0455
 1033loPI   C6A16196   6.163   6.421   8.116  0.1391 -0.2272 -0.1772
 1033loPI   C1B16197   6.123   6.739   6.151  0.3222  0.1484 -0.0091
 1033loPI   C2B16198   5.936   6.700   6.579 -0.0489 -0.2310 -0.1389
 1033loPI   C3B16199   5.929   6.587   7.041  0.0993  0.0197 -0.1109
 1033loPI   C4B16200   6.013   6.575   7.477 -0.1400 -0.1099  0.0363
 1034loPI    C116201   6.885   4.082   5.206  0.2018 -0.0524  0.0637
 1034loPI    C216202   7.069   4.261   4.900  0.1049 -0.1201 -0.0355
 1034loPI    C316203   6.851   3.932   4.837  0.0421 -0.1052  0.0987
 1034loPI   PO416204   7.020   4.060   5.374 -0.2029  0.0375  0.1311
 1034loPI   GL116205   7.055   4.121   5.785 -0.1104 -0.0134 -0.1633
 1034loPI   GL216206   6.801   4.395   5.645 -0.1043 -0.0644  0.0188
 1034loPI   C1A16207   7.048   3.950   6.204  0.0867  0.1179 -0.1852
 1034loPI   C2A16208   7.057   3.918   6.604 -0.1132  0.0961  0.2049
 1034loPI   C3A16209   7.086   3.905   6.987  0.2080  0.1347  0.1782
 1034loPI   C4A16210   7.224   3.937   7.362  0.0660  0.1061 -0.1633
 1034loPI   C5A16211   7.395   3.948   7.825 -0.0318 -0.0190  0.2281
 1034loPI   C6A16212   7.920   3.972   7.919  0.2838  0.3468  0.3765
 1034loPI   C1B16213   6.582   4.184   6.033  0.1116 -0.1857  0.0736
 1034loPI   C2B16214   6.563   4.017   6.411 -0.3571 -0.2283  0.0992
 1034loPI   C3B16215   6.537   4.042   6.893  0.0395  0.0335  0.3017
 1034loPI   C4B16216   6.717   4.100   7.295  0.2519  0.1276 -0.0161
 1035loPI    C116217   1.783   6.467   4.934  0.1230 -0.3461  0.0675
 1035loPI    C216218   1.957   6.341   4.597 -0.0521 -0.0341 -0.1448
 1035loPI    C316219   1.571   6.260   4.666 -0.0816  0.1121 -0.1353
 1035loPI   PO416220   1.849   6.344   5.124  0.2053  0.0314 -0.2004
 1035loPI   GL116221   1.640   6.345   5.418  0.1149 -0.0344 -0.0617
 1035loPI   GL216222   1.554   6.667   5.434 -0.0393 -0.1286  0.0563
 1035loPI   C1A16223   1.656   6.491   5.873  0.3677 -0.0817 -0.1119
 1035loPI   C2A16224   1.506   6.459   6.240  0.0445  0.1666  0.0465
 1035loPI   C3A16225   1.507   6.521   6.665  0.1945 -0.2763  0.0810
 1035loPI   C4A16226   1.593   6.513   7.121  0.0114  0.3323 -0.0478
 1035loPI   C5A16227   1.449   6.588   7.517  0.1810 -0.3186  0.1911
 1035loPI   C6A16228   1.281   6.783   7.796 -0.2368 -0.0570  0.2305
 1035loPI   C1B16229   1.195   6.634   5.683 -0.0600 -0.0378 -0.2086
 1035loPI   C2B16230   1.091   6.644   6.161  0.0542 -0.0506  0.2210
 1035loPI   C3B16231   0.979   6.689   6.630  0.2200  0.0713  0.0952
 1035loPI   C4B16232   1.131   6.651   7.008  0.1268 -0.2592 -0.1221
 1036loPI    C116233  13.810   7.508   5.238  0.1102  0.1760 -0.2273
 1036loPI    C216234  13.493   7.750   5.209 -0.0346 -0.0032 -0.1583
 1036loPI    C316235  13.604   7.528   4.895 -0.0467 -0.0259 -0.1464
 1036loPI   PO416236  13.785   7.452   5.578  0.0075  0.4093 -0.0208
 1036loPI   GL116237  13.631   7.699   5.871  0.1423 -0.0442  0.2331
 1036loPI   GL216238  13.942   7.763   5.966 -0.1804 -0.0924 -0.0796
 1036loPI   C1A16239  13.490   7.541   6.311 -0.1817 -0.0888  0.0836
 1036loPI   C2A16240  13.467   7.576   6.727  0.1683  0.0981  0.0618
 1036loPI   C3A16241  13.565   7.567   7.179 -0.0259  0.0377  0.1269
 1036loPI   C4A16242  13.526   7.522   7.636 -0.2496 -0.1283  0.0704
 1036loPI   C5A16243  13.233   7.578   7.887 -0.0697 -0.3043  0.1395
 1036loPI   C6A16244  13.294   7.671   8.392  0.2157 -0.2230 -0.0623
 1036loPI   C1B16245  13.985   7.641   6.403  0.2893 -0.4285 -0.0202
 1036loPI   C2B16246  14.066   7.665   6.839 -0.0689 -0.1222 -0.3129
 1036loPI   C3B16247  14.152   7.704   7.293  0.1294  0.1427  0.2718
 1036loPI   C4B16248  13.999   7.824   7.692  0.3430  0.1030  0.1804
 1037loPI    C116249  11.283  10.431   5.175 -0.0160  0.1132 -0.2580
 1037loPI    C216250  11.480  10.775   5.227  0.0752  0.0202  0.0351
 1037loPI    C316251  11.488  10.592   4.871 -0.1765  0.4417 -0.1965
 1037loPI   PO416252  11.405  10.308   5.465 -0.1664  0.0059 -0.0447
 1037loPI   GL116253  11.328  10.443   5.820  0.0464 -0.1284 -0.1698
 1037loPI   GL216254  11.351  10.647   6.137  0.1526 -0.0041 -0.2146
 1037loPI   C1A16255  11.305  10.138   6.171 -0.2619  0.0649  0.0302
 1037loPI   C2A16256  11.389  10.064   6.602  0.2254 -0.4579 -0.0254
 1037loPI   C3A16257  11.332   9.854   7.060  0.0189  0.1245  0.0012
 1037loPI   C4A16258  11.398   9.883   7.578  0.1603  0.0869  0.1543
 1037loPI   C5A16259  11.560   9.888   7.945  0.0122 -0.0044 -0.3295
 1037loPI   C6A16260  11.760  10.136   8.261 -0.0786 -0.2540  0.1338
 1037loPI   C1B16261  11.123  10.938   6.398 -0.0300  0.1890  0.1100
 1037loPI   C2B16262  10.795  11.008   6.622  0.1943 -0.1068  0.1210
 1037loPI   C3B16263  10.758  10.912   7.019  0.0722  0.0473 -0.1277
 1037loPI   C4B16264  11.035  10.797   7.363  0.1507  0.0685 -0.2178
 1038loPI    C116265   8.692   7.434   5.324  0.2371  0.0586 -0.0700
 1038loPI    C216266   8.830   7.486   4.952  0.0493 -0.2775 -0.1921
 1038loPI    C316267   8.440   7.423   5.013  0.0538 -0.0598  0.0803
 1038loPI   PO416268   8.871   7.398   5.448 -0.1995 -0.5650  0.0843
 1038loPI   GL116269   9.015   7.395   5.774  0.0583  0.2588 -0.0286
 1038loPI   GL216270   9.089   7.714   5.996 -0.0102 -0.1873  0.2415
 1038loPI   C1A16271   9.241   7.161   6.093  0.1213 -0.0364  0.2262
 1038loPI   C2A16272   9.161   7.170   6.568  0.0831 -0.4051 -0.2683
 1038loPI   C3A16273   9.028   7.092   6.962 -0.1753 -0.1329 -0.0650
 1038loPI   C4A16274   9.094   7.054   7.428 -0.4430  0.1005 -0.3986
 1038loPI   C5A16275   9.031   7.132   7.785 -0.0215 -0.1335  0.1434
 1038loPI   C6A16276   8.653   7.081   7.980  0.0359 -0.0811  0.0376
 1038loPI   C1B16277   9.122   7.696   6.485 -0.0892  0.3531  0.0161
 1038loPI   C2B16278   8.982   7.616   6.932  0.0830  0.3977 -0.0815
 1038loPI   C3B16279   8.971   7.576   7.396  0.0254  0.2157  0.0458
 1038loPI   C4B16280   9.199   7.713   7.861  0.2701  0.0662  0.0294
 1039loPI    C116281  12.032   2.347   5.174  0.1196 -0.0461  0.0967
 1039loPI    C216282  11.671   2.199   5.262  0.0456  0.0326 -0.0698
 1039loPI    C316283  11.723   2.417   4.931  0.2286  0.0915 -0.0039
 1039loPI   PO416284  12.214   2.274   5.341  0.0777 -0.2298 -0.2315
 1039loPI   GL116285  12.291   2.336   5.775  0.0539 -0.2216 -0.4232
 1039loPI   GL216286  11.943   2.346   5.726 -0.3182  0.2100 -0.0140
 1039loPI   C1A16287  12.263   2.314   6.216 -0.0827 -0.1820  0.3350
 1039loPI   C2A16288  12.307   2.242   6.663 -0.1994 -0.0454 -0.0136
 1039loPI   C3A16289  12.408   2.321   7.112  0.2208 -0.2710  0.0242
 1039loPI   C4A16290  12.390   2.211   7.569  0.0258  0.2425  0.2484
 1039loPI   C5A16291  12.503   2.324   7.967  0.2024  0.0747 -0.0358
 1039loPI   C6A16292  12.721   2.348   8.339  0.1521 -0.1203  0.1994
 1039loPI   C1B16293  11.815   2.344   6.074  0.3667 -0.1433 -0.0177
 1039loPI   C2B16294  11.783   2.363   6.501  0.0793 -0.2978 -0.2101
 1039loPI   C3B16295  11.734   2.301   7.033 -0.0335 -0.0980  0.0806
 1039loPI   C4B16296  11.881   2.357   7.498  0.1208 -0.0292  0.2058
 1040loPI    C116297   6.680   0.774   4.908 -0.0390  0.1283 -0.0917
 1040loPI    C216298   6.373   0.883   4.676  0.1241  0.1185 -0.3163
 1040loPI    C316299   6.704   0.732   4.510  0.2436  0.1106 -0.0748
 1040loPI   PO416300   6.604   0.705   5.077 -0.1280 -0.2859  0.0230
 1040loPI   GL116301   6.539   0.934   5.526 -0.0397 -0.0056  0.1523
 1040loPI   GL216302   6.400   1.205   5.595 -0.2433 -0.0768  0.3182
 1040loPI   C1A16303   6.489   0.860   5.945  0.1395 -0.4181  0.2019
 1040loPI   C2A16304   6.433   0.927   6.405  0.0276  0.2851 -0.0892
 1040loPI   C3A16305   6.506   0.598   6.731 -0.0721 -0.0620 -0.1122
 1040loPI   C4A16306   6.469   0.532   7.237  0.0790  0.1847 -0.2357
 1040loPI   C5A16307   6.427   0.481   7.633  0.0745  0.0720  0.1553
 1040loPI   C6A16308   6.630   0.588   7.992 -0.1110 -0.1541 -0.1075
 1040loPI   C1B16309   6.409   1.432   5.968  0.0095  0.3173  0.1282
 1040loPI   C2B16310   6.258   1.429   6.386 -0.0268 -0.0447  0.1058
 1040loPI   C3B16311   6.317   1.405   6.762  0.2790  0.0616  0.0232
 1040loPI   C4B16312   6.422   1.044   6.972  0.1983  0.0690 -0.1217
 1041loPI    C116313   5.880   4.721   4.902 -0.0319  0.1296  0.0613
 1041loPI    C216314   5.563   4.908   4.745 -0.1135 -0.0999 -0.0522
 1041loPI    C316315   5.914   4.913   4.553 -0.1145 -0.0608 -0.0532
 1041loPI   PO416316   5.888   4.540   5.007 -0.2452  0.2326 -0.0836
 1041loPI   GL116317   5.588   4.373   5.369  0.3108  0.1967  0.0554
 1041loPI   GL216318   5.588   4.738   5.424 -0.1863  0.2504 -0.1752
 1041loPI   C1A16319   5.591   4.443   5.843  0.1741 -0.2784 -0.3496
 1041loPI   C2A16320   5.597   4.480   6.347 -0.1177  0.1104 -0.0508
 1041loPI   C3A16321   5.697   4.473   6.774  0.2216  0.2864 -0.0004
 1041loPI   C4A16322   5.639   4.420   7.193 -0.1256 -0.2209  0.0969
 1041loPI   C5A16323   5.617   4.376   7.612 -0.1450  0.1493 -0.0364
 1041loPI   C6A16324   5.416   4.077   7.831  0.1052 -0.1284 -0.1614
 1041loPI   C1B16325   5.858   4.859   5.845  0.1613 -0.0254  0.0089
 1041loPI   C2B16326   6.017   4.800   6.202 -0.0312 -0.0603 -0.0101
 1041loPI   C3B16327   6.021   4.739   6.596 -0.2148 -0.1502  0.3238
 1041loPI   C4B16328   6.102   4.777   6.979 -0.1224  0.3193 -0.1246
 1042loPI    C116329   3.870  11.437   5.256  0.1775  0.4060 -0.2497
 1042loPI    C216330   4.252  11.370   5.157  0.1937  0.0254  0.0521
 1042loPI    C316331   3.958  11.231   4.924  0.2376 -0.1091  0.0759
 1042loPI   PO416332   3.864  11.678   5.358  0.3013 -0.1102  0.1586
 1042loPI   GL116333   3.659  11.701   5.808 -0.2080  0.0046 -0.2106
 1042loPI   GL216334   3.983  11.515   5.782  0.1201  0.0224  0.3184
 1042loPI   C1A16335   3.562  11.634   6.147  0.1935  0.0675  0.2338
 1042loPI   C2A16336   3.765  11.523   6.530  0.1416  0.0806  0.1844
 1042loPI   C3A16337   3.758  11.411   6.952  0.2293 -0.0718 -0.1278
 1042loPI   C4A16338   3.836  11.427   7.420  0.1646 -0.2084 -0.0571
 1042loPI   C5A16339   3.681  11.461   7.893  0.0130 -0.1969  0.3073
 1042loPI   C6A16340   3.878  11.803   8.117  0.0069  0.0126  0.1755
 1042loPI   C1B16341   4.203  11.406   6.120  0.1875  0.2830 -0.1228
 1042loPI   C2B16342   4.243  11.457   6.504  0.0146 -0.0100  0.0105
 1042loPI   C3B16343   4.305  11.371   6.918 -0.2680  0.0200 -0.2183
 1042loPI   C4B16344   4.363  11.372   7.377 -0.1986  0.1538 -0.1150
 1043loPI    C116345  11.486  14.277   5.239 -0.1133 -0.0519 -0.0504
 1043loPI    C216346  11.868  14.309   5.123 -0.0565  0.0024  0.1468
 1043loPI    C316347  11.630  14.034   4.956  0.0993 -0.1063  0.1016
 1043loPI   PO416348  11.455  14.424   5.443  0.1004 -0.1820 -0.4262
 1043loPI   GL116349  11.219  14.563   5.826  0.1881  0.0070  0.0226
 1043loPI   GL216350  11.172  14.888   5.762 -0.2090 -0.2327  0.1694
 1043loPI   C1A16351  11.275  14.469   6.314 -0.2126  0.0806 -0.0873
 1043loPI   C2A16352  11.280  14.429   6.707 -0.0465 -0.0451 -0.2858
 1043loPI   C3A16353  11.338  14.457   7.136 -0.3171 -0.0469 -0.0537
 1043loPI   C4A16354  11.227  14.386   7.523  0.5173 -0.0080 -0.0104
 1043loPI   C5A16355  11.196  14.642   7.863  0.0197 -0.4090  0.1541
 1043loPI   C6A16356  11.492  14.888   8.116  0.4007 -0.0980  0.0908
 1043loPI   C1B16357  11.094  14.938   6.221  0.1948  0.0780  0.1141
 1043loPI   C2B16358  11.147  14.959   6.596 -0.0747 -0.1729 -0.0112
 1043loPI   C3B16359  11.081  14.881   6.964 -0.3412 -0.0630  0.0744
 1043loPI   C4B16360  11.127  14.856   7.430 -0.0185  0.0666 -0.1279
 1044loPI    C116361  13.628  11.444   5.518 -0.1338 -0.1492 -0.2843
 1044loPI    C216362  13.391  11.142   5.631 -0.2258  0.0613  0.1020
 1044loPI    C316363  13.236  11.457   5.439 -0.1601 -0.0519 -0.1410
 1044loPI   PO416364  13.918  11.368   5.648 -0.1258  0.1220  0.2065
 1044loPI   GL116365  13.957  11.389   6.048  0.0929  0.1876 -0.0692
 1044loPI   GL216366  13.662  11.471   6.120  0.0407 -0.1117  0.0712
 1044loPI   C1A16367  14.024  11.127   6.389  0.1364  0.0962 -0.1262
 1044loPI   C2A16368  14.020  10.936   6.852 -0.1377  0.0513  0.0026
 1044loPI   C3A16369  13.986  10.740   7.271  0.0519  0.0121  0.2289
 1044loPI   C4A16370  13.674  10.913   7.611 -0.1918  0.2387 -0.0075
 1044loPI   C5A16371  13.710  11.032   8.041  0.1470  0.1206  0.2166
 1044loPI   C6A16372  13.502  11.243   8.372 -0.0781  0.0628 -0.0448
 1044loPI   C1B16373  13.678  11.522   6.636 -0.2866 -0.2157  0.1423
 1044loPI   C2B16374  13.323  11.482   6.875 -0.1723  0.1757 -0.0265
 1044loPI   C3B16375  13.073  11.377   7.160 -0.0299 -0.0396  0.0342
 1044loPI   C4B16376  12.838  11.548   7.435  0.2052 -0.2479 -0.1146
 1045loPI    C116377  17.494  15.361   5.407  0.0140  0.0588 -0.1543
 1045loPI    C216378  17.656  15.165   5.099  0.0644  0.0345 -0.1125
 1045loPI    C316379  17.348  15.412   5.038  0.1655  0.1397 -0.2039
 1045loPI   PO416380  17.717  15.346   5.595  0.1182 -0.0853 -0.4703
 1045loPI   GL116381  17.785  15.286   6.018  0.0372  0.1270  0.0150
 1045loPI   GL216382  17.552  15.209   6.106 -0.0110  0.2296 -0.1931
 1045loPI   C1A16383  17.776  15.418   6.472  0.1666 -0.3056  0.1745
 1045loPI   C2A16384  17.451  15.353   6.706 -0.3775  0.0141  0.3812
 1045loPI   C3A16385  17.326  15.228   7.052  0.0351  0.1082 -0.0646
 1045loPI   C4A16386  17.386  15.072   7.324  0.3872  0.2710 -0.1301
 1045loPI   C5A16387  17.184  14.814   7.624  0.0072 -0.3295 -0.0395
 1045loPI   C6A16388  16.749  14.739   7.826 -0.0622 -0.0135  0.0199
 1045loPI   C1B16389  17.605  14.919   6.429 -0.1227  0.1011 -0.0303
 1045loPI   C2B16390  17.540  14.757   6.810 -0.0935 -0.1309 -0.0710
 1045loPI   C3B16391  17.309  14.445   7.149 -0.0670 -0.3853  0.4667
 1045loPI   C4B16392  17.485  14.290   7.534  0.0355 -0.2161  0.0629
 1046loPI    C116393  12.216   5.362   5.696 -0.1084  0.0459  0.0244
 1046loPI    C216394  12.603   5.420   5.611 -0.1308  0.0966 -0.0435
 1046loPI    C316395  12.348   5.317   5.321 -0.2413  0.4432 -0.0739
 1046loPI   PO416396  12.210   5.552   5.882 -0.1046  0.0707  0.1791
 1046loPI   GL116397  12.238   5.601   6.210 -0.2277 -0.0659 -0.1221
 1046loPI   GL216398  12.219   5.521   6.494  0.0709  0.0862 -0.0430
 1046loPI   C1A16399  11.982   5.911   6.426  0.3106  0.1870  0.0453
 1046loPI   C2A16400  11.902   5.893   6.861  0.0680 -0.1518  0.2496
 1046loPI   C3A16401  11.859   5.883   7.379  0.0192 -0.2292 -0.0062
 1046loPI   C4A16402  12.073   5.773   7.816  0.0635 -0.0249 -0.0252
 1046loPI   C5A16403  12.046   5.384   8.089  0.0554  0.2013 -0.1422
 1046loPI   C6A16404  12.098   5.065   8.444 -0.1430  0.0676 -0.0767
 1046loPI   C1B16405  12.052   5.380   6.875 -0.1837  0.0326  0.1278
 1046loPI   C2B16406  11.949   5.442   7.261 -0.0573  0.0167  0.0204
 1046loPI   C3B16407  11.702   5.484   7.652 -0.1191  0.2509  0.0817
 1046loPI   C4B16408  11.423   5.581   7.959  0.2150 -0.1459 -0.0212
 1047loPI    C116409   5.870   8.367   5.062 -0.0304  0.2685  0.1024
 1047loPI    C216410   5.719   8.143   4.768 -0.1145  0.1622  0.2256
 1047loPI    C316411   5.849   8.513   4.690  0.1039  0.0423  0.0038
 1047loPI   PO416412   5.664   8.334   5.317 -0.0959 -0.1035  0.0126
 1047loPI   GL116413   5.640   8.109   5.647  0.0454  0.0322 -0.1394
 1047loPI   GL216414   5.372   8.392   5.726 -0.2542 -0.2585 -0.2470
 1047loPI   C1A16415   5.636   7.795   6.036 -0.0851  0.2337 -0.1599
 1047loPI   C2A16416   5.839   7.758   6.446  0.2372 -0.1861 -0.0733
 1047loPI   C3A16417   5.764   7.654   6.935 -0.1258 -0.2572 -0.0510
 1047loPI   C4A16418   5.788   7.574   7.369  0.1330 -0.0203 -0.2198
 1047loPI   C5A16419   5.797   7.776   7.758 -0.0971  0.1101  0.1649
 1047loPI   C6A16420   5.757   7.971   8.244  0.2731 -0.1504  0.2290
 1047loPI   C1B16421   5.671   8.285   6.126 -0.1830 -0.0091 -0.2004
 1047loPI   C2B16422   5.668   8.281   6.560  0.3000 -0.1373 -0.1019
 1047loPI   C3B16423   5.665   8.194   6.997  0.1281 -0.1148  0.0503
 1047loPI   C4B16424   5.659   8.136   7.441  0.3114 -0.0452 -0.0847
 1048loPI    C116425  16.810   7.234   5.301 -0.3153  0.2313  0.0543
 1048loPI    C216426  16.876   6.958   5.020 -0.0479  0.0058  0.3307
 1048loPI    C316427  16.896   7.347   4.927  0.1667 -0.0642  0.0666
 1048loPI   PO416428  16.628   7.096   5.434 -0.0531  0.1865 -0.0489
 1048loPI   GL116429  16.647   7.051   5.840  0.1253 -0.2197  0.1812
 1048loPI   GL216430  16.978   7.215   5.830 -0.0667 -0.0552  0.0026
 1048loPI   C1A16431  16.577   7.112   6.286  0.1406  0.3318  0.0895
 1048loPI   C2A16432  16.627   7.062   6.715 -0.0877  0.1179  0.0173
 1048loPI   C3A16433  16.722   6.937   7.142  0.0125 -0.0709 -0.1566
 1048loPI   C4A16434  16.633   6.845   7.580  0.1684  0.2327 -0.4009
 1048loPI   C5A16435  16.774   7.045   7.903  0.0535 -0.1805 -0.0184
 1048loPI   C6A16436  16.771   7.488   8.037 -0.0093  0.0026  0.0477
 1048loPI   C1B16437  16.977   7.348   6.229  0.4142 -0.3099  0.0294
 1048loPI   C2B16438  17.017   7.341   6.704  0.1195 -0.1328  0.0731
 1048loPI   C3B16439  17.087   7.263   7.115  0.0832  0.1025  0.1788
 1048loPI   C4B16440  17.331   7.370   7.471 -0.2839  0.2500 -0.1752
 1049loPI    C116441  10.671   8.105   4.922  0.1082 -0.1915  0.1991
 1049loPI    C216442  10.587   8.373   4.637  0.0687 -0.0559  0.3365
 1049loPI    C316443  10.838   8.071   4.560  0.0529 -0.0245  0.1568
 1049loPI   PO416444  10.455   8.204   5.135 -0.1761 -0.0371  0.0159
 1049loPI   GL116445  10.610   8.247   5.579 -0.1037 -0.2175  0.0191
 1049loPI   GL216446  10.804   8.327   5.821 -0.0204  0.2873 -0.1133
 1049loPI   C1A16447  10.436   7.982   5.916  0.2766  0.1642  0.2430
 1049loPI   C2A16448  10.293   7.896   6.370  0.1438 -0.0474 -0.2224
 1049loPI   C3A16449  10.255   7.841   6.810  0.1188  0.0903  0.2612
 1049loPI   C4A16450  10.252   7.871   7.261 -0.0670  0.0856  0.2724
 1049loPI   C5A16451  10.235   8.071   7.625 -0.0048 -0.1003  0.2754
 1049loPI   C6A16452  10.385   7.933   8.038 -0.1736  0.2249 -0.0613
 1049loPI   C1B16453  10.770   8.110   6.228 -0.0008  0.4416 -0.2050
 1049loPI   C2B16454  10.728   7.874   6.678 -0.0534 -0.0184 -0.2289
 1049loPI   C3B16455  10.675   7.684   7.037  0.1983 -0.0134 -0.3310
 1049loPI   C4B16456  10.669   7.734   7.495 -0.2481  0.2656 -0.0454
 1050loPI    C116457  11.224   6.681   5.335 -0.0050  0.0379  0.0589
 1050loPI    C216458  11.502   6.418   5.219  0.1566  0.3179 -0.2041
 1050loPI    C316459  11.243   6.567   4.952 -0.3523 -0.0520  0.0643
 1050loPI   PO416460  11.353   6.784   5.577  0.0661  0.0523 -0.1858
 1050loPI   GL116461  11.408   7.080   5.903  0.0234 -0.0733 -0.0526
 1050loPI   GL216462  11.630   6.867   6.031 -0.1972  0.3186  0.0924
 1050loPI   C1A16463  11.360   7.161   6.294  0.1130 -0.1058  0.1966
 1050loPI   C2A16464  11.480   7.174   6.663  0.1073 -0.0181 -0.2493
 1050loPI   C3A16465  11.454   7.109   7.095  0.1115 -0.4760 -0.0681
 1050loPI   C4A16466  11.531   7.165   7.502 -0.0512  0.0196 -0.2508
 1050loPI   C5A16467  11.524   7.149   7.922  0.0427  0.3231 -0.2317
 1050loPI   C6A16468  11.536   7.297   8.392 -0.0686 -0.1536 -0.0607
 1050loPI   C1B16469  11.653   6.766   6.375 -0.2798  0.2602 -0.0140
 1050loPI   C2B16470  11.755   6.797   6.794 -0.0407  0.0191 -0.1181
 1050loPI   C3B16471  11.858   6.826   7.221 -0.1933  0.2606 -0.3745
 1050loPI   C4B16472  11.893   6.675   7.633  0.1942 -0.2667  0.0292
 1051loPI    C116473   8.667  11.058   5.323 -0.0381  0.2342 -0.1063
 1051loPI    C216474   8.795  10.761   5.087 -0.1857  0.1664 -0.1016
 1051loPI    C316475   8.876  11.140   4.992 -0.0448  0.1277 -0.1375
 1051loPI   PO416476   8.642  10.823   5.569 -0.0696  0.1547 -0.0064
 1051loPI   GL116477   8.540  10.623   5.935  0.0106 -0.0224 -0.2373
 1051loPI   GL216478   8.426  10.764   6.185  0.0519 -0.0095 -0.2328
 1051loPI   C1A16479   8.816  10.486   6.316  0.0820  0.2425 -0.2297
 1051loPI   C2A16480   8.916  10.521   6.726  0.0106  0.1097 -0.2505
 1051loPI   C3A16481   8.934  10.579   7.178 -0.0899 -0.3841 -0.1288
 1051loPI   C4A16482   9.100  10.437   7.565  0.2112  0.1763 -0.2687
 1051loPI   C5A16483   9.158  10.356   7.937  0.1519 -0.3885 -0.1234
 1051loPI   C6A16484   9.240  10.411   8.330 -0.0359 -0.1825  0.0210
 1051loPI   C1B16485   8.417  10.613   6.625 -0.0977  0.2476 -0.0332
 1051loPI   C2B16486   8.306  10.643   7.123 -0.0305 -0.0668 -0.0112
 1051loPI   C3B16487   8.106  10.585   7.400 -0.0244  0.2175 -0.0148
 1051loPI   C4B16488   8.190  10.810   7.767  0.0883 -0.1773  0.1466
 1052loPI    C116489  15.706   9.777   5.053  0.0034 -0.0378  0.1877
 1052loPI    C216490  15.335   9.870   5.170  0.0495  0.2804  0.0897
 1052loPI    C316491  15.407   9.781   4.787  0.0788  0.2418  0.1041
 1052loPI   PO416492  15.841   9.988   5.290  0.2339  0.0626  0.0055
 1052loPI   GL116493  15.979   9.908   5.647  0.4203 -0.1996 -0.1481
 1052loPI   GL216494  16.108  10.283   5.647  0.2270 -0.0732 -0.1072
 1052loPI   C1A16495  15.880   9.919   6.125 -0.0951  0.1066  0.2515
 1052loPI   C2A16496  15.849   9.760   6.590  0.4111  0.1628  0.0267
 1052loPI   C3A16497  15.763   9.771   7.007 -0.0974  0.2497  0.1056
 1052loPI   C4A16498  15.680   9.659   7.503 -0.3244  0.0234  0.0115
 1052loPI   C5A16499  15.405   9.597   7.886 -0.2163 -0.1145  0.0994
 1052loPI   C6A16500  15.357   9.418   8.276 -0.1509 -0.1618 -0.2420
 1052loPI   C1B16501  16.001  10.413   6.026 -0.0480 -0.7376 -0.0694
 1052loPI   C2B16502  15.979  10.274   6.495 -0.0597 -0.1874 -0.2008
 1052loPI   C3B16503  15.782  10.251   6.935  0.1485  0.1650  0.2741
 1052loPI   C4B16504  15.744  10.170   7.389 -0.0934  0.0975  0.1034
 1053loPI    C116505  17.759  12.040   5.284 -0.0878  0.1184  0.0951
 1053loPI    C216506  17.429  12.204   5.128 -0.0681 -0.2152 -0.3160
 1053loPI    C316507  17.789  12.296   4.978 -0.0095 -0.1943 -0.1642
 1053loPI   PO416508  17.755  12.094   5.501 -0.1301 -0.1517  0.0653
 1053loPI   GL116509  18.042  12.239   5.772 -0.2518  0.0076  0.1015
 1053loPI   GL216510  18.277  12.170   5.959 -0.2626  0.1235  0.2689
 1053loPI   C1A16511  17.884  12.194   6.261  0.2630 -0.2039  0.1655
 1053loPI   C2A16512  17.952  11.949   6.527 -0.0202 -0.1966 -0.1178
 1053loPI   C3A16513  17.979  11.831   6.975 -0.2571  0.0756 -0.1011
 1053loPI   C4A16514  18.178  12.120   7.366 -0.0034  0.3818 -0.1352
 1053loPI   C5A16515  17.854  12.254   7.670 -0.0410  0.5306  0.0011
 1053loPI   C6A16516  17.844  12.487   7.953  0.1577 -0.3165  0.1731
 1053loPI   C1B16517  18.461  11.999   6.323  0.1573  0.0930  0.0556
 1053loPI   C2B16518  18.356  11.602   6.527 -0.0483  0.0447 -0.4500
 1053loPI   C3B16519  18.385  11.533   6.965 -0.0920  0.0397  0.0240
 1053loPI   C4B16520  18.247  11.567   7.411  0.1214  0.1394  0.0644
 1054loPI    C116521   9.935   3.708   5.470 -0.1308  0.1493 -0.0754
 1054loPI    C216522  10.053   3.828   5.107 -0.1051  0.0975 -0.0842
 1054loPI    C316523   9.768   4.030   5.302 -0.3255 -0.0423 -0.2550
 1054loPI   PO416524   9.891   3.448   5.514 -0.1810  0.0443 -0.1939
 1054loPI   GL116525   9.458   3.325   5.751 -0.0902 -0.2555  0.1196
 1054loPI   GL216526   9.656   3.623   5.906  0.0464 -0.0206  0.1218
 1054loPI   C1A16527   9.558   3.292   6.202  0.1112  0.3107 -0.0223
 1054loPI   C2A16528   9.662   3.354   6.721 -0.0712 -0.2671 -0.1752
 1054loPI   C3A16529   9.581   3.270   7.202 -0.1131 -0.0107 -0.0568
 1054loPI   C4A16530   9.335   3.178   7.574  0.0408 -0.0974 -0.0853
 1054loPI   C5A16531   9.112   3.311   7.837 -0.0003  0.0179 -0.2122
 1054loPI   C6A16532   8.918   3.201   8.195 -0.0480 -0.1134 -0.0118
 1054loPI   C1B16533   9.767   3.722   6.259 -0.1040  0.3038 -0.1741
 1054loPI   C2B16534   9.669   3.904   6.601 -0.1809 -0.2855 -0.1280
 1054loPI   C3B16535   9.525   3.841   6.980  0.4190 -0.1857  0.0264
 1054loPI   C4B16536   9.475   3.721   7.444 -0.1295  0.0235 -0.0125
 1055loPI    C116537   5.220   7.156   5.230 -0.0367  0.0499 -0.0777
 1055loPI    C216538   5.502   7.439   5.218  0.0917 -0.0802 -0.1536
 1055loPI    C316539   5.488   7.158   4.934 -0.0690 -0.1184 -0.1091
 1055loPI   PO416540   5.125   7.173   5.412 -0.0253 -0.0408  0.0759
 1055loPI   GL116541   5.288   7.187   5.810  0.2304 -0.1866 -0.0468
 1055loPI   GL216542   5.019   7.017   5.884  0.1632  0.1795  0.1252
 1055loPI   C1A16543   5.439   7.344   6.191  0.3083 -0.1687 -0.2428
 1055loPI   C2A16544   5.482   7.320   6.606  0.0435 -0.2689  0.0481
 1055loPI   C3A16545   5.412   7.330   7.089 -0.2340 -0.1511 -0.0172
 1055loPI   C4A16546   5.344   7.230   7.505  0.2746  0.2695 -0.0635
 1055loPI   C5A16547   5.532   7.228   7.828 -0.2924  0.1242 -0.2671
 1055loPI   C6A16548   5.471   7.183   8.227 -0.2863 -0.2727 -0.0860
 1055loPI   C1B16549   5.022   7.013   6.273 -0.0683 -0.1122 -0.0975
 1055loPI   C2B16550   5.012   6.978   6.672 -0.2466  0.2806  0.1074
 1055loPI   C3B16551   5.030   7.006   7.155  0.0147  0.1006 -0.2292
 1055loPI   C4B16552   4.963   6.938   7.565  0.0073  0.1514 -0.1825
 1056loPI    C116553   7.579   4.673   5.119  0.0542  0.1572 -0.0518
 1056loPI    C216554   7.517   4.507   4.761 -0.3577 -0.0222  0.0973
 1056loPI    C316555   7.887   4.525   4.911 -0.1687  0.1289 -0.3683
 1056loPI   PO416556   7.379   4.528   5.243  0.4250 -0.4263 -0.3768
 1056loPI   GL116557   7.195   4.655   5.535  0.1588  0.2941 -0.2877
 1056loPI   GL216558   7.498   4.482   5.710 -0.0126 -0.0761  0.0524
 1056loPI   C1A16559   6.997   4.548   6.046  0.1400  0.2273  0.0556
 1056loPI   C2A16560   6.923   4.389   6.400 -0.0011  0.2171 -0.0596
 1056loPI   C3A16561   6.952   4.395   6.798  0.0604 -0.1515 -0.1258
 1056loPI   C4A16562   7.078   4.384   7.165  0.1438 -0.2037  0.1311
 1056loPI   C5A16563   7.072   4.304   7.641  0.0186  0.1950 -0.2414
 1056loPI   C6A16564   6.903   3.837   7.757 -0.0853 -0.2403  0.0797
 1056loPI   C1B16565   7.419   4.327   6.164  0.2224 -0.1362 -0.0772
 1056loPI   C2B16566   7.390   4.312   6.603  0.0941  0.4177  0.3315
 1056loPI   C3B16567   7.541   4.316   6.978  0.0898 -0.1340  0.4047
 1056loPI   C4B16568   7.537   4.299   7.413  0.2469 -0.0099  0.0485
 1057loPI    C116569   0.836   5.412   5.236 -0.0486 -0.1466  0.0243
 1057loPI    C216570   0.775   5.572   4.875 -0.1248 -0.0123  0.0957
 1057loPI    C316571   0.699   5.184   4.937 -0.0909 -0.0409 -0.0375
 1057loPI   PO416572   0.919   5.694   5.383 -0.2110  0.7263 -0.0914
 1057loPI   GL116573   0.731   5.897   5.822 -0.0964 -0.0603 -0.0648
 1057loPI   GL216574   0.526   5.846   5.657  0.0874  0.3364  0.0466
 1057loPI   C1A16575   0.771   5.930   6.234 -0.2096 -0.0880  0.0963
 1057loPI   C2A16576   0.697   5.926   6.656  0.1429  0.0102 -0.2346
 1057loPI   C3A16577   0.761   5.885   7.019 -0.0923  0.1063  0.1776
 1057loPI   C4A16578   0.722   5.867   7.489 -0.1340 -0.4749  0.1932
 1057loPI   C5A16579   0.977   5.948   7.748 -0.1548  0.0991  0.2857
 1057loPI   C6A16580   1.386   6.111   7.829 -0.0584  0.1698  0.0217
 1057loPI   C1B16581   0.334   5.779   5.995 -0.0131  0.2120 -0.1184
 1057loPI   C2B16582   0.289   5.627   6.391 -0.2022 -0.1480 -0.0180
 1057loPI   C3B16583   0.363   5.614   6.876  0.1583 -0.0625 -0.2088
 1057loPI   C4B16584   0.316   5.583   7.327  0.1430 -0.0873  0.1362
 1058loPI    C116585  17.482   8.548   5.430  0.2824 -0.0334 -0.0484
 1058loPI    C216586  17.293   8.201   5.369  0.1445  0.0588 -0.1530
 1058loPI    C316587  17.670   8.203   5.504  0.1415 -0.1306 -0.1391
 1058loPI   PO416588  17.421   8.667   5.534  0.0341  0.2396 -0.3214
 1058loPI   GL116589  17.306   8.657   5.966 -0.1212 -0.2986  0.3184
 1058loPI   GL216590  17.417   8.379   5.909 -0.1434 -0.2927  0.1101
 1058loPI   C1A16591  17.402   8.580   6.421  0.0546 -0.2945  0.0885
 1058loPI   C2A16592  17.339   8.631   6.938  0.0383  0.2265  0.2701
 1058loPI   C3A16593  17.265   8.648   7.318 -0.1864 -0.0715  0.0091
 1058loPI   C4A16594  17.284   8.671   7.728 -0.4118 -0.1276 -0.0339
 1058loPI   C5A16595  17.348   8.786   8.159 -0.0265  0.2720  0.1002
 1058loPI   C6A16596  17.535   8.445   8.363  0.0920  0.2888 -0.0770
 1058loPI   C1B16597  17.464   8.144   6.290  0.0968  0.1537  0.0679
 1058loPI   C2B16598  17.498   8.199   6.743 -0.1353  0.0699 -0.1745
 1058loPI   C3B16599  17.445   8.171   7.125 -0.0697 -0.0022 -0.0360
 1058loPI   C4B16600  17.586   8.052   7.563  0.3269  0.0549 -0.2070
 1059loPI    C116601   0.690   8.472   5.267  0.1668  0.0720 -0.0979
 1059loPI    C216602   0.768   8.495   4.875 -0.0539  0.2328 -0.1342
 1059loPI    C316603   0.863   8.164   5.079  0.2374  0.2222 -0.2823
 1059loPI   PO416604   0.768   8.646   5.392  0.3461  0.1862 -0.1563
 1059loPI   GL116605   0.664   8.722   5.742 -0.1138  0.0674 -0.2924
 1059loPI   GL216606   0.988   8.730   5.848 -0.1947  0.1308  0.0521
 1059loPI   C1A16607   0.498   8.481   6.022  0.1913 -0.4487 -0.3295
 1059loPI   C2A16608   0.618   8.466   6.445  0.1703  0.2733  0.1877
 1059loPI   C3A16609   0.577   8.541   6.844  0.1221  0.2142 -0.2341
 1059loPI   C4A16610   0.667   8.610   7.344 -0.2366  0.0473  0.0177
 1059loPI   C5A16611   0.882   8.569   7.695 -0.0118 -0.2220 -0.1710
 1059loPI   C6A16612   1.100   8.469   7.975 -0.2970 -0.0788 -0.0700
 1059loPI   C1B16613   1.021   8.776   6.223  0.3649 -0.2435 -0.0534
 1059loPI   C2B16614   1.085   8.772   6.687  0.0693 -0.2141  0.0056
 1059loPI   C3B16615   1.326   8.923   7.065 -0.1803 -0.1397  0.0975
 1059loPI   C4B16616   1.286   8.928   7.542  0.0178 -0.1028 -0.0449
 1060loPI    C116617   8.700  11.421   5.686 -0.1269  0.1322 -0.1095
 1060loPI    C216618   8.423  11.690   5.580 -0.0687  0.2078 -0.0700
 1060loPI    C316619   8.673  11.542   5.305 -0.1507  0.1365 -0.1065
 1060loPI   PO416620   8.771  11.443   5.859 -0.1891  0.1819  0.0586
 1060loPI   GL116621   8.885  11.395   6.271  0.0915  0.2821 -0.0195
 1060loPI   GL216622   8.713  11.182   6.410  0.1482  0.0805  0.1492
 1060loPI   C1A16623   8.844  11.774   6.489 -0.3620  0.0988  0.0867
 1060loPI   C2A16624   8.767  11.980   6.832 -0.1611 -0.3141 -0.0086
 1060loPI   C3A16625   8.418  12.119   7.007 -0.1312  0.0292 -0.4367
 1060loPI   C4A16626   8.202  12.188   7.444  0.3483  0.4319 -0.0568
 1060loPI   C5A16627   8.544  12.038   7.674 -0.2586 -0.2983 -0.0117
 1060loPI   C6A16628   8.847  11.825   7.827  0.3122 -0.1193  0.0088
 1060loPI   C1B16629   8.554  11.077   6.918  0.2967  0.0543 -0.0128
 1060loPI   C2B16630   8.562  11.065   7.411 -0.1609  0.1014  0.1198
 1060loPI   C3B16631   8.617  11.079   7.809  0.3117  0.0405 -0.1355
 1060loPI   C4B16632   8.526  11.277   8.276 -0.1492  0.0982 -0.1318
 1061loPI    C116633  16.165   3.057   5.373 -0.0220 -0.2426 -0.0080
 1061loPI    C216634  16.308   2.914   5.028  0.1160  0.2688 -0.1718
 1061loPI    C316635  15.930   3.042   5.050  0.0429  0.0413 -0.0711
 1061loPI   PO416636  16.266   3.161   5.533  0.2846 -0.2310 -0.0263
 1061loPI   GL116637  16.250   3.222   5.938 -0.1178  0.0732  0.0359
 1061loPI   GL216638  16.332   3.508   5.977  0.3987  0.1478 -0.4403
 1061loPI   C1A16639  16.236   3.022   6.346 -0.1730 -0.0856  0.0458
 1061loPI   C2A16640  16.363   2.616   6.443 -0.1598  0.0957 -0.1408
 1061loPI   C3A16641  16.379   2.348   6.762  0.3558  0.1294 -0.0117
 1061loPI   C4A16642  16.252   2.124   7.111  0.3586  0.2255 -0.4377
 1061loPI   C5A16643  16.211   1.886   7.482  0.0768  0.1308  0.2882
 1061loPI   C6A16644  16.463   1.810   7.756 -0.2419  0.0691  0.0340
 1061loPI   C1B16645  16.365   3.649   6.430  0.0313  0.0631 -0.1793
 1061loPI   C2B16646  16.467   3.586   6.850  0.0147  0.1568  0.0297
 1061loPI   C3B16647  16.234   3.481   7.111 -0.1721 -0.1496 -0.0123
 1061loPI   C4B16648  16.085   3.575   7.546 -0.0951 -0.1434 -0.1168
 1062loPI    C116649  11.169   7.845   5.404 -0.0994  0.0979  0.1493
 1062loPI    C216650  11.240   8.173   5.622 -0.0654  0.2034 -0.0180
 1062loPI    C316651  11.027   8.200   5.285  0.1277  0.0924 -0.1505
 1062loPI   PO416652  11.064   7.686   5.554  0.2118  0.0420 -0.2051
 1062loPI   GL116653  10.860   7.694   5.900  0.2794  0.2029  0.1046
 1062loPI   GL216654  11.027   7.389   5.974  0.0174 -0.0811  0.0235
 1062loPI   C1A16655  10.578   7.489   6.194 -0.1348 -0.0968  0.2447
 1062loPI   C2A16656  10.574   7.411   6.652  0.1489  0.0125 -0.0465
 1062loPI   C3A16657  10.484   6.982   6.874  0.1380  0.2039  0.0322
 1062loPI   C4A16658  10.361   6.894   7.335 -0.0358  0.1820 -0.1178
 1062loPI   C5A16659  10.403   6.748   7.724 -0.0853  0.0473  0.1121
 1062loPI   C6A16660  10.312   6.460   8.028  0.1540  0.0296  0.1572
 1062loPI   C1B16661  11.037   7.524   6.416  0.1314  0.2771 -0.1004
 1062loPI   C2B16662  11.117   7.568   6.826 -0.0837  0.1497  0.0088
 1062loPI   C3B16663  11.100   7.568   7.277  0.0679 -0.1219 -0.0530
 1062loPI   C4B16664  11.245   7.561   7.723  0.1366 -0.0400  0.0275
 1063loPI    C116665  12.312  18.004   5.368  0.0508 -0.0618 -0.2029
 1063loPI    C216666  12.314  17.611   5.294  0.0397 -0.0582 -0.2218
 1063loPI    C316667  12.496  17.864   5.042 -0.0876 -0.0363 -0.2927
 1063loPI   PO416668  12.249  17.969   5.678  0.1906 -0.2181  0.5925
 1063loPI   GL116669  12.276  17.745   6.069 -0.1302  0.3009 -0.1144
 1063loPI   GL216670  12.505  17.815   6.148 -0.0322  0.1348  0.2509
 1063loPI   C1A16671  11.945  17.834   6.416  0.0982  0.2650 -0.1505
 1063loPI   C2A16672  11.694  17.872   6.830 -0.2014 -0.3129  0.4207
 1063loPI   C3A16673  11.700  17.929   7.250  0.4529  0.2041  0.1366
 1063loPI   C4A16674  11.750  17.917   7.698  0.1594 -0.0424 -0.2221
 1063loPI   C5A16675  11.762  18.108   8.013  0.0205  0.2003 -0.1642
 1063loPI   C6A16676  12.134  18.065   8.336  0.3976  0.0102 -0.3446
 1063loPI   C1B16677  12.453  17.707   6.553  0.1426  0.0918  0.3441
 1063loPI   C2B16678  12.204  17.767   6.977  0.2579 -0.0774 -0.0298
 1063loPI   C3B16679  12.157  17.805   7.375 -0.0049  0.2365 -0.1135
 1063loPI   C4B16680  12.195  17.918   7.879  0.0830  0.1077  0.0315
 1064loPI    C116681   9.888   2.823   5.141  0.0113  0.1293 -0.1340
 1064loPI    C216682  10.248   2.876   4.975 -0.2165  0.0533 -0.6742
 1064loPI    C316683  10.008   3.190   5.035 -0.0032  0.1276 -0.1564
 1064loPI   PO416684   9.931   2.636   5.293 -0.3625 -0.2753 -0.0154
 1064loPI   GL116685  10.199   2.461   5.617  0.0206  0.0327 -0.2162
 1064loPI   GL216686  10.074   2.628   5.790 -0.2419 -0.0854 -0.1203
 1064loPI   C1A16687  10.364   2.307   6.043  0.0947  0.1060 -0.1565
 1064loPI   C2A16688  10.449   2.169   6.510 -0.0969  0.1071  0.0167
 1064loPI   C3A16689  10.413   2.135   6.889  0.0328  0.0796  0.3859
 1064loPI   C4A16690  10.308   2.197   7.211  0.3780  0.1647 -0.2808
 1064loPI   C5A16691  10.160   2.088   7.665  0.2041 -0.3065  0.0270
 1064loPI   C6A16692   9.911   1.747   7.880 -0.0798 -0.4053 -0.3140
 1064loPI   C1B16693  10.145   2.777   6.133 -0.2640 -0.0913  0.1024
 1064loPI   C2B16694  10.268   2.707   6.610 -0.0804  0.2875  0.4857
 1064loPI   C3B16695  10.218   2.646   6.982  0.2101 -0.0457  0.0955
 1064loPI   C4B16696  10.228   2.720   7.360  0.1125  0.2043 -0.0657
 1065loPI    C116697   3.723   3.113   5.099  0.0231 -0.0072 -0.0958
 1065loPI    C216698   3.420   3.261   4.884 -0.1086 -0.0711  0.0442
 1065loPI    C316699   3.702   3.040   4.706 -0.1913 -0.0848 -0.0710
 1065loPI   PO416700   3.715   3.370   5.318  0.1250  0.3339  0.0773
 1065loPI   GL116701   3.895   3.708   5.537 -0.1221 -0.0286  0.0760
 1065loPI   GL216702   3.898   3.383   5.765 -0.3837  0.3498 -0.2428
 1065loPI   C1A16703   3.948   3.870   5.981 -0.0622  0.0568  0.1782
 1065loPI   C2A16704   3.943   3.934   6.440 -0.2057  0.0190  0.0358
 1065loPI   C3A16705   3.888   4.008   6.911  0.0858  0.0272 -0.1962
 1065loPI   C4A16706   3.889   4.079   7.363  0.0059  0.0408  0.1042
 1065loPI   C5A16707   3.651   4.388   7.659 -0.0982  0.0924  0.1041
 1065loPI   C6A16708   3.545   4.306   8.103  0.0429 -0.1105 -0.1285
 1065loPI   C1B16709   3.967   3.430   6.281 -0.1921 -0.1030 -0.0331
 1065loPI   C2B16710   3.959   3.448   6.673 -0.1157  0.2230  0.3198
 1065loPI   C3B16711   4.059   3.593   7.082 -0.0171  0.0714  0.1786
 1065loPI   C4B16712   4.325   3.764   7.445  0.1958  0.1565 -0.2583
 1066loPI    C116713  14.564   1.510   5.528 -0.0900  0.2338 -0.0085
 1066loPI    C216714  14.846   1.630   5.271  0.3332 -0.3098  0.1829
 1066loPI    C316715  14.603   1.328   5.174 -0.0230 -0.0117  0.1233
 1066loPI   PO416716  14.693   1.521   5.801  0.0497  0.0750 -0.0144
 1066loPI   GL116717  15.058   1.520   6.054 -0.1527 -0.2247 -0.2067
 1066loPI   GL216718  15.079   1.781   6.139 -0.0035  0.1512  0.0202
 1066loPI   C1A16719  14.957   1.327   6.491  0.0844  0.0486  0.1996
 1066loPI   C2A16720  14.756   1.033   6.862  0.0114  0.1424 -0.2792
 1066loPI   C3A16721  14.954   0.923   7.187 -0.1480 -0.1096  0.1055
 1066loPI   C4A16722  15.049   0.963   7.625 -0.1350 -0.1170  0.3305
 1066loPI   C5A16723  15.156   1.234   7.847  0.3055  0.2992 -0.2630
 1066loPI   C6A16724  15.366   1.601   7.886  0.3749 -0.0942  0.0115
 1066loPI   C1B16725  15.240   1.747   6.566  0.0167 -0.0143  0.0429
 1066loPI   C2B16726  15.292   1.828   6.994 -0.2742 -0.0924  0.1130
 1066loPI   C3B16727  15.309   1.657   7.412 -0.0195  0.1989 -0.1783
 1066loPI   C4B16728  15.387   1.253   7.419  0.0179  0.1693 -0.0136
 1067loPI    C116729   5.777   2.390   5.091 -0.1565 -0.1986  0.1294
 1067loPI    C216730   5.734   2.367   4.694 -0.1407  0.1952  0.1011
 1067loPI    C316731   6.096   2.424   4.852 -0.1265 -0.1025  0.1829
 1067loPI   PO416732   5.529   2.233   5.171 -0.1564  0.0025  0.2555
 1067loPI   GL116733   5.328   2.486   5.469  0.0280  0.3658  0.1382
 1067loPI   GL216734   5.531   2.680   5.533 -0.0898  0.2398 -0.1583
 1067loPI   C1A16735   5.221   2.298   5.809 -0.0695 -0.0571  0.3951
 1067loPI   C2A16736   5.104   2.287   6.175 -0.0751 -0.1109 -0.0512
 1067loPI   C3A16737   5.208   2.225   6.620 -0.4789 -0.1998  0.0757
 1067loPI   C4A16738   5.167   2.268   7.030 -0.0447  0.1980 -0.0276
 1067loPI   C5A16739   5.254   2.165   7.448  0.0922 -0.0297 -0.2259
 1067loPI   C6A16740   5.317   1.780   7.720 -0.0385 -0.1329  0.0289
 1067loPI   C1B16741   5.502   2.658   6.006  0.2018  0.1320 -0.0667
 1067loPI   C2B16742   5.548   2.631   6.439 -0.1864  0.3768  0.2401
 1067loPI   C3B16743   5.581   2.583   6.899  0.0377  0.0524  0.0266
 1067loPI   C4B16744   5.615   2.470   7.353  0.0629 -0.0819  0.1471
 1068loPI    C116745   2.823   5.936   4.913 -0.1292 -0.0697  0.0031
 1068loPI    C216746   3.133   6.111   5.096 -0.0649 -0.0270 -0.1455
 1068loPI    C316747   3.195   5.812   4.838 -0.1385  0.0543 -0.2587
 1068loPI   PO416748   2.670   5.817   5.090  0.0768 -0.1748 -0.0056
 1068loPI   GL116749   2.531   5.974   5.424 -0.2635  0.3536  0.1985
 1068loPI   GL216750   2.606   5.664   5.559  0.0003  0.0201  0.2620
 1068loPI   C1A16751   2.567   6.056   5.876  0.1099 -0.3814 -0.0479
 1068loPI   C2A16752   2.823   6.338   6.230  0.0367  0.0090 -0.3924
 1068loPI   C3A16753   2.985   6.340   6.630  0.0360 -0.1908  0.1592
 1068loPI   C4A16754   2.941   6.259   7.022  0.2664  0.1535  0.2940
 1068loPI   C5A16755   3.013   6.152   7.451 -0.1153 -0.2543 -0.2622
 1068loPI   C6A16756   3.119   6.067   7.915 -0.0905 -0.0349 -0.0478
 1068loPI   C1B16757   2.566   5.497   6.010 -0.2235  0.1915  0.1217
 1068loPI   C2B16758   2.633   5.470   6.440 -0.2824 -0.0210  0.0494
 1068loPI   C3B16759   2.619   5.358   6.867  0.1202 -0.1623 -0.0453
 1068loPI   C4B16760   2.601   5.286   7.281 -0.0709 -0.2767  0.1033
 1069loPI    C116761  16.462  11.777   5.511 -0.2337 -0.0829 -0.0828
 1069loPI    C216762  16.551  11.786   5.121 -0.1801 -0.3450 -0.0787
 1069loPI    C316763  16.272  11.534   5.256  0.0430 -0.5014  0.0984
 1069loPI   PO416764  16.713  11.792   5.653 -0.1028 -0.1972  0.1971
 1069loPI   GL116765  16.864  11.866   6.011  0.0362 -0.0711 -0.2616
 1069loPI   GL216766  17.141  11.985   6.001  0.0398  0.0255 -0.1177
 1069loPI   C1A16767  16.957  11.645   6.380  0.0404 -0.0777  0.3465
 1069loPI   C2A16768  16.747  11.346   6.667  0.1660  0.2473  0.1010
 1069loPI   C3A16769  16.445  11.327   7.104  0.1445 -0.0221 -0.0497
 1069loPI   C4A16770  16.456  11.404   7.556 -0.0552  0.2130 -0.4527
 1069loPI   C5A16771  16.551  11.407   8.004  0.0153 -0.0508  0.0133
 1069loPI   C6A16772  16.623  11.586   8.415 -0.1424  0.1189 -0.2775
 1069loPI   C1B16773  17.349  11.871   6.341 -0.1971  0.0757  0.1644
 1069loPI   C2B16774  17.487  11.665   6.738  0.0113  0.4373  0.0645
 1069loPI   C3B16775  17.699  11.489   7.135 -0.1327 -0.0563 -0.0624
 1069loPI   C4B16776  17.989  11.215   7.107 -0.0980  0.2439 -0.1534
 1070loPI    C116777   5.051   4.988   4.641 -0.1586 -0.1369  0.1581
 1070loPI    C216778   5.226   4.662   4.489  0.3141  0.1687  0.0242
 1070loPI    C316779   5.087   4.947   4.245 -0.4339 -0.0866  0.1257
 1070loPI   PO416780   4.794   4.822   4.908 -0.1857 -0.1157  0.0477
 1070loPI   GL116781   4.939   4.677   5.335  0.1897  0.4457 -0.0860
 1070loPI   GL216782   5.117   4.552   5.493 -0.0842 -0.2112 -0.3214
 1070loPI   C1A16783   4.725   4.969   5.669 -0.1740  0.1063 -0.3141
 1070loPI   C2A16784   4.957   5.147   6.094  0.0848  0.1167 -0.2983
 1070loPI   C3A16785   5.037   5.103   6.536  0.0848 -0.1611  0.0230
 1070loPI   C4A16786   5.017   4.990   6.892  0.2692 -0.3342 -0.0973
 1070loPI   C5A16787   4.967   4.924   7.255 -0.0717 -0.1248  0.0674
 1070loPI   C6A16788   4.894   4.831   7.691 -0.3348 -0.0474  0.1346
 1070loPI   C1B16789   5.099   4.596   5.926  0.1240  0.2633 -0.0599
 1070loPI   C2B16790   5.034   4.666   6.273  0.2161 -0.0097 -0.2717
 1070loPI   C3B16791   5.238   4.590   6.622 -0.0609 -0.0644  0.0473
 1070loPI   C4B16792   5.166   4.544   7.052 -0.1140 -0.1881 -0.2496
 1071loPI    C116793   4.875   1.390   4.874 -0.1314  0.0314  0.2357
 1071loPI    C216794   4.515   1.546   4.799 -0.0804  0.0282 -0.0257
 1071loPI    C316795   4.720   1.368   4.506  0.1697  0.1021  0.1020
 1071loPI   PO416796   4.972   1.560   5.071  0.0075 -0.1794 -0.0162
 1071loPI   GL116797   4.970   1.633   5.510  0.1727  0.3169 -0.4608
 1071loPI   GL216798   5.141   1.839   5.564 -0.0305 -0.0930 -0.1643
 1071loPI   C1A16799   4.547   1.512   5.788  0.1410 -0.2985  0.5594
 1071loPI   C2A16800   4.421   1.400   6.202 -0.1694 -0.0206  0.0151
 1071loPI   C3A16801   4.482   1.536   6.625  0.0380  0.0565  0.3809
 1071loPI   C4A16802   4.423   1.493   7.068  0.4181 -0.0061  0.1992
 1071loPI   C5A16803   4.495   1.525   7.384 -0.2521  0.1850  0.1771
 1071loPI   C6A16804   4.349   1.390   7.827  0.0703  0.1524  0.2011
 1071loPI   C1B16805   5.192   1.675   6.000  0.2949  0.0781  0.1009
 1071loPI   C2B16806   5.238   1.711   6.470 -0.0327  0.0832  0.1212
 1071loPI   C3B16807   5.330   1.762   6.860  0.1819 -0.0761 -0.0175
 1071loPI   C4B16808   5.343   1.771   7.247 -0.2552 -0.2212  0.2327
 1072loPI    C116809   1.470   6.001   5.060 -0.0438 -0.0287 -0.2436
 1072loPI    C216810   1.070   6.012   5.075 -0.0391 -0.0692 -0.0583
 1072loPI    C316811   1.279   6.353   5.072 -0.0751 -0.0475 -0.1845
 1072loPI   PO416812   1.532   5.795   5.395 -0.0587 -0.1261 -0.0642
 1072loPI   GL116813   1.671   5.690   5.786 -0.0607 -0.0493 -0.1954
 1072loPI   GL216814   1.567   6.034   5.850 -0.3012  0.2259  0.0494
 1072loPI   C1A16815   2.049   5.726   6.142  0.3017  0.1862  0.0717
 1072loPI   C2A16816   2.151   5.676   6.606  0.2299 -0.0154 -0.1794
 1072loPI   C3A16817   2.215   5.620   7.013 -0.2034  0.0476  0.0580
 1072loPI   C4A16818   2.238   5.617   7.451 -0.2679  0.0954  0.2214
 1072loPI   C5A16819   2.089   5.561   7.815  0.2788 -0.2497  0.0563
 1072loPI   C6A16820   2.027   5.524   8.186  0.1210  0.0805 -0.1721
 1072loPI   C1B16821   1.754   6.054   6.369  0.1407  0.0360 -0.1677
 1072loPI   C2B16822   2.053   6.188   6.765  0.2317  0.0470 -0.0598
 1072loPI   C3B16823   2.056   6.091   7.177  0.0574  0.0798 -0.0882
 1072loPI   C4B16824   2.050   6.031   7.667  0.2094  0.1558 -0.2925
 1073loPI    C116825  15.760  10.653   5.199  0.0044  0.1002  0.1385
 1073loPI    C216826  16.069  10.402   5.161  0.0272  0.1738 -0.1950
 1073loPI    C316827  15.942  10.611   4.845 -0.2643  0.2631 -0.0221
 1073loPI   PO416828  15.828  10.761   5.446  0.3314 -0.0099 -0.0589
 1073loPI   GL116829  15.864  10.841   5.835  0.2590 -0.2070 -0.1345
 1073loPI   GL216830  15.884  11.100   5.974 -0.1223 -0.0016 -0.1425
 1073loPI   C1A16831  15.736  10.720   6.304 -0.0243 -0.1653  0.2290
 1073loPI   C2A16832  15.823  10.757   6.732 -0.0267 -0.0231 -0.1271
 1073loPI   C3A16833  15.815  10.735   7.219 -0.2027 -0.0891  0.2005
 1073loPI   C4A16834  16.084  10.495   7.500 -0.3369  0.1132  0.0243
 1073loPI   C5A16835  16.096  10.357   7.993 -0.0904 -0.3516 -0.3090
 1073loPI   C6A16836  16.372  10.067   8.148 -0.0006 -0.1946 -0.3079
 1073loPI   C1B16837  15.724  11.369   6.378  0.0213 -0.0072  0.2135
 1073loPI   C2B16838  15.741  11.395   6.850  0.0310  0.1509 -0.1109
 1073loPI   C3B16839  15.972  11.224   7.257  0.0507  0.0472  0.0824
 1073loPI   C4B16840  16.311  10.910   7.327  0.0026 -0.1559  0.0930
 1074loPI    C116841  15.114   6.949   5.089 -0.2692 -0.0732 -0.1430
 1074loPI    C216842  15.270   7.108   4.756  0.1000 -0.0137  0.0528
 1074loPI    C316843  15.334   6.723   4.842  0.0116 -0.0270  0.0599
 1074loPI   PO416844  15.204   7.095   5.239  0.2964 -0.0224 -0.0414
 1074loPI   GL116845  15.493   6.995   5.554  0.0462  0.0527 -0.0066
 1074loPI   GL216846  15.770   6.976   5.757  0.1252  0.3366  0.2280
 1074loPI   C1A16847  15.361   7.199   5.918  0.0214 -0.2043  0.0363
 1074loPI   C2A16848  15.361   7.594   6.074 -0.1423 -0.5305 -0.2246
 1074loPI   C3A16849  15.518   7.954   6.332 -0.3452 -0.1963  0.3135
 1074loPI   C4A16850  15.717   8.027   6.684  0.0744  0.0090 -0.1231
 1074loPI   C5A16851  15.624   8.039   7.081  0.1230 -0.1416  0.2736
 1074loPI   C6A16852  15.674   7.948   7.476 -0.0972  0.1856 -0.0400
 1074loPI   C1B16853  15.639   6.795   6.135  0.0226 -0.2180  0.2777
 1074loPI   C2B16854  15.337   6.472   6.363 -0.3557 -0.1159 -0.4541
 1074loPI   C3B16855  15.239   6.230   6.735  0.2550 -0.0011  0.3183
 1074loPI   C4B16856  15.307   5.801   6.872  0.0085 -0.2794 -0.0931
 1075loPI    C116857  14.849  14.938   5.863  0.0670  0.0877  0.1680
 1075loPI    C216858  14.809  15.206   5.569  0.0459 -0.1001 -0.0027
 1075loPI    C316859  14.882  14.823   5.482  0.0733 -0.1518  0.2391
 1075loPI   PO416860  14.645  15.074   6.062 -0.2239 -0.3785 -0.1605
 1075loPI   GL116861  14.543  15.059   6.545 -0.0675 -0.0439 -0.0305
 1075loPI   GL216862  14.703  14.745   6.492  0.1493 -0.3201  0.1206
 1075loPI   C1A16863  14.540  15.133   6.956 -0.0055 -0.0062 -0.0400
 1075loPI   C2A16864  14.593  14.881   7.330  0.0972  0.1863 -0.0007
 1075loPI   C3A16865  14.544  14.952   7.760  0.0176  0.3654 -0.2028
 1075loPI   C4A16866  14.781  14.821   8.059  0.2303  0.0774  0.0850
 1075loPI   C5A16867  14.971  14.537   8.394 -0.2481  0.1506 -0.0802
 1075loPI   C6A16868  14.914  14.268   8.784 -0.0697  0.0321 -0.2595
 1075loPI   C1B16869  14.817  14.614   6.915  0.0137 -0.0110  0.0145
 1075loPI   C2B16870  15.105  14.529   7.237  0.2358 -0.1309  0.0853
 1075loPI   C3B16871  15.099  14.546   7.705  0.1022  0.1210 -0.2242
 1075loPI   C4B16872  15.256  14.336   8.048 -0.0892  0.1260 -0.2343
 1076loPI    C116873  12.529  10.115   5.150 -0.1551 -0.0021 -0.0978
 1076loPI    C216874  12.732   9.885   5.407 -0.2967  0.0513  0.0638
 1076loPI    C316875  12.592   9.729   5.066  0.1287  0.0456 -0.1145
 1076loPI   PO416876  12.343  10.190   5.327  0.1843  0.0044 -0.0094
 1076loPI   GL116877  12.369  10.130   5.807  0.1433 -0.1015 -0.3691
 1076loPI   GL216878  12.645  10.318   5.734  0.1593  0.0637  0.0678
 1076loPI   C1A16879  12.279  10.082   6.167  0.4114  0.1823  0.3764
 1076loPI   C2A16880  12.160  10.030   6.561 -0.0210 -0.3020 -0.1213
 1076loPI   C3A16881  11.857   9.966   6.858 -0.0849  0.1225  0.4146
 1076loPI   C4A16882  11.745  10.055   7.186 -0.2602  0.0202 -0.2143
 1076loPI   C5A16883  11.845  10.110   7.660 -0.2274  0.3387 -0.0315
 1076loPI   C6A16884  11.913  10.441   7.917  0.3451 -0.2392  0.1177
 1076loPI   C1B16885  12.635  10.423   6.149  0.0737  0.1225 -0.1606
 1076loPI   C2B16886  12.611  10.218   6.616  0.0398 -0.1727  0.4522
 1076loPI   C3B16887  12.458  10.064   6.986  0.5304 -0.0715  0.0386
 1076loPI   C4B16888  12.221  10.117   7.325 -0.1602  0.1045 -0.0279
 1077loPI    C116889  17.852   2.131   5.502 -0.4049 -0.0429  0.1997
 1077loPI    C216890  17.620   1.905   5.268 -0.2033 -0.1443  0.0954
 1077loPI    C316891  17.669   2.293   5.185 -0.0485 -0.2031 -0.0938
 1077loPI   PO416892  18.041   1.890   5.607  0.0927  0.2803 -0.1904
 1077loPI   GL116893  17.964   1.652   5.894 -0.2720 -0.1619 -0.0804
 1077loPI   GL216894  17.731   1.858   6.006  0.0417 -0.3121  0.0654
 1077loPI   C1A16895  18.117   1.913   6.287 -0.0695 -0.1073  0.0029
 1077loPI   C2A16896  18.057   1.890   6.672 -0.2909  0.5895  0.3122
 1077loPI   C3A16897  17.981   1.881   7.011  0.0198  0.1963  0.0526
 1077loPI   C4A16898  17.945   1.941   7.473  0.1418  0.1995  0.2135
 1077loPI   C5A16899  18.005   1.995   7.924  0.0372 -0.0664  0.0502
 1077loPI   C6A16900  17.909   2.002   8.367  0.0320  0.1179  0.1835
 1077loPI   C1B16901  17.626   2.092   6.367 -0.2853  0.2132 -0.2492
 1077loPI   C2B16902  17.584   2.011   6.793  0.1481  0.1121 -0.3269
 1077loPI   C3B16903  17.472   2.056   7.238 -0.1673  0.1192 -0.0300
 1077loPI   C4B16904  17.335   2.220   7.693  0.1116 -0.0205 -0.1050
 1078loPI    C116905   5.120  17.421   4.815 -0.2858  0.0799  0.0690
 1078loPI    C216906   5.441  17.659   4.836 -0.2488  0.0388 -0.0265
 1078loPI    C316907   5.349  17.477   4.492 -0.1800 -0.2197  0.0891
 1078loPI   PO416908   5.116  17.387   5.113  0.1362 -0.1929 -0.0147
 1078loPI   GL116909   4.948  17.172   5.520 -0.0201 -0.1461 -0.0718
 1078loPI   GL216910   5.011  17.456   5.628 -0.1944 -0.2827  0.1190
 1078loPI   C1A16911   5.159  17.124   5.912  0.2700 -0.3477  0.1057
 1078loPI   C2A16912   5.201  17.217   6.352  0.1658  0.1208  0.0638
 1078loPI   C3A16913   5.168  17.220   6.789  0.0402 -0.1363 -0.0363
 1078loPI   C4A16914   5.107  17.116   7.161  0.0312  0.0270  0.2644
 1078loPI   C5A16915   5.246  17.326   7.506  0.2833  0.1753 -0.3239
 1078loPI   C6A16916   5.526  17.217   7.828 -0.0942 -0.1463  0.0175
 1078loPI   C1B16917   5.091  17.586   6.045 -0.2212  0.1222 -0.2076
 1078loPI   C2B16918   5.059  17.754   6.460 -0.0018  0.1085  0.0787
 1078loPI   C3B16919   4.963  17.672   6.863 -0.0871  0.0279 -0.0913
 1078loPI   C4B16920   4.905  17.601   7.255  0.3478 -0.2437  0.1027
 1079loPI    C116921  12.771   2.781   5.374  0.3705 -0.0029  0.0079
 1079loPI    C216922  12.498   2.656   5.109  0.2210  0.1103  0.1061
 1079loPI    C316923  12.871   2.509   5.099  0.2082  0.0921 -0.1467
 1079loPI   PO416924  12.658   2.724   5.587  0.3253 -0.2120  0.0642
 1079loPI   GL116925  12.758   2.443   5.963  0.1480 -0.1666  0.0403
 1079loPI   GL216926  12.854   2.711   6.135  0.0475 -0.1258  0.0147
 1079loPI   C1A16927  12.736   2.262   6.375  0.2771 -0.0149 -0.0059
 1079loPI   C2A16928  12.800   2.341   6.774  0.0325 -0.0938 -0.3145
 1079loPI   C3A16929  12.882   2.467   7.198  0.1177 -0.1641 -0.0382
 1079loPI   C4A16930  12.801   2.627   7.650  0.0555  0.1555  0.0033
 1079loPI   C5A16931  13.191   2.783   7.966 -0.1053 -0.0472 -0.0871
 1079loPI   C6A16932  13.475   2.788   8.329  0.2592 -0.2201 -0.0126
 1079loPI   C1B16933  12.859   3.006   6.415  0.0850  0.0296 -0.0645
 1079loPI   C2B16934  12.988   3.204   6.837  0.4501  0.1124 -0.1512
 1079loPI   C3B16935  13.146   3.387   7.229  0.0043 -0.1087  0.2483
 1079loPI   C4B16936  13.128   3.670   7.612 -0.0154  0.1734 -0.1490
 1080loPI    C116937   8.746   6.995   5.040 -0.2164  0.3197 -0.2643
 1080loPI    C216938   9.131   7.104   5.050 -0.0187 -0.3503  0.0256
 1080loPI    C316939   9.002   6.850   4.768 -0.3488  0.1724 -0.3125
 1080loPI   PO416940   8.720   6.939   5.313  0.1235 -0.0676  0.0634
 1080loPI   GL116941   8.642   7.000   5.736 -0.1986 -0.0998 -0.2524
 1080loPI   GL216942   8.979   6.823   5.816 -0.1425  0.0025 -0.2811
 1080loPI   C1A16943   8.359   6.902   6.088 -0.0489 -0.0431  0.0798
 1080loPI   C2A16944   8.308   7.045   6.496 -0.0056 -0.0774 -0.2188
 1080loPI   C3A16945   8.295   6.941   6.930  0.1623  0.2550 -0.0830
 1080loPI   C4A16946   8.171   6.969   7.382  0.2694  0.2656  0.0293
 1080loPI   C5A16947   8.194   6.924   7.784 -0.1042  0.2940 -0.0130
 1080loPI   C6A16948   8.007   6.713   8.053 -0.1713  0.1882 -0.0586
 1080loPI   C1B16949   8.840   6.870   6.235 -0.0636  0.1361 -0.3313
 1080loPI   C2B16950   8.764   6.841   6.652  0.1993 -0.2697 -0.0419
 1080loPI   C3B16951   8.697   6.704   7.087  0.2026  0.1973 -0.0943
 1080loPI   C4B16952   8.639   6.849   7.474 -0.0323 -0.4002 -0.1412
 1081loPI    C116953   2.960   5.440   5.198 -0.1411 -0.1931 -0.0531
 1081loPI    C216954   3.227   5.291   4.940  0.0380 -0.0742  0.0614
 1081loPI    C316955   2.882   5.443   4.806  0.0262 -0.2297 -0.0876
 1081loPI   PO416956   3.083   5.619   5.309 -0.2890 -0.0376  0.0787
 1081loPI   GL116957   3.041   5.903   5.573 -0.3080  0.0117  0.2413
 1081loPI   GL216958   3.113   5.774   5.854  0.3275 -0.3233 -0.1124
 1081loPI   C1A16959   3.121   6.245   5.890  0.1471 -0.2031 -0.1183
 1081loPI   C2A16960   3.226   6.594   6.139  0.0128  0.1944  0.1645
 1081loPI   C3A16961   3.364   6.666   6.526 -0.0749 -0.2662  0.0234
 1081loPI   C4A16962   3.298   6.617   6.929  0.2264  0.1624 -0.2921
 1081loPI   C5A16963   3.280   6.536   7.419  0.0535 -0.2713  0.2560
 1081loPI   C6A16964   3.525   6.220   7.706 -0.1693 -0.1966  0.1193
 1081loPI   C1B16965   2.913   5.812   6.224  0.5001 -0.1445 -0.0851
 1081loPI   C2B16966   3.025   5.903   6.621 -0.0943  0.2654  0.0016
 1081loPI   C3B16967   3.064   5.702   6.957 -0.1985 -0.0850  0.0220
 1081loPI   C4B16968   2.995   5.666   7.333 -0.0756  0.1054 -0.1502
 1082loPI    C116969   5.431  13.969   5.133 -0.1925  0.0473  0.0422
 1082loPI    C216970   5.328  14.152   5.473  0.1058  0.0418  0.1386
 1082loPI    C316971   5.053  14.087   5.190 -0.1298  0.1090  0.3477
 1082loPI   PO416972   5.651  13.688   5.164  0.2106 -0.1580  0.1774
 1082loPI   GL116973   5.884  13.689   5.595  0.2127  0.4008 -0.0578
 1082loPI   GL216974   5.698  13.422   5.689  0.1316 -0.0393 -0.0984
 1082loPI   C1A16975   6.050  13.614   6.010  0.1098  0.0968  0.0460
 1082loPI   C2A16976   6.027  13.714   6.394 -0.0613  0.0383  0.0837
 1082loPI   C3A16977   6.029  13.847   6.800  0.0415 -0.2618 -0.0431
 1082loPI   C4A16978   5.995  13.998   7.241 -0.1847 -0.3548 -0.1241
 1082loPI   C5A16979   6.132  14.097   7.621  0.1407 -0.2062  0.0470
 1082loPI   C6A16980   6.094  14.422   7.844 -0.2311 -0.0937  0.1125
 1082loPI   C1B16981   5.758  13.258   6.139  0.0299  0.2370 -0.1923
 1082loPI   C2B16982   5.403  13.061   6.281 -0.0623 -0.1081 -0.0124
 1082loPI   C3B16983   5.230  13.004   6.647 -0.2734  0.1490 -0.1811
 1082loPI   C4B16984   5.354  13.043   7.033  0.1775  0.0099 -0.3193
 1083loPI    C116985  12.545  12.389   5.585  0.1117 -0.0002 -0.0095
 1083loPI    C216986  12.304  12.192   5.334 -0.0931 -0.0171  0.1965
 1083loPI    C316987  12.700  12.189   5.275 -0.1535  0.1804 -0.2632
 1083loPI   PO416988  12.371  12.566   5.607  0.0754  0.0171 -0.0268
 1083loPI   GL116989  12.208  12.732   5.885  0.1261  0.0637  0.1139
 1083loPI   GL216990  12.244  13.072   5.806  0.0106 -0.1282 -0.1180
 1083loPI   C1A16991  12.275  12.697   6.305  0.0335  0.2305 -0.0347
 1083loPI   C2A16992  12.250  12.599   6.696  0.0379  0.3077  0.1077
 1083loPI   C3A16993  12.422  12.719   6.946 -0.2041  0.2215  0.5038
 1083loPI   C4A16994  12.345  12.771   7.423  0.0841 -0.1898 -0.0527
 1083loPI   C5A16995  12.233  12.801   7.947  0.1614 -0.1032 -0.0652
 1083loPI   C6A16996  11.962  12.570   8.291 -0.0713  0.0689  0.0990
 1083loPI   C1B16997  12.503  13.142   6.218  0.0244  0.1600 -0.1647
 1083loPI   C2B16998  12.618  13.100   6.581 -0.0655 -0.2401  0.1254
 1083loPI   C3B16999  12.601  13.195   7.071  0.3724  0.0778 -0.3304
 1083loPI   C4B17000  12.717  13.223   7.535 -0.1819  0.2997  0.0992
 1084loPI    C117001   1.604  15.556   5.202 -0.1628 -0.1984  0.0347
 1084loPI    C217002   1.690  15.860   4.958 -0.0899  0.0658  0.3817
 1084loPI    C317003   1.437  15.574   4.839  0.0946  0.0833 -0.0735
 1084loPI   PO417004   1.857  15.392   5.285 -0.0440 -0.0289  0.2284
 1084loPI   GL117005   2.202  15.356   5.555 -0.1628 -0.2629 -0.1856
 1084loPI   GL217006   2.230  15.639   5.722 -0.0620 -0.1377 -0.0082
 1084loPI   C1A17007   1.985  15.304   6.048 -0.1052 -0.0317  0.1956
 1084loPI   C2A17008   1.986  15.362   6.468  0.0981  0.1214  0.2370
 1084loPI   C3A17009   1.971  15.298   6.844 -0.1133 -0.1094 -0.1799
 1084loPI   C4A17010   1.916  15.325   7.303  0.1021  0.1857 -0.0121
 1084loPI   C5A17011   1.598  15.144   7.658  0.2773  0.0208  0.1276
 1084loPI   C6A17012   1.264  15.055   7.876 -0.2642 -0.0143  0.1317
 1084loPI   C1B17013   2.362  15.659   6.168 -0.3465 -0.0452 -0.0276
 1084loPI   C2B17014   2.407  15.653   6.604  0.0037 -0.0192 -0.2566
 1084loPI   C3B17015   2.292  15.604   7.148  0.0119 -0.2104 -0.1851
 1084loPI   C4B17016   2.449  15.588   7.538 -0.0346  0.0932  0.0456
 1085loPI    C117017   0.594   1.805   5.067 -0.0958  0.0859  0.1833
 1085loPI    C217018   0.594   1.630   4.707  0.0186  0.2094  0.1225
 1085loPI    C317019   0.848   1.929   4.785 -0.0280  0.2054  0.2959
 1085loPI   PO417020   0.363   1.643   5.151  0.2304 -0.2675  0.1770
 1085loPI   GL117021   0.206   1.503   5.590 -0.1418  0.0674 -0.0804
 1085loPI   GL217022   0.598   1.574   5.581  0.0331  0.2541  0.1389
 1085loPI   C1A17023   0.330   1.656   6.036 -0.1661 -0.3322  0.0810
 1085loPI   C2A17024   0.295   1.656   6.479  0.2351  0.2442 -0.1463
 1085loPI   C3A17025   0.354   1.789   6.927 -0.3292  0.3237 -0.2725
 1085loPI   C4A17026   0.227   1.746   7.347  0.0498 -0.3195  0.0887
 1085loPI   C5A17027   0.339   1.719   7.763  0.1194 -0.1354 -0.2387
 1085loPI   C6A17028   0.288   1.970   8.173  0.0634 -0.3210  0.0280
 1085loPI   C1B17029   0.797   1.540   5.894  0.2740  0.0022  0.0471
 1085loPI   C2B17030   0.789   1.601   6.304 -0.0418  0.4554 -0.1161
 1085loPI   C3B17031   0.892   1.611   6.694  0.0558 -0.1630 -0.1998
 1085loPI   C4B17032   0.747   1.557   7.157 -0.2410 -0.0857 -0.1043
 1086loPI    C117033  12.551  11.240   5.656  0.0369  0.0347  0.1024
 1086loPI    C217034  12.408  10.867   5.638 -0.0664  0.0725  0.1298
 1086loPI    C317035  12.315  11.130   5.352  0.2008  0.0111 -0.0172
 1086loPI   PO417036  12.409  11.329   5.901 -0.2554  0.2234  0.0091
 1086loPI   GL117037  12.486  11.581   6.237  0.0132 -0.1190 -0.0509
 1086loPI   GL217038  12.301  11.700   6.182  0.0812  0.0751  0.1856
 1086loPI   C1A17039  12.570  11.324   6.513  0.3173 -0.0549 -0.0605
 1086loPI   C2A17040  12.569  11.251   6.935  0.1107 -0.0563  0.1228
 1086loPI   C3A17041  12.669  11.101   7.363  0.0484  0.1927 -0.0122
 1086loPI   C4A17042  13.134  11.122   7.624  0.1613 -0.0567 -0.0956
 1086loPI   C5A17043  13.320  11.375   7.904 -0.1332 -0.3626  0.2723
 1086loPI   C6A17044  13.745  11.605   7.912  0.0637  0.0085  0.1662
 1086loPI   C1B17045  12.364  11.751   6.675 -0.0588 -0.1930 -0.1796
 1086loPI   C2B17046  12.449  11.835   7.120  0.0280  0.1392  0.1246
 1086loPI   C3B17047  12.520  11.875   7.624 -0.3400  0.2724  0.0431
 1086loPI   C4B17048  12.332  11.751   7.994  0.4082  0.2385  0.3417
 1087loPI    C117049  14.484  14.442   5.495 -0.0479  0.0243 -0.2537
 1087loPI    C217050  14.183  14.281   5.286 -0.1395 -0.0170 -0.0914
 1087loPI    C317051  14.234  14.678   5.289 -0.3692  0.0135  0.1125
 1087loPI   PO417052  14.412  14.347   5.740  0.0209 -0.1223 -0.1748
 1087loPI   GL117053  14.408  14.593   6.103  0.2218  0.1439  0.0743
 1087loPI   GL217054  14.577  14.320   6.235  0.3448 -0.0713 -0.1846
 1087loPI   C1A17055  14.220  14.632   6.494 -0.0458 -0.2565  0.0350
 1087loPI   C2A17056  14.329  14.674   6.886 -0.4205  0.0521  0.1025
 1087loPI   C3A17057  14.483  14.366   7.242 -0.2652 -0.1199  0.0108
 1087loPI   C4A17058  14.596  14.406   7.525 -0.0653 -0.0910 -0.0967
 1087loPI   C5A17059  14.722  14.355   7.967 -0.4060 -0.2081  0.3467
 1087loPI   C6A17060  14.806  14.070   8.328  0.1456  0.5698  0.0315
 1087loPI   C1B17061  14.573  14.259   6.672  0.1162  0.0540 -0.0386
 1087loPI   C2B17062  14.803  14.004   6.939  0.1915 -0.0186 -0.1933
 1087loPI   C3B17063  15.100  14.048   7.315  0.1330 -0.2727 -0.3648
 1087loPI   C4B17064  15.369  14.125   7.628  0.2310 -0.0434  0.0611
 1088loPI    C117065   5.210  13.248   4.899  0.0062 -0.0904 -0.1108
 1088loPI    C217066   5.588  13.225   4.769  0.1293 -0.0199  0.2249
 1088loPI    C317067   5.285  13.183   4.511  0.3647 -0.0380 -0.0538
 1088loPI   PO417068   5.197  13.522   5.014  0.1031 -0.4015  0.0818
 1088loPI   GL117069   5.274  13.647   5.504  0.0019 -0.2851  0.1885
 1088loPI   GL217070   4.978  13.733   5.707  0.1144 -0.3019  0.1133
 1088loPI   C1A17071   5.500  13.936   5.853  0.0741  0.1044 -0.2178
 1088loPI   C2A17072   5.540  13.876   6.230  0.0907  0.1372 -0.0276
 1088loPI   C3A17073   5.461  13.818   6.714  0.0228  0.0099 -0.2273
 1088loPI   C4A17074   5.639  13.656   7.041  0.3822  0.2213 -0.1623
 1088loPI   C5A17075   5.837  13.231   7.147 -0.2327  0.0431 -0.0175
 1088loPI   C6A17076   6.080  12.863   6.961  0.0243 -0.3152 -0.2259
 1088loPI   C1B17077   5.066  13.911   6.072 -0.0881  0.1856 -0.3015
 1088loPI   C2B17078   5.042  13.996   6.494  0.0357  0.1234 -0.2475
 1088loPI   C3B17079   4.928  14.105   6.832 -0.2860  0.0332 -0.2783
 1088loPI   C4B17080   4.918  13.916   7.183 -0.0354  0.0205 -0.1498
 1089loPI    C117081   7.042   9.228   4.915  0.0509  0.1917 -0.1083
 1089loPI    C217082   7.170   8.865   4.808  0.1727  0.2230 -0.0710
 1089loPI    C317083   7.036   9.119   4.530 -0.0668  0.0915 -0.0785
 1089loPI   PO417084   6.940   9.136   5.220  0.0181  0.0789  0.1007
 1089loPI   GL117085   7.058   9.120   5.764  0.0345  0.3803 -0.1768
 1089loPI   GL217086   6.873   8.777   5.666 -0.0652 -0.1339 -0.0182
 1089loPI   C1A17087   7.185   9.045   6.105  0.3084  0.4191 -0.0815
 1089loPI   C2A17088   7.190   9.069   6.547  0.1570 -0.0444  0.2074
 1089loPI   C3A17089   7.191   9.127   7.022 -0.0914 -0.0322 -0.1502
 1089loPI   C4A17090   7.119   9.032   7.420  0.3488  0.2644  0.1553
 1089loPI   C5A17091   7.053   8.826   7.805  0.0981  0.0292 -0.1298
 1089loPI   C6A17092   7.010   8.548   8.153 -0.3038 -0.0982 -0.1779
 1089loPI   C1B17093   6.763   8.821   6.039 -0.0668 -0.1084  0.2862
 1089loPI   C2B17094   6.764   8.793   6.348 -0.0114 -0.2894 -0.0172
 1089loPI   C3B17095   6.846   8.721   6.727  0.2729  0.1113 -0.0572
 1089loPI   C4B17096   6.806   8.730   7.157 -0.3570  0.1887 -0.0940
 1090loPI    C117097  14.704   4.957   5.069 -0.0770  0.0562 -0.1438
 1090loPI    C217098  14.606   4.602   4.914  0.1953 -0.1184  0.0757
 1090loPI    C317099  14.747   4.891   4.677  0.3569 -0.2937 -0.0452
 1090loPI   PO417100  14.595   4.919   5.292 -0.3205 -0.0477  0.0710
 1090loPI   GL117101  14.716   4.981   5.722  0.0988  0.0806 -0.2154
 1090loPI   GL217102  15.029   5.022   5.879 -0.0090  0.1241 -0.1923
 1090loPI   C1A17103  14.490   4.980   6.077 -0.1406  0.3200  0.1058
 1090loPI   C2A17104  14.304   4.967   6.471  0.1363  0.1377 -0.0398
 1090loPI   C3A17105  14.233   4.940   6.930 -0.0335 -0.3269 -0.3446
 1090loPI   C4A17106  14.137   4.961   7.445  0.2228  0.2211 -0.3122
 1090loPI   C5A17107  13.898   4.868   7.864  0.2102  0.3786 -0.0926
 1090loPI   C6A17108  13.519   5.009   8.166  0.1161 -0.2131 -0.1226
 1090loPI   C1B17109  15.335   4.801   6.234  0.4349 -0.0329 -0.0799
 1090loPI   C2B17110  15.298   4.755   6.767  0.0714 -0.1227  0.0057
 1090loPI   C3B17111  15.185   4.598   7.191 -0.1570 -0.0789  0.1120
 1090loPI   C4B17112  15.218   4.694   7.643  0.1957  0.0266  0.0786
 1091loPI    C117113   8.438   3.729   5.150 -0.0992  0.0612 -0.0574
 1091loPI    C217114   8.324   3.719   4.767 -0.0035 -0.0037 -0.0844
 1091loPI    C317115   8.304   3.387   4.990 -0.1432  0.0552 -0.0083
 1091loPI   PO417116   8.312   3.962   5.376  0.0698 -0.0555  0.0685
 1091loPI   GL117117   8.100   3.929   5.757  0.2045 -0.2392  0.0041
 1091loPI   GL217118   7.867   4.154   5.851  0.1239  0.0327  0.2227
 1091loPI   C1A17119   8.273   3.763   6.054 -0.1486  0.1526 -0.0659
 1091loPI   C2A17120   8.597   3.729   6.268 -0.1494  0.2900  0.0690
 1091loPI   C3A17121   8.603   3.527   6.670  0.0898 -0.2429 -0.1000
 1091loPI   C4A17122   8.613   3.554   7.052  0.0744  0.0039  0.1037
 1091loPI   C5A17123   8.736   3.578   7.505  0.1079  0.0458  0.1210
 1091loPI   C6A17124   8.846   3.839   7.855  0.0586  0.2265  0.0114
 1091loPI   C1B17125   7.913   4.101   6.279  0.2193  0.0023 -0.1211
 1091loPI   C2B17126   7.908   4.091   6.677 -0.2198  0.0573  0.0583
 1091loPI   C3B17127   8.025   4.156   7.097 -0.0127 -0.1240  0.3207
 1091loPI   C4B17128   8.024   4.253   7.509  0.1154  0.0857 -0.0145
 1092loPI    C117129  14.400   8.090   5.535  0.1482  0.0865 -0.0913
 1092loPI    C217130  14.264   7.768   5.341  0.3685 -0.0355 -0.0474
 1092loPI    C317131  14.400   8.083   5.135  0.1738  0.0219 -0.0904
 1092loPI   PO417132  14.277   8.109   5.734 -0.2325  0.1058  0.0707
 1092loPI   GL117133  14.337   8.044   6.186  0.0021 -0.1252  0.1699
 1092loPI   GL217134  14.048   8.193   6.205 -0.0950  0.1335  0.0202
 1092loPI   C1A17135  14.511   7.713   6.510 -0.0640 -0.0933  0.2737
 1092loPI   C2A17136  14.544   7.617   6.867 -0.1389  0.0179  0.1588
 1092loPI   C3A17137  14.792   7.391   7.138 -0.0816 -0.0744 -0.2985
 1092loPI   C4A17138  14.879   7.335   7.479 -0.0346  0.0313  0.3054
 1092loPI   C5A17139  15.298   7.293   7.660 -0.1561  0.1377  0.1943
 1092loPI   C6A17140  15.543   7.001   7.864  0.0187  0.0371 -0.0412
 1092loPI   C1B17141  14.285   8.331   6.624  0.2534  0.3687  0.1589
 1092loPI   C2B17142  14.303   8.086   7.014  0.0293 -0.1462  0.2864
 1092loPI   C3B17143  14.168   8.255   7.382 -0.1805 -0.0555 -0.0610
 1092loPI   C4B17144  14.416   8.198   7.581  0.2710  0.1444 -0.1678
 1093loPI    C117145   7.037  17.142   5.272  0.0579 -0.1784 -0.0131
 1093loPI    C217146   6.909  17.507   5.374 -0.1338 -0.2557  0.0265
 1093loPI    C317147   6.999  17.426   4.993  0.1362 -0.1005  0.0545
 1093loPI   PO417148   7.163  17.072   5.456 -0.0522 -0.0299 -0.2485
 1093loPI   GL117149   7.347  17.350   5.678 -0.0465  0.1975 -0.4369
 1093loPI   GL217150   7.693  17.284   5.841  0.0001  0.0545  0.0897
 1093loPI   C1A17151   7.164  17.286   6.085  0.0271 -0.1844  0.2177
 1093loPI   C2A17152   7.139  17.296   6.483 -0.2234  0.2181 -0.1260
 1093loPI   C3A17153   6.991  17.353   6.917 -0.0784  0.0938  0.0053
 1093loPI   C4A17154   7.063  17.219   7.339  0.2960 -0.0151  0.4487
 1093loPI   C5A17155   7.197  17.145   7.809 -0.1643  0.3857 -0.1629
 1093loPI   C6A17156   7.026  17.159   8.146  0.1016  0.0512 -0.0216
 1093loPI   C1B17157   7.738  17.226   6.256  0.0410 -0.1955  0.0292
 1093loPI   C2B17158   7.663  17.162   6.632 -0.0913  0.0084 -0.1198
 1093loPI   C3B17159   7.647  17.052   7.082  0.0202 -0.0801 -0.0542
 1093loPI   C4B17160   7.644  17.122   7.493  0.2534  0.2866  0.0727
 1094loPI    C117161  12.506   4.202   5.690  0.0820  0.0453 -0.0714
 1094loPI    C217162  12.422   4.153   5.302 -0.2789  0.2374 -0.0216
 1094loPI    C317163  12.588   4.494   5.429 -0.1210  0.1577 -0.0110
 1094loPI   PO417164  12.334   4.071   5.774  0.3083  0.1717  0.2645
 1094loPI   GL117165  12.060   3.905   6.149  0.2556 -0.0517 -0.0116
 1094loPI   GL217166  12.328   4.118   6.234  0.3240  0.1153  0.2472
 1094loPI   C1A17167  11.839   3.789   6.428  0.1186 -0.2209 -0.1688
 1094loPI   C2A17168  11.601   3.726   6.834 -0.2372 -0.0918 -0.1506
 1094loPI   C3A17169  11.474   3.790   7.185 -0.2796 -0.0293 -0.4381
 1094loPI   C4A17170  11.356   3.762   7.546 -0.0111  0.4771  0.0102
 1094loPI   C5A17171  11.307   3.635   7.980  0.0813 -0.0266 -0.0634
 1094loPI   C6A17172  11.077   3.683   8.186 -0.0227  0.1737  0.0709
 1094loPI   C1B17173  12.044   4.144   6.654  0.0575  0.1717  0.1305
 1094loPI   C2B17174  11.845   4.126   7.061  0.1095  0.2206 -0.0281
 1094loPI   C3B17175  11.819   4.149   7.487 -0.2044 -0.1701 -0.1756
 1094loPI   C4B17176  11.939   4.478   7.900 -0.1388 -0.0805  0.0974
 1095loPI    C117177   1.169   9.493   5.471  0.0050  0.0596  0.0137
 1095loPI    C217178   0.828   9.685   5.559 -0.0075  0.0071  0.0802
 1095loPI    C317179   0.867   9.495   5.209 -0.0403  0.0279  0.0653
 1095loPI   PO417180   1.233   9.455   5.649 -0.2549 -0.0095 -0.1354
 1095loPI   GL117181   1.172   9.172   5.929 -0.0839  0.1040 -0.0175
 1095loPI   GL217182   0.977   9.315   6.075  0.1040 -0.0328  0.2749
 1095loPI   C1A17183   1.406   9.039   6.252 -0.3143 -0.0689  0.3663
 1095loPI   C2A17184   1.613   9.012   6.634  0.1935 -0.1494  0.1382
 1095loPI   C3A17185   1.795   8.925   7.025 -0.0300 -0.1994  0.2059
 1095loPI   C4A17186   1.896   8.818   7.355 -0.0170  0.1215 -0.0183
 1095loPI   C5A17187   1.709   8.616   7.730  0.3944  0.0131 -0.0193
 1095loPI   C6A17188   1.498   8.782   8.109  0.1907  0.0220 -0.0916
 1095loPI   C1B17189   1.047   9.330   6.498 -0.1024  0.4631 -0.0898
 1095loPI   C2B17190   1.010   9.272   6.890  0.0553 -0.1727 -0.2132
 1095loPI   C3B17191   0.866   9.122   7.292  0.2278 -0.0485 -0.0057
 1095loPI   C4B17192   0.746   9.091   7.595 -0.1557  0.0171  0.0714
 1096loPI    C117193   2.763  14.473   4.955 -0.0457  0.0522 -0.0768
 1096loPI    C217194   2.405  14.312   5.032  0.0088  0.0345  0.1487
 1096loPI    C317195   2.540  14.331   4.656 -0.1641 -0.0942  0.0788
 1096loPI   PO417196   2.917  14.302   5.215  0.1979 -0.1079  0.0461
 1096loPI   GL117197   2.938  14.269   5.704  0.2045  0.1357 -0.1792
 1096loPI   GL217198   2.937  14.556   5.946  0.0146 -0.1027  0.2025
 1096loPI   C1A17199   3.125  14.125   6.113 -0.1052 -0.1640 -0.2273
 1096loPI   C2A17200   3.161  14.040   6.516 -0.0832  0.0528  0.1059
 1096loPI   C3A17201   3.113  13.903   6.909 -0.2623 -0.1620 -0.0961
 1096loPI   C4A17202   3.061  13.905   7.303 -0.0150  0.1749 -0.0865
 1096loPI   C5A17203   3.077  13.819   7.713  0.0675  0.0330 -0.1207
 1096loPI   C6A17204   3.249  13.878   8.165 -0.0522 -0.0757 -0.2538
 1096loPI   C1B17205   3.037  14.517   6.428 -0.2218 -0.2389  0.0737
 1096loPI   C2B17206   3.077  14.540   6.958  0.1352  0.1451 -0.2575
 1096loPI   C3B17207   2.973  14.397   7.408  0.3702 -0.2386 -0.0586
 1096loPI   C4B17208   3.093  14.684   7.668 -0.0250  0.1339 -0.3063
 1097loPI    C117209  11.065  14.134   4.950  0.0675 -0.1276 -0.1023
 1097loPI    C217210  11.291  14.179   4.623  0.0092 -0.1199 -0.1416
 1097loPI    C317211  10.910  14.061   4.588 -0.0194 -0.0460 -0.0819
 1097loPI   PO417212  11.144  13.975   5.131 -0.4466 -0.1119  0.0078
 1097loPI   GL117213  11.214  13.977   5.534 -0.4314 -0.2382  0.0279
 1097loPI   GL217214  11.019  14.120   5.831 -0.1287 -0.0146  0.0703
 1097loPI   C1A17215  11.445  14.014   6.018 -0.2034  0.0342 -0.0347
 1097loPI   C2A17216  11.587  14.003   6.503 -0.1971 -0.1704  0.2698
 1097loPI   C3A17217  11.483  14.012   6.899 -0.0176 -0.2833 -0.0879
 1097loPI   C4A17218  11.494  13.985   7.315  0.0412  0.2549  0.4499
 1097loPI   C5A17219  11.318  13.838   7.775 -0.1640 -0.2957  0.0250
 1097loPI   C6A17220  11.121  13.782   8.148 -0.1407 -0.1143  0.0020
 1097loPI   C1B17221  10.994  14.005   6.294 -0.1329 -0.1601  0.2027
 1097loPI   C2B17222  10.983  13.969   6.886 -0.2726  0.1386  0.1457
 1097loPI   C3B17223  10.973  13.958   7.370 -0.0996 -0.2816 -0.1416
 1097loPI   C4B17224  10.944  14.194   7.863 -0.1777 -0.1250 -0.0350
 1098loPI    C117225  11.480   3.949   5.196  0.0459  0.1978  0.1615
 1098loPI    C217226  11.410   4.140   4.852  0.2619 -0.2305 -0.1300
 1098loPI    C317227  11.741   4.219   5.061  0.1655 -0.0212 -0.0536
 1098loPI   PO417228  11.332   4.013   5.391 -0.1252 -0.0696  0.0436
 1098loPI   GL117229  11.227   3.965   5.809 -0.0489 -0.1837  0.0610
 1098loPI   GL217230  11.237   4.213   5.880  0.2631  0.0650 -0.1300
 1098loPI   C1A17231  11.133   3.832   6.180 -0.0713  0.3089 -0.2271
 1098loPI   C2A17232  11.133   3.877   6.710 -0.0678  0.0607 -0.1054
 1098loPI   C3A17233  10.976   3.938   7.139  0.3297 -0.2503 -0.0148
 1098loPI   C4A17234  10.748   3.859   7.500  0.2135  0.0512 -0.2525
 1098loPI   C5A17235  10.606   3.774   7.915  0.0096 -0.0922  0.1062
 1098loPI   C6A17236  10.594   3.558   8.285 -0.0040  0.0134  0.1040
 1098loPI   C1B17237  11.111   4.331   6.301 -0.3942  0.0063 -0.0258
 1098loPI   C2B17238  10.884   4.379   6.849 -0.3473 -0.0040  0.1215
 1098loPI   C3B17239  10.701   4.322   7.273  0.0373 -0.0047 -0.0003
 1098loPI   C4B17240  10.666   4.339   7.722 -0.1029  0.1111  0.2430
 1099loPI    C117241   2.169  14.751   5.102 -0.1690  0.3244  0.0973
 1099loPI    C217242   1.963  14.969   4.838  0.0517  0.2211 -0.1649
 1099loPI    C317243   2.323  14.826   4.741 -0.0864 -0.2597  0.0010
 1099loPI   PO417244   2.207  14.846   5.323 -0.0914  0.1185 -0.4329
 1099loPI   GL117245   1.991  14.917   5.690 -0.2635  0.0529 -0.0802
 1099loPI   GL217246   1.682  15.022   5.752 -0.0736  0.3028 -0.4800
 1099loPI   C1A17247   1.966  14.842   6.163  0.0515  0.1145  0.0469
 1099loPI   C2A17248   2.119  14.846   6.559  0.1488 -0.0554 -0.1846
 1099loPI   C3A17249   2.139  14.765   6.921  0.0247  0.2318 -0.0634
 1099loPI   C4A17250   1.895  14.829   7.295 -0.1892 -0.2178 -0.0133
 1099loPI   C5A17251   1.844  14.734   7.693 -0.3973 -0.3201  0.0767
 1099loPI   C6A17252   1.795  14.711   8.178 -0.3142 -0.6068  0.1476
 1099loPI   C1B17253   1.427  15.026   6.090 -0.0873 -0.1812  0.1706
 1099loPI   C2B17254   1.576  14.909   6.542 -0.2414 -0.0751  0.1389
 1099loPI   C3B17255   1.558  14.945   6.937 -0.0213 -0.0488  0.1701
 1099loPI   C4B17256   1.353  14.904   7.317 -0.3901 -0.1216  0.0449
 1100loPI    C117257  10.684  15.634   5.148  0.0432 -0.0529  0.0929
 1100loPI    C217258  10.845  15.372   4.892  0.3030  0.2345 -0.0451
 1100loPI    C317259  10.694  15.717   4.757 -0.2226  0.0758  0.1110
 1100loPI   PO417260  10.844  15.679   5.299  0.0036  0.0537 -0.1804
 1100loPI   GL117261  10.972  15.877   5.724 -0.1630  0.1527 -0.2954
 1100loPI   GL217262  11.201  16.110   5.732  0.0917 -0.1751 -0.0910
 1100loPI   C1A17263  11.193  15.785   6.104 -0.1299  0.1726  0.0400
 1100loPI   C2A17264  11.085  15.787   6.464 -0.2959 -0.2067  0.4390
 1100loPI   C3A17265  11.110  15.779   6.897  0.4041  0.0943  0.1100
 1100loPI   C4A17266  11.084  15.774   7.375  0.0543 -0.0171 -0.1692
 1100loPI   C5A17267  11.130  15.687   7.831  0.1520  0.2917 -0.0500
 1100loPI   C6A17268  10.900  15.819   8.195  0.0103 -0.0872 -0.2022
 1100loPI   C1B17269  10.957  16.210   6.121  0.1541 -0.0023 -0.1211
 1100loPI   C2B17270  10.890  16.222   6.607  0.0238  0.0281  0.0543
 1100loPI   C3B17271  10.891  16.186   6.959  0.0925 -0.1641  0.1684
 1100loPI   C4B17272  10.931  16.249   7.304 -0.0899 -0.0362 -0.2337
 1101loPI    C117273   0.090   5.995   5.092  0.1835  0.1245 -0.0351
 1101loPI    C217274  -0.026   5.658   4.910 -0.0322  0.1409  0.0685
 1101loPI    C317275   0.278   5.872   4.761 -0.1867  0.1391 -0.2560
 1101loPI   PO417276   0.030   5.933   5.389 -0.0794 -0.0717  0.0088
 1101loPI   GL117277  -0.101   5.834   5.744  0.1159 -0.3653 -0.0411
 1101loPI   GL217278  -0.176   5.508   5.846  0.2140 -0.4560 -0.1801
 1101loPI   C1A17279  -0.243   5.893   6.232 -0.0693 -0.0051  0.3401
 1101loPI   C2A17280  -0.148   5.782   6.680  0.2016 -0.0711 -0.0129
 1101loPI   C3A17281  -0.118   5.839   7.071 -0.0863  0.0694 -0.1468
 1101loPI   C4A17282  -0.196   5.832   7.462  0.0652 -0.1100  0.3178
 1101loPI   C5A17283  -0.278   5.995   7.781  0.1200 -0.0161 -0.0677
 1101loPI   C6A17284  -0.501   6.183   8.028  0.2195 -0.0242  0.2761
 1101loPI   C1B17285  -0.171   5.351   6.254 -0.3128  0.2294 -0.1422
 1101loPI   C2B17286  -0.100   5.313   6.657 -0.0470 -0.0653 -0.0033
 1101loPI   C3B17287  -0.070   5.343   7.114  0.1851  0.4270 -0.0153
 1101loPI   C4B17288  -0.079   5.355   7.571  0.2951  0.0536 -0.1008
 1102loPI    C117289  15.917   2.330   5.569  0.0480 -0.1207  0.0156
 1102loPI    C217290  15.932   2.728   5.606  0.0877 -0.1109 -0.1008
 1102loPI    C317291  15.926   2.561   5.242 -0.2675 -0.2040 -0.0559
 1102loPI   PO417292  15.781   2.211   5.816 -0.1410 -0.1006  0.3759
 1102loPI   GL117293  15.489   2.410   6.113  0.0140  0.0211  0.1710
 1102loPI   GL217294  15.504   2.040   6.260  0.0927  0.1662  0.0623
 1102loPI   C1A17295  15.393   2.762   6.497  0.1148  0.0969 -0.1431
 1102loPI   C2A17296  15.491   2.923   6.893 -0.3008 -0.2069 -0.0479
 1102loPI   C3A17297  15.742   3.076   7.150 -0.1723  0.0811 -0.1406
 1102loPI   C4A17298  16.087   3.087   7.443  0.2398  0.2328  0.0355
 1102loPI   C5A17299  16.360   3.172   7.856 -0.1076 -0.2374  0.1911
 1102loPI   C6A17300  16.659   3.098   8.181  0.0931 -0.0345  0.0647
 1102loPI   C1B17301  15.490   2.264   6.607 -0.4355  0.0483 -0.1911
 1102loPI   C2B17302  15.311   2.452   6.948  0.4226  0.2652 -0.0092
 1102loPI   C3B17303  15.277   2.266   7.404 -0.0394 -0.0597 -0.0997
 1102loPI   C4B17304  15.166   2.067   7.774  0.0483 -0.1348 -0.1335
 1103loPI    C117305  11.554  16.609   5.277  0.0280  0.1398 -0.0412
 1103loPI    C217306  11.821  16.380   5.087  0.0035  0.1291 -0.0623
 1103loPI    C317307  11.530  16.562   4.881  0.0557  0.2238 -0.0532
 1103loPI   PO417308  11.498  16.519   5.527 -0.0714  0.3790  0.1177
 1103loPI   GL117309  11.743  16.336   5.776  0.1727  0.1183  0.2044
 1103loPI   GL217310  11.789  16.656   5.999  0.0732 -0.1211  0.0690
 1103loPI   C1A17311  11.539  16.271   6.166 -0.1408  0.0107  0.2966
 1103loPI   C2A17312  11.396  16.170   6.539 -0.1709  0.0061 -0.1398
 1103loPI   C3A17313  11.479  16.169   6.922 -0.0904  0.0292 -0.0187
 1103loPI   C4A17314  11.382  16.126   7.253  0.1796 -0.0581 -0.1386
 1103loPI   C5A17315  11.210  16.136   7.698 -0.0473 -0.2073  0.2998
 1103loPI   C6A17316  11.288  16.187   8.063 -0.0586 -0.1007  0.1516
 1103loPI   C1B17317  11.765  16.591   6.474  0.1009 -0.1500 -0.1689
 1103loPI   C2B17318  11.816  16.545   6.843  0.0477  0.0417 -0.3597
 1103loPI   C3B17319  11.693  16.549   7.268 -0.1771 -0.1399 -0.1110
 1103loPI   C4B17320  11.635  16.426   7.670 -0.3187  0.1107 -0.0798
 1104loPI    C117321  15.814  15.107   5.584 -0.1210 -0.0012 -0.0615
 1104loPI    C217322  15.558  15.379   5.440  0.0907  0.1629 -0.1333
 1104loPI    C317323  15.631  15.044   5.234 -0.0872  0.1014 -0.0981
 1104loPI   PO417324  15.808  15.009   5.860  0.0559  0.0834  0.1523
 1104loPI   GL117325  15.677  15.248   6.275 -0.1289 -0.1237 -0.1554
 1104loPI   GL217326  15.848  15.512   6.450 -0.0642 -0.0030 -0.0161
 1104loPI   C1A17327  15.577  15.046   6.629 -0.0350  0.2534 -0.0517
 1104loPI   C2A17328  15.215  14.915   6.846 -0.0197  0.3963 -0.1285
 1104loPI   C3A17329  15.059  15.073   7.272 -0.1910  0.1695 -0.1395
 1104loPI   C4A17330  15.016  15.017   7.692  0.0961  0.1423  0.0695
 1104loPI   C5A17331  15.319  14.828   8.146 -0.0198  0.0156 -0.0558
 1104loPI   C6A17332  15.108  15.029   8.569  0.0364  0.0896  0.0124
 1104loPI   C1B17333  15.845  15.452   6.882 -0.2695 -0.0605  0.2438
 1104loPI   C2B17334  15.939  15.292   7.248 -0.0136  0.3213 -0.0880
 1104loPI   C3B17335  16.039  15.396   7.603 -0.2389  0.0563  0.3258
 1104loPI   C4B17336  16.214  15.227   7.942  0.0533 -0.0213 -0.1502
 1105loPI    C117337   2.180  12.097   5.253 -0.2739 -0.0392  0.0044
 1105loPI    C217338   2.495  11.908   5.094 -0.1874  0.2122 -0.1293
 1105loPI    C317339   2.125  11.811   4.978 -0.1507  0.0440 -0.1086
 1105loPI   PO417340   2.268  12.014   5.606  0.3132 -0.1753  0.0000
 1105loPI   GL117341   2.355  12.301   5.984  0.0910  0.3799 -0.1447
 1105loPI   GL217342   2.753  12.243   5.959  0.0165 -0.0815 -0.0665
 1105loPI   C1A17343   2.543  12.254   6.412  0.0788  0.2464  0.0318
 1105loPI   C2A17344   2.592  12.146   6.876  0.0718 -0.1121  0.0657
 1105loPI   C3A17345   2.599  12.193   7.338 -0.0159  0.1316  0.0663
 1105loPI   C4A17346   2.714  12.337   7.640  0.3614 -0.0402  0.0770
 1105loPI   C5A17347   3.096  12.335   7.880 -0.2142 -0.0198  0.1628
 1105loPI   C6A17348   3.453  12.226   8.003  0.1918 -0.4942  0.1091
 1105loPI   C1B17349   3.075  12.398   6.176 -0.0504  0.0741  0.1916
 1105loPI   C2B17350   3.056  12.595   6.570 -0.1220 -0.1467  0.1143
 1105loPI   C3B17351   2.896  12.560   6.964  0.1076 -0.2202 -0.1628
 1105loPI   C4B17352   3.005  12.547   7.347 -0.0646 -0.1796  0.2188
 1106loPI    C117353   1.921  10.110   5.410  0.1775 -0.1352 -0.0342
 1106loPI    C217354   1.702  10.028   5.085  0.0655 -0.0943  0.0304
 1106loPI    C317355   2.083  10.144   5.045  0.1343 -0.3480 -0.0744
 1106loPI   PO417356   1.689  10.207   5.635  0.0309 -0.1026 -0.3198
 1106loPI   GL117357   1.523  10.294   5.957  0.2222  0.2609 -0.5597
 1106loPI   GL217358   1.145  10.275   6.020 -0.2951  0.1625  0.4059
 1106loPI   C1A17359   1.633  10.540   6.292 -0.4704 -0.2323 -0.2360
 1106loPI   C2A17360   1.655  10.511   6.749 -0.2905 -0.1138  0.0795
 1106loPI   C3A17361   1.710  10.444   7.110 -0.0904  0.0721 -0.0676
 1106loPI   C4A17362   1.462  10.216   7.497  0.0265 -0.1305 -0.0470
 1106loPI   C5A17363   1.505   9.770   7.762 -0.2455  0.0925  0.2112
 1106loPI   C6A17364   1.520   9.330   7.907  0.2988  0.1919  0.0271
 1106loPI   C1B17365   1.259  10.244   6.484 -0.0716 -0.1189  0.0456
 1106loPI   C2B17366   1.472  10.065   6.882  0.1178 -0.1275  0.0011
 1106loPI   C3B17367   1.836   9.966   7.085  0.0374  0.4391  0.0631
 1106loPI   C4B17368   1.980  10.080   7.520  0.1154 -0.3140 -0.0021
 1107loPI    C117369  16.702   8.687   5.205  0.0198  0.0722  0.2027
 1107loPI    C217370  16.871   8.329   5.150 -0.2610 -0.0478  0.1009
 1107loPI    C317371  16.837   8.583   4.844  0.4547  0.3038  0.2925
 1107loPI   PO417372  16.498   8.609   5.393  0.1303 -0.0094 -0.0135
 1107loPI   GL117373  16.498   8.490   5.766  0.0285 -0.0945 -0.0357
 1107loPI   GL217374  16.866   8.348   5.730  0.0867  0.1777 -0.0853
 1107loPI   C1A17375  16.443   8.649   6.158 -0.4122 -0.4966 -0.1607
 1107loPI   C2A17376  16.516   8.658   6.562 -0.0667 -0.0141 -0.0114
 1107loPI   C3A17377  16.523   8.525   6.976 -0.0773  0.0851  0.2585
 1107loPI   C4A17378  16.529   8.490   7.306  0.1074 -0.2636 -0.1000
 1107loPI   C5A17379  16.480   8.292   7.672 -0.1598 -0.0743  0.1611
 1107loPI   C6A17380  16.788   8.041   7.947  0.2216  0.2746  0.0431
 1107loPI   C1B17381  16.942   8.445   6.219  0.2274  0.0510  0.0774
 1107loPI   C2B17382  16.964   8.344   6.671  0.1089 -0.1994 -0.1133
 1107loPI   C3B17383  16.973   8.274   7.091  0.0271  0.1463 -0.1037
 1107loPI   C4B17384  16.968   8.257   7.524 -0.0942  0.3486 -0.0523
 1108loPI    C117385   0.534  10.254   5.144  0.0327  0.3670  0.2522
 1108loPI    C217386   0.300  10.495   4.927  0.0735  0.0422 -0.1635
 1108loPI    C317387   0.649  10.368   4.778  0.1675 -0.0760  0.1512
 1108loPI   PO417388   0.325  10.169   5.331 -0.0029 -0.2638 -0.0171
 1108loPI   GL117389   0.299   9.854   5.590 -0.1167 -0.1092 -0.3156
 1108loPI   GL217390   0.082   9.766   5.664  0.4755  0.1800 -0.0535
 1108loPI   C1A17391   0.342  10.123   5.976 -0.1103  0.1033 -0.0839
 1108loPI   C2A17392   0.377  10.038   6.442  0.2639  0.2488  0.0939
 1108loPI   C3A17393   0.433  10.076   6.817  0.0373 -0.1899  0.1156
 1108loPI   C4A17394   0.287   9.964   7.295 -0.1250 -0.1395  0.0451
 1108loPI   C5A17395  -0.002   9.930   7.738 -0.0175  0.0472 -0.0854
 1108loPI   C6A17396   0.037   9.672   8.074 -0.2138  0.0810 -0.0469
 1108loPI   C1B17397   0.005   9.802   6.111  0.0092 -0.2854  0.0139
 1108loPI   C2B17398  -0.024   9.701   6.457 -0.0163 -0.0171 -0.1198
 1108loPI   C3B17399  -0.069   9.769   6.913  0.2707  0.1086 -0.0873
 1108loPI   C4B17400  -0.158   9.693   7.332 -0.1916  0.1237  0.0468
 1109loPI    C117401  14.359   8.889   5.587 -0.2547 -0.1584 -0.0972
 1109loPI    C217402  14.576   8.884   5.251  0.1790  0.2139  0.1656
 1109loPI    C317403  14.317   9.182   5.319  0.1162  0.1568  0.1782
 1109loPI   PO417404  14.384   8.654   5.702 -0.1716 -0.1045 -0.3597
 1109loPI   GL117405  14.386   8.631   6.165 -0.2660  0.0156 -0.1677
 1109loPI   GL217406  14.653   8.893   6.129 -0.0200 -0.3046  0.2505
 1109loPI   C1A17407  14.712   8.349   6.400 -0.1125 -0.0381  0.2548
 1109loPI   C2A17408  14.795   8.167   6.780  0.0712  0.0226 -0.2410
 1109loPI   C3A17409  14.773   7.963   7.157  0.2149 -0.0107 -0.1806
 1109loPI   C4A17410  14.604   7.705   7.497 -0.0805 -0.3452 -0.2266
 1109loPI   C5A17411  14.884   7.603   7.904 -0.2745 -0.1943  0.3254
 1109loPI   C6A17412  15.089   7.364   8.134 -0.3634 -0.0417 -0.1029
 1109loPI   C1B17413  14.389   9.094   6.395 -0.0143 -0.4565 -0.2118
 1109loPI   C2B17414  14.395   8.940   6.772  0.0208 -0.2059  0.0182
 1109loPI   C3B17415  14.391   8.667   7.187  0.0314 -0.1645  0.2906
 1109loPI   C4B17416  14.299   8.674   7.596 -0.2592 -0.0989 -0.3231
 1110loPI    C117417   5.651  11.604   5.012 -0.2200 -0.0320 -0.1752
 1110loPI    C217418   5.641  11.997   4.942  0.0339 -0.0528 -0.3414
 1110loPI    C317419   5.332  11.767   4.836 -0.1403  0.1088 -0.1911
 1110loPI   PO417420   5.679  11.535   5.292 -0.3257  0.3192 -0.0750
 1110loPI   GL117421   5.571  11.552   5.652 -0.0215 -0.0326  0.3230
 1110loPI   GL217422   5.842  11.272   5.766  0.1289 -0.0140 -0.0463
 1110loPI   C1A17423   5.642  11.682   6.137  0.2041 -0.0484  0.1671
 1110loPI   C2A17424   5.682  11.594   6.452  0.1507 -0.3191  0.0302
 1110loPI   C3A17425   5.629  11.615   6.876 -0.1786  0.1120 -0.2053
 1110loPI   C4A17426   5.611  11.439   7.376 -0.2039  0.0043  0.1274
 1110loPI   C5A17427   5.937  11.495   7.718  0.1113 -0.1501 -0.0404
 1110loPI   C6A17428   6.325  11.746   7.886  0.2654 -0.3670  0.1001
 1110loPI   C1B17429   5.804  11.139   6.172  0.1222 -0.3372 -0.0156
 1110loPI   C2B17430   5.808  10.992   6.465 -0.3783  0.1256 -0.0388
 1110loPI   C3B17431   5.872  11.009   6.791  0.1197 -0.0392  0.2471
 1110loPI   C4B17432   5.899  11.013   7.249 -0.4225 -0.0350  0.1180
 1111loPI    C117433   4.585   5.719   5.131  0.1194  0.0798 -0.1217
 1111loPI    C217434   4.644   5.746   4.737  0.2923 -0.0598 -0.1063
 1111loPI    C317435   4.371   5.978   4.914  0.1049 -0.1047 -0.3311
 1111loPI   PO417436   4.792   5.708   5.271 -0.0184  0.3122 -0.1471
 1111loPI   GL117437   4.861   5.835   5.564 -0.0216 -0.1313  0.0106
 1111loPI   GL217438   5.131   5.990   5.653 -0.1159  0.0516 -0.2621
 1111loPI   C1A17439   4.807   5.714   5.965 -0.1250  0.2644 -0.1960
 1111loPI   C2A17440   4.862   5.589   6.463 -0.1035 -0.1159 -0.0282
 1111loPI   C3A17441   4.778   5.531   6.893 -0.1609  0.1362 -0.2866
 1111loPI   C4A17442   4.889   5.499   7.298 -0.1829 -0.1390 -0.0995
 1111loPI   C5A17443   4.698   5.308   7.654  0.1421  0.1039 -0.2231
 1111loPI   C6A17444   4.192   5.333   7.592 -0.1642 -0.2718 -0.0948
 1111loPI   C1B17445   5.184   6.058   6.049 -0.0278 -0.0140  0.1749
 1111loPI   C2B17446   5.174   5.992   6.474 -0.0392 -0.0356 -0.0548
 1111loPI   C3B17447   5.196   6.005   6.861 -0.2448  0.1231  0.2660
 1111loPI   C4B17448   5.263   5.897   7.217  0.2645  0.4365 -0.0973
 1112loPI    C117449  13.620  14.589   5.306 -0.0607 -0.0781  0.1787
 1112loPI    C217450  13.653  14.930   5.100 -0.2562 -0.0118  0.2547
 1112loPI    C317451  13.863  14.608   4.989  0.1226  0.2027  0.3314
 1112loPI   PO417452  13.482  14.659   5.475  0.2750 -0.0083  0.1207
 1112loPI   GL117453  13.432  14.710   5.857  0.3014  0.4615 -0.2033
 1112loPI   GL217454  13.088  14.793   5.848 -0.0513  0.2201  0.1571
 1112loPI   C1A17455  13.297  14.716   6.302 -0.0338 -0.1925 -0.0813
 1112loPI   C2A17456  13.195  14.649   6.793 -0.1946  0.0754  0.0380
 1112loPI   C3A17457  13.311  14.656   7.221  0.1299  0.0581 -0.1916
 1112loPI   C4A17458  13.192  14.572   7.620  0.0714 -0.3305 -0.0871
 1112loPI   C5A17459  12.948  14.640   8.075  0.0129  0.2444  0.2552
 1112loPI   C6A17460  12.661  14.709   8.355 -0.2946  0.4203  0.1064
 1112loPI   C1B17461  12.810  14.724   6.124 -0.0093  0.4276  0.0334
 1112loPI   C2B17462  12.754  14.800   6.561 -0.0702 -0.1237 -0.0781
 1112loPI   C3B17463  12.731  14.692   7.017  0.3483 -0.1047  0.0213
 1112loPI   C4B17464  12.702  14.711   7.566 -0.2371 -0.0903  0.0193
 1113loPI    C117465  13.962  15.116   5.438 -0.1903 -0.0257 -0.0472
 1113loPI    C217466  13.953  15.515   5.413  0.0671 -0.0284 -0.2197
 1113loPI    C317467  14.270  15.313   5.276  0.1663 -0.2609  0.3244
 1113loPI   PO417468  13.797  15.065   5.729 -0.0004 -0.1515 -0.1847
 1113loPI   GL117469  13.889  14.894   6.034  0.1786  0.1743  0.2241
 1113loPI   GL217470  14.080  15.050   6.124 -0.2025  0.1569 -0.1758
 1113loPI   C1A17471  13.779  14.592   6.275  0.3171 -0.2839 -0.1500
 1113loPI   C2A17472  13.724  14.682   6.680 -0.0426  0.2622  0.1542
 1113loPI   C3A17473  13.844  14.663   7.106  0.0013  0.2133 -0.0724
 1113loPI   C4A17474  13.699  14.614   7.573 -0.3485  0.0816  0.1218
 1113loPI   C5A17475  13.896  14.710   8.012 -0.0178  0.1790 -0.0506
 1113loPI   C6A17476  14.275  14.781   8.149 -0.1215  0.0191 -0.1154
 1113loPI   C1B17477  14.045  15.151   6.605 -0.0120  0.2485  0.0667
 1113loPI   C2B17478  14.067  15.096   7.029  0.0834  0.0946  0.1541
 1113loPI   C3B17479  14.095  15.029   7.402 -0.1661 -0.0462 -0.1798
 1113loPI   C4B17480  14.180  14.701   7.549 -0.0069 -0.1572  0.1336
 1114loPI    C117481  12.166   0.375   5.263  0.0593  0.0647  0.1310
 1114loPI    C217482  12.458   0.168   5.084 -0.1076 -0.2188  0.1795
 1114loPI    C317483  12.211   0.395   4.866 -0.0211 -0.1941  0.1066
 1114loPI   PO417484  12.048   0.257   5.365 -0.1392 -0.1817  0.0945
 1114loPI   GL117485  12.008   0.233   5.802  0.0555  0.2078 -0.1067
 1114loPI   GL217486  12.326   0.148   5.984 -0.4049  0.1495  0.1732
 1114loPI   C1A17487  12.008   0.590   6.071 -0.1603 -0.2182 -0.0598
 1114loPI   C2A17488  11.946   0.663   6.450  0.0263 -0.1425  0.4386
 1114loPI   C3A17489  11.886   0.541   6.869  0.0475  0.0260  0.0263
 1114loPI   C4A17490  11.775   0.514   7.334  0.1956  0.0937  0.1835
 1114loPI   C5A17491  11.749   0.484   7.749  0.4309  0.2236  0.0860
 1114loPI   C6A17492  11.747   0.574   8.281  0.0392 -0.1967 -0.0225
 1114loPI   C1B17493  12.145   0.161   6.366  0.3283 -0.0235 -0.0912
 1114loPI   C2B17494  12.088   0.056   6.767  0.0452  0.1965  0.1292
 1114loPI   C3B17495  12.054   0.086   7.190  0.1715 -0.1815  0.1543
 1114loPI   C4B17496  12.079   0.094   7.576  0.4338 -0.0164 -0.4187
 1115loPI    C117497   9.757   7.299   5.147 -0.1940 -0.1858 -0.0340
 1115loPI    C217498   9.627   7.495   4.823 -0.1925 -0.0788  0.0297
 1115loPI    C317499   9.557   7.103   4.861 -0.2540 -0.0777 -0.0670
 1115loPI   PO417500   9.780   7.503   5.332  0.0571 -0.2038 -0.2676
 1115loPI   GL117501   9.796   7.555   5.759  0.2713 -0.1172  0.0228
 1115loPI   GL217502   9.533   7.448   5.874  0.1030  0.0199 -0.0213
 1115loPI   C1A17503  10.098   7.355   6.099 -0.3886 -0.0979  0.0759
 1115loPI   C2A17504  10.087   7.446   6.489  0.1062 -0.0250  0.0814
 1115loPI   C3A17505  10.127   7.360   6.886 -0.1169 -0.2180 -0.1260
 1115loPI   C4A17506  10.359   7.379   7.219  0.0914  0.1806 -0.3623
 1115loPI   C5A17507  10.526   7.305   7.662 -0.4485  0.2204 -0.1768
 1115loPI   C6A17508  10.749   7.067   8.006  0.1140 -0.0854 -0.0022
 1115loPI   C1B17509   9.592   7.447   6.325 -0.1811 -0.0818  0.2669
 1115loPI   C2B17510   9.515   7.392   6.800  0.1741  0.0126 -0.1905
 1115loPI   C3B17511   9.366   7.420   7.170 -0.1314 -0.0610  0.0438
 1115loPI   C4B17512   9.498   7.342   7.597 -0.0105  0.1316 -0.2141
 1116loPI    C117513  12.171   0.961   5.051 -0.0653 -0.2032 -0.1361
 1116loPI    C217514  12.518   1.147   4.983 -0.1671 -0.0373 -0.2086
 1116loPI    C317515  12.179   1.296   4.833 -0.3126 -0.0203  0.1287
 1116loPI   PO417516  12.178   0.891   5.275  0.2271  0.0030  0.2041
 1116loPI   GL117517  12.060   1.120   5.789  0.0172  0.1962  0.4184
 1116loPI   GL217518  12.244   1.378   5.834  0.0448  0.2713  0.2350
 1116loPI   C1A17519  11.793   1.082   6.230  0.0702  0.3675 -0.3149
 1116loPI   C2A17520  11.760   1.097   6.782 -0.1017  0.0699  0.0755
 1116loPI   C3A17521  11.653   0.992   7.275 -0.1388  0.3912 -0.1152
 1116loPI   C4A17522  11.585   1.101   7.733  0.1449 -0.1260  0.1840
 1116loPI   C5A17523  11.574   1.469   7.991 -0.0079 -0.2243  0.0624
 1116loPI   C6A17524  11.504   1.900   7.814  0.0166 -0.0422 -0.3218
 1116loPI   C1B17525  12.154   1.404   6.212 -0.0606 -0.0804  0.0249
 1116loPI   C2B17526  12.170   1.444   6.648 -0.2934  0.2363 -0.0669
 1116loPI   C3B17527  12.027   1.376   7.129 -0.3253  0.0037 -0.0005
 1116loPI   C4B17528  12.013   1.372   7.618 -0.0866 -0.0783 -0.2411
 1117loPI    C117529   0.050   0.234   5.180  0.2043 -0.1256 -0.0455
 1117loPI    C217530   0.141   0.399   4.827 -0.0821 -0.0457 -0.0843
 1117loPI    C317531   0.220   0.013   4.893 -0.0703 -0.0731 -0.2537
 1117loPI   PO417532   0.156   0.333   5.350 -0.3372 -0.0874  0.0217
 1117loPI   GL117533   0.243   0.241   5.715 -0.1740 -0.1620  0.0118
 1117loPI   GL217534  -0.113   0.243   5.853  0.1716 -0.0975  0.2375
 1117loPI   C1A17535   0.302   0.003   6.109  0.0272 -0.0799  0.0106
 1117loPI   C2A17536   0.407  -0.007   6.538 -0.1683  0.2330  0.3982
 1117loPI   C3A17537   0.331  -0.137   6.933 -0.1196 -0.0531  0.0118
 1117loPI   C4A17538   0.299  -0.178   7.346 -0.3376  0.0860 -0.0937
 1117loPI   C5A17539   0.307  -0.197   7.775 -0.0612  0.0104  0.2155
 1117loPI   C6A17540   0.302   0.184   8.037  0.1568 -0.0615 -0.0450
 1117loPI   C1B17541   0.040   0.412   6.194  0.0533 -0.2230 -0.2669
 1117loPI   C2B17542   0.136   0.433   6.622  0.1884  0.0639 -0.1005
 1117loPI   C3B17543   0.237   0.381   7.015 -0.0957  0.2547  0.0222
 1117loPI   C4B17544   0.099   0.221   7.522  0.0022 -0.1634  0.0553
 1118loPI    C117545   6.950   1.215   5.026  0.3537 -0.0118  0.0330
 1118loPI    C217546   7.168   0.880   5.039  0.2759 -0.0629  0.0294
 1118loPI    C317547   7.074   1.044   4.686  0.0600 -0.2048  0.0191
 1118loPI   PO417548   6.835   1.205   5.173 -0.3322  0.2174 -0.2156
 1118loPI   GL117549   6.860   1.541   5.503 -0.1041  0.1012  0.5214
 1118loPI   GL217550   6.909   1.336   5.717  0.1498  0.0730 -0.1042
 1118loPI   C1A17551   6.777   1.846   5.840  0.1344 -0.0576  0.0942
 1118loPI   C2A17552   6.688   1.885   6.277 -0.1538 -0.1661 -0.0233
 1118loPI   C3A17553   6.697   1.679   6.659  0.2272  0.0598  0.1664
 1118loPI   C4A17554   6.745   1.497   7.050  0.0092 -0.0246  0.0262
 1118loPI   C5A17555   6.830   1.332   7.479  0.2147  0.2477  0.0526
 1118loPI   C6A17556   6.914   1.390   7.914 -0.1150  0.0697  0.3525
 1118loPI   C1B17557   6.828   1.297   6.240  0.0178  0.0532 -0.0737
 1118loPI   C2B17558   6.817   1.155   6.708  0.2757  0.0385 -0.0057
 1118loPI   C3B17559   6.940   0.996   7.085  0.1108 -0.0140  0.1062
 1118loPI   C4B17560   6.794   0.809   7.486  0.0657 -0.0404  0.0705
 1119loPI    C117561  16.033   6.553   5.185  0.0102 -0.0339  0.2261
 1119loPI    C217562  15.788   6.464   4.881  0.2473  0.0487  0.0079
 1119loPI    C317563  15.646   6.653   5.204 -0.0661 -0.2912  0.0749
 1119loPI   PO417564  16.102   6.313   5.312  0.2237  0.0653  0.1770
 1119loPI   GL117565  16.263   6.188   5.732  0.1464 -0.1434  0.1751
 1119loPI   GL217566  16.487   6.101   5.996  0.2019  0.0444 -0.1045
 1119loPI   C1A17567  16.007   6.412   6.022  0.1737 -0.3640 -0.1319
 1119loPI   C2A17568  15.837   6.413   6.400  0.1864 -0.0887 -0.0734
 1119loPI   C3A17569  15.699   6.563   6.874 -0.0699 -0.0008 -0.0599
 1119loPI   C4A17570  15.862   6.540   7.285 -0.1866 -0.1196 -0.4784
 1119loPI   C5A17571  15.870   6.549   7.769 -0.1916 -0.0975  0.4918
 1119loPI   C6A17572  15.794   6.682   8.145 -0.0015 -0.1898  0.1907
 1119loPI   C1B17573  16.588   5.938   6.302  0.1902 -0.1735  0.0266
 1119loPI   C2B17574  16.720   5.975   6.766 -0.4732 -0.0739 -0.0272
 1119loPI   C3B17575  16.533   6.011   7.202 -0.0254  0.1442  0.1121
 1119loPI   C4B17576  16.490   5.951   7.641  0.0019 -0.0227 -0.1555
 1120loPI    C117577   4.546   3.410   5.100  0.0248 -0.0627  0.0965
 1120loPI    C217578   4.447   3.797   5.116  0.2049 -0.0187  0.1748
 1120loPI    C317579   4.168   3.517   5.178  0.0740  0.0976  0.1183
 1120loPI   PO417580   4.754   3.315   5.252  0.1482  0.1802  0.1167
 1120loPI   GL117581   4.741   3.059   5.661  0.1629 -0.0756  0.1392
 1120loPI   GL217582   4.524   2.885   5.723  0.0982  0.1712  0.0172
 1120loPI   C1A17583   4.912   3.274   6.077  0.3340  0.0951 -0.2415
 1120loPI   C2A17584   4.990   3.192   6.503  0.0071  0.0180 -0.1941
 1120loPI   C3A17585   5.021   3.246   6.927 -0.0481  0.0977 -0.0819
 1120loPI   C4A17586   4.865   3.251   7.394  0.0149 -0.0640 -0.0492
 1120loPI   C5A17587   4.622   3.379   7.712 -0.1165  0.1203  0.2535
 1120loPI   C6A17588   4.259   3.264   7.765 -0.1580 -0.2371  0.1083
 1120loPI   C1B17589   4.583   2.871   6.225 -0.0508  0.4166  0.1137
 1120loPI   C2B17590   4.641   2.894   6.664 -0.0891  0.2221 -0.1144
 1120loPI   C3B17591   4.664   2.826   7.111 -0.1971  0.2164 -0.2305
 1120loPI   C4B17592   4.644   2.832   7.536 -0.0304  0.0547 -0.1355
 1121loPI    C117593  15.554  15.954   5.512  0.0288 -0.1005  0.0568
 1121loPI    C217594  15.753  16.298   5.563 -0.1557  0.0071  0.0579
 1121loPI    C317595  15.939  15.949   5.621  0.0878  0.1022 -0.1344
 1121loPI   PO417596  15.363  15.984   5.747 -0.0778  0.1666  0.2185
 1121loPI   GL117597  15.277  16.206   6.211 -0.1885 -0.0454  0.1693
 1121loPI   GL217598  15.104  15.890   6.160  0.1980 -0.0889  0.2109
 1121loPI   C1A17599  15.178  16.080   6.662 -0.2333 -0.3860  0.1894
 1121loPI   C2A17600  15.199  16.007   7.057  0.0736  0.2081 -0.1658
 1121loPI   C3A17601  15.094  16.091   7.481 -0.0985 -0.0366 -0.0222
 1121loPI   C4A17602  14.966  16.062   7.872 -0.1543  0.0066  0.2728
 1121loPI   C5A17603  14.971  15.778   8.205  0.0024 -0.0146  0.0624
 1121loPI   C6A17604  15.120  15.499   8.462 -0.1479  0.0355  0.0495
 1121loPI   C1B17605  15.400  15.748   6.421 -0.0424 -0.1241 -0.0701
 1121loPI   C2B17606  15.385  15.585   6.751  0.0112 -0.0534  0.0643
 1121loPI   C3B17607  15.426  15.286   7.023  0.0372 -0.0211 -0.1646
 1121loPI   C4B17608  15.596  14.937   7.220 -0.0705  0.2160 -0.0853
 1122loPI    C117609   3.816   9.497   5.190 -0.0351  0.2583  0.2028
 1122loPI    C217610   4.141   9.538   5.420 -0.0592  0.4905  0.1973
 1122loPI    C317611   4.181   9.468   5.029 -0.0161 -0.2408  0.3191
 1122loPI   PO417612   3.693   9.314   5.422 -0.1340  0.0937  0.0514
 1122loPI   GL117613   3.841   9.275   5.806 -0.2898  0.0492 -0.1726
 1122loPI   GL217614   4.193   9.105   5.739  0.1797 -0.3849  0.1619
 1122loPI   C1A17615   3.947   9.133   6.234  0.1492  0.0152  0.1967
 1122loPI   C2A17616   4.025   9.222   6.645  0.5256  0.3502  0.1950
 1122loPI   C3A17617   4.098   9.175   7.038  0.3967 -0.0231  0.1192
 1122loPI   C4A17618   4.127   9.192   7.487 -0.0827 -0.2933  0.2343
 1122loPI   C5A17619   4.368   9.054   7.779  0.2516  0.1903  0.0180
 1122loPI   C6A17620   4.618   8.688   8.159 -0.0813  0.0360 -0.0177
 1122loPI   C1B17621   4.409   9.150   6.071 -0.0436 -0.3787  0.0027
 1122loPI   C2B17622   4.473   9.138   6.406 -0.1096 -0.0396  0.2110
 1122loPI   C3B17623   4.515   9.030   6.844 -0.3946  0.2124 -0.0944
 1122loPI   C4B17624   4.631   9.015   7.304  0.4251 -0.0455 -0.2730
 1123loPI    C117625   7.103  10.104   5.313  0.0066  0.1287  0.1399
 1123loPI    C217626   7.279  10.463   5.319  0.1136  0.0768  0.1405
 1123loPI    C317627   7.475  10.147   5.173  0.0049  0.0262  0.1030
 1123loPI   PO417628   7.000  10.068   5.543 -0.0913  0.0990  0.0920
 1123loPI   GL117629   6.963  10.078   5.924 -0.0601 -0.0483 -0.0886
 1123loPI   GL217630   6.734  10.259   6.024  0.1739 -0.1065  0.1076
 1123loPI   C1A17631   6.927  10.066   6.423 -0.1878  0.2662 -0.1609
 1123loPI   C2A17632   7.023  10.216   6.851 -0.1317 -0.0656 -0.1823
 1123loPI   C3A17633   7.107  10.166   7.242  0.0847 -0.2278 -0.2227
 1123loPI   C4A17634   7.171  10.428   7.566 -0.0610  0.2652 -0.4022
 1123loPI   C5A17635   6.979  10.618   7.938  0.0183  0.2402  0.0083
 1123loPI   C6A17636   6.823  10.547   8.403  0.0735 -0.1639  0.2373
 1123loPI   C1B17637   6.466  10.373   6.421  0.5062  0.1411  0.5000
 1123loPI   C2B17638   6.483  10.442   6.779 -0.1342  0.0139  0.0026
 1123loPI   C3B17639   6.543  10.186   7.112  0.0319 -0.1481 -0.1074
 1123loPI   C4B17640   6.717  10.283   7.580 -0.4211  0.0925  0.1065
 1124loPI    C117641   8.475  16.487   4.967 -0.0548  0.0498  0.2392
 1124loPI    C217642   8.124  16.575   4.796  0.0348  0.0352  0.0452
 1124loPI    C317643   8.457  16.763   4.678  0.1143 -0.0508  0.1308
 1124loPI   PO417644   8.364  16.424   5.261  0.0327 -0.3298  0.1052
 1124loPI   GL117645   8.495  16.374   5.635  0.0229  0.0268  0.1241
 1124loPI   GL217646   8.818  16.283   5.665  0.2511  0.2246  0.0173
 1124loPI   C1A17647   8.551  16.268   6.157 -0.1271  0.0296 -0.0040
 1124loPI   C2A17648   8.667  16.120   6.435 -0.0017 -0.1798  0.0694
 1124loPI   C3A17649   8.705  15.974   6.797  0.1337 -0.0330 -0.2417
 1124loPI   C4A17650   8.582  16.054   7.212  0.1285  0.0032  0.1726
 1124loPI   C5A17651   8.581  15.969   7.651 -0.1954  0.1024  0.3846
 1124loPI   C6A17652   8.517  16.045   8.052  0.0503 -0.1990  0.0597
 1124loPI   C1B17653   9.054  16.291   6.016 -0.2097 -0.1272  0.2842
 1124loPI   C2B17654   9.153  16.055   6.299 -0.0186 -0.0090 -0.1802
 1124loPI   C3B17655   9.203  16.008   6.706  0.0179  0.4916  0.1135
 1124loPI   C4B17656   9.170  15.982   7.179 -0.1819 -0.2522 -0.2305
 1125loPI    C117657  15.264   2.126   5.767  0.0697  0.1264 -0.1626
 1125loPI    C217658  15.123   1.773   5.645 -0.3541  0.1831  0.1413
 1125loPI    C317659  15.461   1.789   5.857 -0.1936 -0.0118 -0.0934
 1125loPI   PO417660  15.030   2.301   5.809 -0.0063 -0.4085  0.1527
 1125loPI   GL117661  14.990   2.572   6.147  0.1503  0.0832  0.3041
 1125loPI   GL217662  14.888   2.866   6.382  0.2297  0.0756 -0.1173
 1125loPI   C1A17663  15.043   2.247   6.423 -0.1820 -0.0266  0.1595
 1125loPI   C2A17664  14.818   2.087   6.788 -0.1704 -0.0783 -0.0935
 1125loPI   C3A17665  14.835   1.891   7.227 -0.0258 -0.5001 -0.1270
 1125loPI   C4A17666  14.783   1.741   7.577 -0.2214 -0.2841 -0.2372
 1125loPI   C5A17667  14.765   1.579   7.947 -0.1959 -0.0441 -0.3974
 1125loPI   C6A17668  14.771   1.296   8.333  0.0251 -0.3278  0.1564
 1125loPI   C1B17669  14.955   2.920   6.818  0.1475 -0.1608  0.2276
 1125loPI   C2B17670  15.132   2.794   7.237  0.0048  0.2819 -0.0102
 1125loPI   C3B17671  15.365   3.098   7.489  0.0168  0.1486  0.0223
 1125loPI   C4B17672  15.681   3.394   7.776 -0.1337  0.3167 -0.2748
 1126loPI    C117673  14.165   6.589   5.577 -0.1874 -0.2044 -0.0578
 1126loPI    C217674  14.309   6.218   5.620 -0.1108 -0.1917 -0.1966
 1126loPI    C317675  13.920   6.290   5.681 -0.0811 -0.2473  0.0720
 1126loPI   PO417676  14.432   6.698   5.671  0.2266 -0.0363 -0.0583
 1126loPI   GL117677  14.532   7.148   5.795 -0.0647  0.0256  0.1048
 1126loPI   GL217678  14.800   7.096   5.826 -0.0239  0.4653 -0.2492
 1126loPI   C1A17679  14.637   6.967   6.293  0.1065  0.1531  0.0115
 1126loPI   C2A17680  14.715   7.023   6.727  0.0578  0.2320 -0.0760
 1126loPI   C3A17681  15.006   6.934   7.064  0.0337 -0.0200 -0.2225
 1126loPI   C4A17682  15.335   6.634   7.142  0.1048 -0.1374 -0.2080
 1126loPI   C5A17683  15.368   6.507   7.513  0.0544  0.1515 -0.2056
 1126loPI   C6A17684  15.223   6.518   7.921 -0.0467 -0.2322  0.1678
 1126loPI   C1B17685  14.883   7.373   6.210 -0.0129 -0.1825 -0.2816
 1126loPI   C2B17686  15.128   7.364   6.732  0.3835  0.2107 -0.0060
 1126loPI   C3B17687  15.339   7.278   7.133 -0.0931 -0.2065 -0.0528
 1126loPI   C4B17688  15.619   7.080   7.332 -0.0363 -0.1487 -0.0962
 1127loPI    C117689  12.815   9.327   5.304 -0.0603 -0.0695  0.1380
 1127loPI    C217690  12.507   9.219   5.074  0.0643 -0.1762  0.0192
 1127loPI    C317691  12.822   8.976   5.112  0.0832 -0.1200  0.2334
 1127loPI   PO417692  12.676   9.360   5.537 -0.1357  0.0035  0.0375
 1127loPI   GL117693  12.408   9.497   5.922 -0.0368 -0.0896 -0.2281
 1127loPI   GL217694  12.504   9.149   6.040 -0.2812 -0.0300  0.1030
 1127loPI   C1A17695  12.127   9.528   6.237 -0.3287  0.1570 -0.0688
 1127loPI   C2A17696  11.762   9.581   6.598 -0.1637 -0.0155 -0.0126
 1127loPI   C3A17697  11.787   9.397   6.967 -0.1007 -0.0561  0.0147
 1127loPI   C4A17698  11.570   9.414   7.358 -0.1543  0.0663 -0.0646
 1127loPI   C5A17699  11.362   9.365   7.741  0.0611 -0.2801 -0.0149
 1127loPI   C6A17700  11.392   9.438   8.189 -0.2130 -0.0068 -0.0290
 1127loPI   C1B17701  12.503   9.212   6.376  0.0206  0.1761  0.1055
 1127loPI   C2B17702  12.628   9.187   6.736 -0.0494  0.2056  0.1956
 1127loPI   C3B17703  12.571   9.186   7.094  0.0043 -0.1688  0.0569
 1127loPI   C4B17704  12.569   9.114   7.505  0.0039  0.1101  0.0880
 1128loPI    C117705   8.061   7.154   5.590 -0.0440 -0.0758 -0.0211
 1128loPI    C217706   7.805   7.132   5.283 -0.0156  0.1147 -0.0597
 1128loPI    C317707   7.896   6.803   5.492  0.1260 -0.0584 -0.3862
 1128loPI   PO417708   8.260   7.230   5.525 -0.0666  0.0510  0.0395
 1128loPI   GL117709   8.481   7.433   5.805  0.0579 -0.2433 -0.2097
 1128loPI   GL217710   8.588   7.673   5.760 -0.1519  0.2635 -0.0715
 1128loPI   C1A17711   8.704   7.341   6.175 -0.1862 -0.0116 -0.0827
 1128loPI   C2A17712   8.655   7.420   6.584  0.0624  0.0398  0.0257
 1128loPI   C3A17713   8.590   7.312   7.079 -0.2136 -0.2855 -0.1967
 1128loPI   C4A17714   8.554   7.318   7.463  0.0376 -0.4068 -0.0191
 1128loPI   C5A17715   8.732   7.611   7.848 -0.0704 -0.3569  0.3022
 1128loPI   C6A17716   8.989   7.951   8.184  0.1538 -0.0828  0.0793
 1128loPI   C1B17717   8.542   7.809   6.136  0.0703 -0.0908  0.1906
 1128loPI   C2B17718   8.571   7.902   6.599 -0.0623  0.1745  0.0467
 1128loPI   C3B17719   8.436   7.806   6.982  0.1948 -0.0483 -0.1143
 1128loPI   C4B17720   8.424   7.801   7.425 -0.0719 -0.0447  0.2190
 1129loPI    C117721   5.200   6.705   4.960 -0.0577  0.0037  0.0136
 1129loPI    C217722   5.332   6.364   4.799  0.0761  0.1001 -0.0839
 1129loPI    C317723   5.342   6.702   4.586  0.2294  0.2241  0.1170
 1129loPI   PO417724   5.167   6.647   5.190  0.1384  0.0384 -0.0128
 1129loPI   GL117725   5.413   6.728   5.579  0.2743 -0.1427 -0.2398
 1129loPI   GL217726   5.151   6.529   5.691  0.0521 -0.0552  0.1466
 1129loPI   C1A17727   5.602   6.796   5.921  0.0745  0.0836  0.1357
 1129loPI   C2A17728   5.501   6.828   6.386  0.0402  0.0900  0.1826
 1129loPI   C3A17729   5.516   6.849   6.896 -0.1261  0.0628  0.0354
 1129loPI   C4A17730   5.517   6.682   7.335  0.0798  0.0818  0.3644
 1129loPI   C5A17731   5.474   6.723   7.733  0.3534  0.0624  0.1879
 1129loPI   C6A17732   5.572   6.631   8.117 -0.3055  0.4062 -0.0916
 1129loPI   C1B17733   5.166   6.585   6.075 -0.3864 -0.3275 -0.1585
 1129loPI   C2B17734   5.114   6.497   6.528  0.2614  0.0877  0.1532
 1129loPI   C3B17735   5.102   6.526   6.979 -0.1062  0.1103 -0.1686
 1129loPI   C4B17736   5.110   6.459   7.419 -0.5371 -0.1075 -0.0421
 1130loPI    C117737   6.445  12.308   5.277  0.3646 -0.1211  0.0337
 1130loPI    C217738   6.370  12.522   4.947  0.0845 -0.0748  0.1239
 1130loPI    C317739   6.073  12.328   5.131  0.2787 -0.2812  0.2260
 1130loPI   PO417740   6.504  12.476   5.544  0.1830  0.2594 -0.0865
 1130loPI   GL117741   6.313  12.576   5.787 -0.0818  0.3121 -0.4144
 1130loPI   GL217742   6.008  12.493   5.660 -0.1980  0.1419 -0.0471
 1130loPI   C1A17743   6.146  12.919   6.056 -0.4058  0.2502 -0.0209
 1130loPI   C2A17744   6.126  13.200   6.436 -0.0966  0.0795  0.2656
 1130loPI   C3A17745   6.198  13.389   6.762 -0.0524 -0.0085  0.0117
 1130loPI   C4A17746   6.258  13.499   7.207  0.0905  0.0353  0.1234
 1130loPI   C5A17747   6.180  13.577   7.592  0.0458 -0.2313 -0.0593
 1130loPI   C6A17748   6.158  13.745   7.969  0.0325  0.1381  0.3180
 1130loPI   C1B17749   5.756  12.608   6.060  0.0802 -0.2139 -0.1001
 1130loPI   C2B17750   5.924  12.752   6.438 -0.1222  0.0115 -0.0492
 1130loPI   C3B17751   5.719  12.919   6.676 -0.0141 -0.2414  0.5052
 1130loPI   C4B17752   5.690  13.377   6.589 -0.1079  0.0158 -0.2739
 1131loPI    C117753   4.009   8.726   5.471  0.0211  0.0406  0.0651
 1131loPI    C217754   4.396   8.789   5.393  0.0445 -0.0471  0.1092
 1131loPI    C317755   4.122   9.054   5.273  0.1105 -0.0247  0.0070
 1131loPI   PO417756   4.016   8.637   5.681 -0.2906  0.3758 -0.1106
 1131loPI   GL117757   4.151   8.367   5.993  0.0241 -0.1942  0.2603
 1131loPI   GL217758   4.058   8.639   6.229  0.2274 -0.2387  0.2254
 1131loPI   C1A17759   4.256   8.164   6.453  0.1695 -0.0827  0.1851
 1131loPI   C2A17760   4.268   8.093   6.925 -0.2023  0.0839  0.1166
 1131loPI   C3A17761   4.334   8.113   7.311 -0.0888 -0.1497 -0.0619
 1131loPI   C4A17762   4.525   8.116   7.675 -0.2780  0.0016 -0.0450
 1131loPI   C5A17763   4.459   8.106   8.133 -0.2308  0.1248 -0.0562
 1131loPI   C6A17764   4.458   8.255   8.475 -0.5352 -0.0952  0.2011
 1131loPI   C1B17765   4.248   8.715   6.595 -0.0346  0.1382 -0.0677
 1131loPI   C2B17766   4.245   8.643   7.017 -0.1643  0.0173  0.1618
 1131loPI   C3B17767   4.250   8.644   7.422  0.2273 -0.0340 -0.2577
 1131loPI   C4B17768   4.247   8.535   7.882 -0.0406 -0.0791 -0.1309
 1132loPI    C117769  15.363   6.276   5.134  0.0119  0.2382  0.0444
 1132loPI    C217770  15.091   6.049   4.948 -0.0170  0.0983  0.2534
 1132loPI    C317771  15.441   6.128   4.771 -0.0263 -0.0692  0.1586
 1132loPI   PO417772  15.440   6.099   5.423  0.0176 -0.0243 -0.1553
 1132loPI   GL117773  15.338   6.212   5.848  0.0637 -0.3709  0.0863
 1132loPI   GL217774  15.581   6.119   6.045 -0.0851  0.0640 -0.2454
 1132loPI   C1A17775  14.973   5.968   6.073 -0.1732 -0.3906  0.0209
 1132loPI   C2A17776  14.922   5.870   6.419 -0.0563 -0.0887  0.0685
 1132loPI   C3A17777  14.797   5.954   6.889 -0.3191 -0.1026 -0.0796
 1132loPI   C4A17778  14.607   6.105   7.270  0.1215  0.2925  0.1255
 1132loPI   C5A17779  14.270   6.343   7.294 -0.1646  0.0674 -0.1333
 1132loPI   C6A17780  13.794   6.290   7.363  0.0983 -0.2405  0.1528
 1132loPI   C1B17781  15.510   5.829   6.306  0.1864 -0.2089 -0.0551
 1132loPI   C2B17782  15.727   6.010   6.683 -0.0040  0.0345 -0.1508
 1132loPI   C3B17783  15.574   6.185   7.100 -0.0734 -0.1326  0.0413
 1132loPI   C4B17784  15.170   6.102   7.261 -0.0907 -0.0850  0.1700
 1133loPI    C117785   3.530  13.572   5.133 -0.0035 -0.1544 -0.0088
 1133loPI    C217786   3.888  13.502   4.970  0.0965 -0.1658  0.2124
 1133loPI    C317787   3.594  13.655   4.747  0.2004 -0.2744 -0.0025
 1133loPI   PO417788   3.596  13.732   5.362  0.0060  0.2365 -0.2171
 1133loPI   GL117789   3.728  13.829   5.716 -0.0152 -0.1997  0.0276
 1133loPI   GL217790   3.570  14.086   5.826 -0.0682  0.0285  0.1171
 1133loPI   C1A17791   3.859  13.512   6.026 -0.1298 -0.2800 -0.0659
 1133loPI   C2A17792   3.801  13.341   6.385  0.4463  0.0415 -0.0106
 1133loPI   C3A17793   3.704  13.302   6.824 -0.2033  0.2783  0.0893
 1133loPI   C4A17794   3.748  13.269   7.214  0.1091  0.0056 -0.1750
 1133loPI   C5A17795   3.710  13.113   7.590 -0.0853  0.3848  0.1297
 1133loPI   C6A17796   3.768  12.772   7.938  0.1065  0.1223 -0.2858
 1133loPI   C1B17797   3.478  14.415   6.269 -0.2300 -0.0368  0.0612
 1133loPI   C2B17798   3.524  14.313   6.717  0.1824 -0.1083 -0.1910
 1133loPI   C3B17799   3.426  14.227   7.139  0.0655 -0.0822 -0.0262
 1133loPI   C4B17800   3.446  14.156   7.576 -0.2682 -0.1157 -0.1384
 1134loPI    C117801  14.687   2.520   5.529 -0.1188  0.2146 -0.0386
 1134loPI    C217802  15.030   2.715   5.463  0.0296 -0.1069 -0.2476
 1134loPI    C317803  14.793   2.618   5.156 -0.2582  0.1220 -0.1035
 1134loPI   PO417804  14.605   2.622   5.789  0.2101  0.0981 -0.0884
 1134loPI   GL117805  14.533   2.246   6.083 -0.0278 -0.0741 -0.2266
 1134loPI   GL217806  14.548   1.890   6.143  0.0068 -0.2351 -0.0711
 1134loPI   C1A17807  14.614   2.443   6.481  0.1342  0.0215 -0.5616
 1134loPI   C2A17808  14.748   2.504   7.015  0.0810 -0.1700  0.2911
 1134loPI   C3A17809  14.842   2.449   7.419 -0.0315  0.1110 -0.0758
 1134loPI   C4A17810  15.117   2.600   7.794 -0.0515 -0.0940  0.0554
 1134loPI   C5A17811  15.022   2.388   8.171  0.1837  0.1706  0.1454
 1134loPI   C6A17812  14.914   2.319   8.572  0.0818 -0.1094 -0.2569
 1134loPI   C1B17813  14.621   1.731   6.462  0.1224  0.0359 -0.2878
 1134loPI   C2B17814  14.538   1.611   6.851 -0.1659  0.0784  0.0761
 1134loPI   C3B17815  14.346   1.679   7.215 -0.1015  0.2352 -0.1940
 1134loPI   C4B17816  14.312   1.765   7.685 -0.1112  0.0589 -0.1134
 1135loPI    C117817   3.614   0.582   4.673 -0.0815  0.1665  0.1198
 1135loPI    C217818   3.285   0.738   4.839  0.0170  0.2373  0.2510
 1135loPI    C317819   3.475   0.935   4.546 -0.0880  0.1702  0.1369
 1135loPI   PO417820   3.806   0.568   4.914 -0.1054  0.0122  0.3117
 1135loPI   GL117821   4.015   0.305   5.269 -0.0767  0.2118  0.0967
 1135loPI   GL217822   4.401   0.448   5.304  0.0541 -0.0731  0.1613
 1135loPI   C1A17823   3.978   0.080   5.638 -0.0747 -0.3942  0.1366
 1135loPI   C2A17824   3.971   0.157   6.044  0.0584 -0.0220  0.1299
 1135loPI   C3A17825   3.925   0.235   6.479 -0.2040  0.4836 -0.0859
 1135loPI   C4A17826   3.817   0.207   6.988 -0.0492  0.1197  0.0226
 1135loPI   C5A17827   3.885   0.318   7.393 -0.0416 -0.2795  0.3420
 1135loPI   C6A17828   3.671   0.029   7.741  0.0209 -0.1556  0.1894
 1135loPI   C1B17829   4.322   0.502   5.696  0.0956  0.2487  0.1601
 1135loPI   C2B17830   4.306   0.535   6.095 -0.1271 -0.0951 -0.0132
 1135loPI   C3B17831   4.265   0.583   6.517  0.4400 -0.0045  0.0681
 1135loPI   C4B17832   4.217   0.628   6.921  0.2322  0.5044 -0.0528
 1136loPI    C117833   7.706   2.839   4.925 -0.0917 -0.0977  0.1203
 1136loPI    C217834   7.492   3.141   4.775 -0.0479 -0.0033  0.2462
 1136loPI    C317835   7.595   2.834   4.540  0.1030  0.1883  0.0573
 1136loPI   PO417836   7.604   2.742   5.135  0.0749 -0.0532  0.0424
 1136loPI   GL117837   7.702   2.553   5.563  0.0347  0.0423  0.1147
 1136loPI   GL217838   7.532   2.312   5.523  0.0099  0.1151  0.4802
 1136loPI   C1A17839   7.880   2.517   5.976 -0.2239  0.1198 -0.1598
 1136loPI   C2A17840   7.972   2.427   6.462  0.0206  0.1001 -0.1230
 1136loPI   C3A17841   7.999   2.323   6.839 -0.2338  0.1654  0.0965
 1136loPI   C4A17842   8.045   2.405   7.286  0.1988  0.2401  0.1379
 1136loPI   C5A17843   8.110   2.478   7.643  0.0287  0.1293  0.2500
 1136loPI   C6A17844   8.307   2.679   8.008  0.0466  0.1719 -0.0640
 1136loPI   C1B17845   7.552   2.159   5.890  0.1801 -0.0163 -0.1141
 1136loPI   C2B17846   7.588   1.990   6.221  0.0508 -0.0276 -0.1733
 1136loPI   C3B17847   7.620   1.896   6.649 -0.2883  0.1772  0.1930
 1136loPI   C4B17848   7.561   1.728   7.026 -0.2798  0.0823  0.2982
 1137loPI    C117849   1.999   3.094   5.258  0.1442  0.0457  0.0438
 1137loPI    C217850   2.056   3.463   5.115  0.3514 -0.0460 -0.1144
 1137loPI    C317851   1.950   3.167   4.868 -0.0489 -0.0452  0.0499
 1137loPI   PO417852   2.186   3.073   5.410 -0.0707 -0.6289  0.1323
 1137loPI   GL117853   2.317   3.107   5.757 -0.0823 -0.2827  0.0641
 1137loPI   GL217854   2.023   2.853   5.845 -0.1471 -0.1105 -0.2953
 1137loPI   C1A17855   2.395   3.029   6.216 -0.3921  0.0092  0.1059
 1137loPI   C2A17856   2.215   3.005   6.587  0.1569  0.2202  0.0468
 1137loPI   C3A17857   2.274   3.166   6.916  0.1671  0.2690 -0.2636
 1137loPI   C4A17858   2.390   3.169   7.343  0.1269  0.0206 -0.1524
 1137loPI   C5A17859   2.566   3.443   7.628  0.0696  0.0694 -0.0157
 1137loPI   C6A17860   3.022   3.617   7.706  0.0575  0.0658 -0.0432
 1137loPI   C1B17861   1.973   2.669   6.240 -0.2199 -0.0790  0.0652
 1137loPI   C2B17862   1.854   2.653   6.686  0.1338  0.2237 -0.1787
 1137loPI   C3B17863   1.797   2.783   7.064 -0.0106  0.0780 -0.1417
 1137loPI   C4B17864   1.991   2.948   7.478  0.0786 -0.4091 -0.0839
 1138loPI    C117865   2.809   0.947   4.950  0.0368  0.0019  0.1201
 1138loPI    C217866   3.124   1.190   4.902 -0.1101  0.1753  0.0219
 1138loPI    C317867   2.940   1.035   4.582  0.0105 -0.1041  0.0851
 1138loPI   PO417868   2.650   1.146   5.191 -0.3844  0.0157 -0.1523
 1138loPI   GL117869   2.744   0.986   5.599  0.2147 -0.2563 -0.0065
 1138loPI   GL217870   2.961   1.236   5.643  0.2168  0.0666  0.0374
 1138loPI   C1A17871   2.839   0.903   6.062 -0.0027 -0.2409  0.0561
 1138loPI   C2A17872   2.810   1.029   6.483 -0.4093  0.1588  0.0055
 1138loPI   C3A17873   2.732   0.993   7.022  0.2388 -0.3398  0.0593
 1138loPI   C4A17874   2.722   1.116   7.443 -0.1325  0.2595  0.0145
 1138loPI   C5A17875   2.910   1.232   7.754 -0.0112  0.0138 -0.0384
 1138loPI   C6A17876   3.342   1.520   7.886 -0.2518  0.0240  0.0769
 1138loPI   C1B17877   3.191   1.284   5.976 -0.0675  0.0036  0.0469
 1138loPI   C2B17878   3.152   1.293   6.337 -0.1168 -0.4491  0.1495
 1138loPI   C3B17879   3.163   1.368   6.821  0.0500  0.0416  0.1452
 1138loPI   C4B17880   3.078   1.398   7.313  0.2989 -0.2073  0.0997
 1139loPI    C117881   0.376   7.330   5.407 -0.0908  0.1435  0.0432
 1139loPI    C217882   0.245   7.224   5.044  0.0950  0.0496  0.0025
 1139loPI    C317883   0.633   7.190   5.135  0.0123 -0.1626  0.2921
 1139loPI   PO417884   0.218   7.500   5.430  0.0840  0.1896 -0.1991
 1139loPI   GL117885  -0.109   7.767   5.770  0.1818 -0.0747  0.1913
 1139loPI   GL217886   0.143   7.564   5.892  0.0868 -0.3300 -0.4322
 1139loPI   C1A17887  -0.328   7.918   6.066 -0.0555  0.0641  0.0412
 1139loPI   C2A17888  -0.307   7.978   6.525 -0.0963  0.2117 -0.1610
 1139loPI   C3A17889  -0.246   8.012   7.038 -0.1150 -0.1186 -0.2092
 1139loPI   C4A17890  -0.127   7.977   7.437 -0.0252 -0.1033 -0.0481
 1139loPI   C5A17891  -0.035   8.210   7.840  0.0035 -0.0933  0.1276
 1139loPI   C6A17892   0.264   8.210   8.185 -0.0411 -0.0653 -0.3140
 1139loPI   C1B17893   0.117   7.699   6.324 -0.0481 -0.0532 -0.1514
 1139loPI   C2B17894   0.124   7.760   6.844 -0.3685  0.1839 -0.0028
 1139loPI   C3B17895   0.245   7.735   7.274 -0.3279 -0.0009  0.0289
 1139loPI   C4B17896   0.367   7.904   7.709  0.4455  0.0433 -0.0012
 1140loPI    C117897   3.573  10.801   5.021 -0.0029  0.1829 -0.2087
 1140loPI    C217898   3.893  10.628   4.855  0.1649  0.0804  0.2085
 1140loPI    C317899   3.530  10.470   4.801  0.2189  0.0361 -0.0363
 1140loPI   PO417900   3.595  10.839   5.264 -0.1266  0.1480  0.1565
 1140loPI   GL117901   3.709  10.783   5.669  0.0666  0.1336 -0.0552
 1140loPI   GL217902   3.907  11.028   5.810  0.0536  0.2406 -0.2626
 1140loPI   C1A17903   3.648  10.628   6.103 -0.0595 -0.0454 -0.2204
 1140loPI   C2A17904   3.534  10.586   6.574 -0.2301  0.1832 -0.2372
 1140loPI   C3A17905   3.594  10.672   7.014  0.2257  0.0287  0.0622
 1140loPI   C4A17906   3.560  10.526   7.457 -0.0423  0.0842  0.1111
 1140loPI   C5A17907   3.591  10.607   7.874 -0.2194 -0.1421  0.1741
 1140loPI   C6A17908   3.712  10.307   8.267  0.0630 -0.0760  0.0293
 1140loPI   C1B17909   3.911  11.049   6.311 -0.0153  0.3333  0.1750
 1140loPI   C2B17910   3.914  11.006   6.705  0.0258  0.1958  0.5848
 1140loPI   C3B17911   3.998  10.969   7.159  0.2946  0.1265  0.2477
 1140loPI   C4B17912   3.928  10.862   7.517  0.1793 -0.3569 -0.0189
 1141loPI    C117913   6.038  10.870   5.416  0.1313 -0.1470  0.0849
 1141loPI    C217914   6.310  10.624   5.256  0.0520 -0.2137  0.0518
 1141loPI    C317915   6.428  10.940   5.472  0.1638 -0.0552 -0.2344
 1141loPI   PO417916   5.782  10.666   5.539 -0.3970 -0.1514 -0.0071
 1141loPI   GL117917   5.566  10.794   5.816 -0.0725 -0.0478  0.1126
 1141loPI   GL217918   5.878  10.713   6.034  0.1428  0.1584 -0.1646
 1141loPI   C1A17919   5.440  10.770   6.246  0.0078 -0.1342  0.0449
 1141loPI   C2A17920   5.435  10.658   6.649 -0.2093 -0.1873 -0.2331
 1141loPI   C3A17921   5.527  10.613   7.047  0.0479  0.0955 -0.0141
 1141loPI   C4A17922   5.640  10.652   7.484 -0.0497 -0.0313 -0.0173
 1141loPI   C5A17923   5.605  10.618   7.932 -0.1535  0.0912  0.0151
 1141loPI   C6A17924   5.919  10.607   8.191  0.0189 -0.0883  0.1520
 1141loPI   C1B17925   5.819  10.502   6.362  0.0016 -0.3705  0.4206
 1141loPI   C2B17926   5.986  10.569   6.685  0.0925 -0.3287 -0.2406
 1141loPI   C3B17927   6.061  10.536   7.111 -0.1195 -0.0751  0.1794
 1141loPI   C4B17928   6.078  10.382   7.446  0.0017  0.1955 -0.0592
 1142loPI    C117929   0.987  14.962   4.985 -0.2110  0.0976 -0.1926
 1142loPI    C217930   1.065  15.348   5.059  0.1421 -0.0050 -0.0059
 1142loPI    C317931   0.950  15.233   4.693  0.0758  0.2694 -0.0735
 1142loPI   PO417932   1.148  14.862   5.198 -0.2290  0.2694  0.1386
 1142loPI   GL117933   1.177  14.901   5.653  0.1111 -0.1403 -0.2566
 1142loPI   GL217934   1.363  15.202   5.432  0.1613 -0.0903  0.1055
 1142loPI   C1A17935   1.340  14.580   5.912 -0.1327  0.0364 -0.2680
 1142loPI   C2A17936   1.634  14.454   6.277  0.1122  0.0172 -0.0916
 1142loPI   C3A17937   1.767  14.480   6.598 -0.0404  0.1122 -0.1861
 1142loPI   C4A17938   1.643  14.475   7.016 -0.0941 -0.2323  0.0128
 1142loPI   C5A17939   1.491  14.417   7.431  0.1401  0.5569 -0.2618
 1142loPI   C6A17940   1.414  14.596   7.876 -0.0208  0.0906 -0.4482
 1142loPI   C1B17941   1.468  15.487   5.778  0.0876 -0.0946  0.2944
 1142loPI   C2B17942   1.496  15.467   6.257 -0.1622 -0.1047 -0.0360
 1142loPI   C3B17943   1.513  15.411   6.696 -0.2100 -0.0202  0.0039
 1142loPI   C4B17944   1.415  15.413   7.125 -0.2445 -0.1484 -0.2675
 1143loPI    C117945   9.184  13.208   5.446 -0.3750  0.1057  0.0161
 1143loPI    C217946   9.133  13.202   5.049 -0.0457  0.1264 -0.0293
 1143loPI    C317947   9.038  12.881   5.267 -0.1264  0.0759 -0.1375
 1143loPI   PO417948   9.064  13.370   5.539 -0.2212 -0.0258 -0.1633
 1143loPI   GL117949   8.862  13.430   5.916 -0.2060  0.0895  0.1167
 1143loPI   GL217950   8.827  13.259   6.193  0.2447 -0.3198  0.2535
 1143loPI   C1A17951   9.142  13.662   6.162  0.1704 -0.0453  0.3149
 1143loPI   C2A17952   9.264  13.658   6.514 -0.0873 -0.0654  0.2630
 1143loPI   C3A17953   9.238  13.723   6.858  0.2802  0.1372 -0.2348
 1143loPI   C4A17954   9.339  13.687   7.313 -0.0877 -0.1561 -0.3535
 1143loPI   C5A17955   9.480  13.558   7.765  0.0366  0.1547  0.0102
 1143loPI   C6A17956   9.497  13.506   8.180 -0.2776  0.2965 -0.0306
 1143loPI   C1B17957   8.947  13.294   6.683 -0.1380  0.1056  0.2419
 1143loPI   C2B17958   8.982  13.294   7.075  0.1751  0.1598  0.1007
 1143loPI   C3B17959   9.055  13.332   7.535  0.1462  0.0234 -0.0751
 1143loPI   C4B17960   8.995  13.771   7.752 -0.1768 -0.0678  0.3493
 1144loPI    C117961  14.490  16.352   5.841 -0.0511  0.0080  0.0594
 1144loPI    C217962  14.717  16.519   5.557  0.0142 -0.1099  0.0417
 1144loPI    C317963  14.881  16.271   5.825 -0.0795 -0.1355  0.0759
 1144loPI   PO417964  14.331  16.587   5.985  0.2191  0.0217  0.2909
 1144loPI   GL117965  14.398  16.561   6.489  0.0911  0.2033  0.0242
 1144loPI   GL217966  14.398  16.845   6.446 -0.1215 -0.2831 -0.0615
 1144loPI   C1A17967  14.216  16.614   6.915  0.0368  0.2543  0.1216
 1144loPI   C2A17968  14.057  16.642   7.254  0.0829 -0.2332  0.0591
 1144loPI   C3A17969  13.986  16.426   7.603  0.0783 -0.1119  0.0407
 1144loPI   C4A17970  14.040  16.035   7.906  0.3381  0.2138 -0.2200
 1144loPI   C5A17971  14.153  15.940   8.363 -0.1094  0.0071  0.1573
 1144loPI   C6A17972  14.202  15.781   8.709  0.1733 -0.2051 -0.1376
 1144loPI   C1B17973  14.294  17.159   6.796 -0.2439 -0.0144 -0.1625
 1144loPI   C2B17974  14.286  17.126   7.175  0.0254 -0.3553 -0.1763
 1144loPI   C3B17975  14.059  17.135   7.524 -0.3063  0.0104 -0.2299
 1144loPI   C4B17976  13.868  17.314   7.938 -0.2874 -0.1716  0.1979
 1145loPI    C117977   8.460   8.363   5.076 -0.2968 -0.2127  0.0270
 1145loPI    C217978   8.330   8.644   4.823  0.1315  0.1495  0.1959
 1145loPI    C317979   8.381   8.268   4.696  0.2540  0.3053 -0.2323
 1145loPI   PO417980   8.231   8.304   5.323 -0.0170  0.1769  0.0846
 1145loPI   GL117981   7.995   8.256   5.726 -0.0296 -0.2259 -0.1976
 1145loPI   GL217982   7.938   8.523   5.909  0.0006 -0.1210  0.0284
 1145loPI   C1A17983   8.137   8.080   6.058 -0.0385 -0.0467 -0.1729
 1145loPI   C2A17984   8.078   7.964   6.467  0.0987  0.2698  0.0135
 1145loPI   C3A17985   7.995   7.969   6.838 -0.0383  0.0255 -0.0521
 1145loPI   C4A17986   7.947   7.902   7.339  0.2413  0.0980  0.2331
 1145loPI   C5A17987   7.998   7.875   7.736 -0.1564  0.0067  0.0015
 1145loPI   C6A17988   7.965   8.205   8.129  0.4888  0.0030 -0.0625
 1145loPI   C1B17989   7.975   8.435   6.389 -0.1694  0.0186  0.0265
 1145loPI   C2B17990   7.877   8.430   6.828 -0.0725 -0.0225 -0.1867
 1145loPI   C3B17991   7.903   8.374   7.257 -0.1973 -0.3226 -0.1083
 1145loPI   C4B17992   7.778   8.345   7.673  0.3217  0.1882 -0.4555
 1146loPI    C117993   4.340   2.211   5.142 -0.0157  0.1254 -0.0166
 1146loPI    C217994   4.631   1.939   5.100  0.0328  0.1705  0.0259
 1146loPI    C317995   4.412   2.047   4.784  0.0108  0.0792  0.0097
 1146loPI   PO417996   4.413   2.425   5.270 -0.0025  0.0235  0.0603
 1146loPI   GL117997   4.250   2.498   5.619 -0.0725 -0.0020 -0.0548
 1146loPI   GL217998   4.077   2.339   5.821  0.0256  0.1674 -0.3738
 1146loPI   C1A17999   4.559   2.382   6.028  0.1308  0.1681  0.2700
 1146loPI   C2A18000   4.655   2.352   6.471 -0.0228 -0.3108 -0.2530
 1146loPI   C3A18001   4.726   2.399   6.886  0.0172 -0.2039  0.0617
 1146loPI   C4A18002   4.777   2.313   7.334  0.0315  0.1395  0.1482
 1146loPI   C5A18003   4.667   2.031   7.652 -0.1230 -0.2509  0.0868
 1146loPI   C6A18004   4.791   1.641   7.739 -0.3012  0.0986  0.0662
 1146loPI   C1B18005   4.137   2.420   6.299 -0.0039  0.0468 -0.1364
 1146loPI   C2B18006   4.166   2.511   6.779  0.0457 -0.0509  0.2769
 1146loPI   C3B18007   4.200   2.580   7.223  0.2078 -0.2639 -0.1162
 1146loPI   C4B18008   4.055   2.876   7.593 -0.1481  0.2386  0.0600
 1147loPI    C118009   7.156   6.964   5.337  0.1328  0.0442  0.0788
 1147loPI    C218010   6.984   7.184   5.051 -0.2402 -0.2519  0.0668
 1147loPI    C318011   7.119   6.817   4.967  0.1668 -0.1243  0.1414
 1147loPI   PO418012   7.369   7.119   5.508 -0.1239 -0.0291  0.2130
 1147loPI   GL118013   7.595   7.134   5.843 -0.0158  0.2258 -0.0080
 1147loPI   GL218014   7.405   7.404   5.930  0.0620  0.0733 -0.0498
 1147loPI   C1A18015   7.923   7.052   6.205 -0.1046  0.0624 -0.0165
 1147loPI   C2A18016   7.875   7.101   6.675  0.1096 -0.2279  0.1076
 1147loPI   C3A18017   7.655   7.106   7.110  0.0438  0.0555 -0.1282
 1147loPI   C4A18018   7.667   7.002   7.536  0.0053  0.1494 -0.1467
 1147loPI   C5A18019   7.573   6.793   7.874  0.0437 -0.2650 -0.0083
 1147loPI   C6A18020   7.297   6.538   7.993  0.0093  0.0565  0.0394
 1147loPI   C1B18021   7.291   7.245   6.363  0.2203 -0.2933  0.1369
 1147loPI   C2B18022   7.322   7.255   6.825  0.0853  0.0933 -0.3325
 1147loPI   C3B18023   7.123   7.188   7.203 -0.0229 -0.2889  0.2991
 1147loPI   C4B18024   7.221   7.169   7.662 -0.0949 -0.0642  0.1988
 1148loPI    C118025  13.240   7.307   5.163 -0.2729  0.1428  0.0034
 1148loPI    C218026  13.183   6.963   4.966 -0.0883  0.1101  0.0053
 1148loPI    C318027  13.194   7.309   4.765  0.1013  0.0765 -0.0440
 1148loPI   PO418028  13.272   7.253   5.387  0.1736 -0.0692 -0.1731
 1148loPI   GL118029  13.512   7.022   5.620  0.2626 -0.0870 -0.1206
 1148loPI   GL218030  13.695   6.773   5.760  0.4711  0.1104 -0.2319
 1148loPI   C1A18031  13.374   7.032   6.052 -0.0287  0.0467  0.1427
 1148loPI   C2A18032  13.314   7.075   6.438  0.1474 -0.0112 -0.1288
 1148loPI   C3A18033  13.271   7.067   6.780 -0.2409 -0.0276  0.0268
 1148loPI   C4A18034  13.307   7.079   7.293 -0.1130  0.0118  0.1805
 1148loPI   C5A18035  13.239   6.929   7.730  0.1467 -0.0914  0.2525
 1148loPI   C6A18036  13.658   6.809   7.975 -0.4119  0.0389 -0.0643
 1148loPI   C1B18037  13.588   6.649   6.235 -0.2886 -0.0456 -0.0897
 1148loPI   C2B18038  13.564   6.708   6.663 -0.0634  0.1342  0.0452
 1148loPI   C3B18039  13.578   6.685   7.061 -0.0822 -0.1485  0.0356
 1148loPI   C4B18040  13.647   6.793   7.459  0.3637  0.0704 -0.0887
 1149loPI    C118041   9.624   9.608   5.444 -0.1762 -0.1993 -0.0409
 1149loPI    C218042   9.877   9.628   5.135  0.3086 -0.0383  0.3529
 1149loPI    C318043   9.729   9.275   5.249  0.1412 -0.1017 -0.0425
 1149loPI   PO418044   9.750   9.787   5.608 -0.0871 -0.2217 -0.1742
 1149loPI   GL118045   9.713   9.797   6.051 -0.1430  0.0536  0.2917
 1149loPI   GL218046   9.474   9.540   6.129 -0.1179 -0.3066  0.3226
 1149loPI   C1A18047   9.868   9.343   6.383 -0.3042 -0.0758  0.2926
 1149loPI   C2A18048  10.237   9.228   6.483  0.0008 -0.1477 -0.0495
 1149loPI   C3A18049  10.329   9.477   6.830 -0.1985 -0.3789 -0.0684
 1149loPI   C4A18050  10.298   9.593   7.223 -0.0104 -0.0082 -0.0121
 1149loPI   C5A18051  10.466   9.382   7.569  0.2461 -0.1342 -0.0684
 1149loPI   C6A18052  10.499   9.228   7.889 -0.3010  0.3232 -0.0983
 1149loPI   C1B18053   9.454   9.635   6.527  0.2081  0.3095 -0.2614
 1149loPI   C2B18054   9.371   9.339   6.841 -0.0825  0.2124 -0.0160
 1149loPI   C3B18055   9.218   9.370   7.220  0.1990  0.2496  0.0522
 1149loPI   C4B18056   8.961   9.433   7.563  0.2513 -0.0444 -0.1724
 1150loPI    C118057  11.026   5.051   5.372  0.1589 -0.1870 -0.0464
 1150loPI    C218058  11.044   5.451   5.383  0.0053 -0.1779 -0.1067
 1150loPI    C318059  11.138   5.256   5.046 -0.2134 -0.1748 -0.1710
 1150loPI   PO418060  10.875   4.985   5.530 -0.1495  0.1870 -0.1002
 1150loPI   GL118061  10.777   4.726   5.828 -0.0572 -0.0568 -0.4141
 1150loPI   GL218062  11.004   4.647   5.976 -0.0435  0.0866 -0.1898
 1150loPI   C1A18063  10.538   4.516   6.151 -0.1447  0.0501  0.2097
 1150loPI   C2A18064  10.444   4.466   6.573  0.2672  0.0299  0.1248
 1150loPI   C3A18065  10.274   4.585   6.925 -0.1302  0.1662  0.2360
 1150loPI   C4A18066  10.242   4.485   7.405  0.2153 -0.1756 -0.2825
 1150loPI   C5A18067  10.214   4.581   7.870 -0.0579  0.1660 -0.0630
 1150loPI   C6A18068   9.957   4.744   8.039 -0.1579  0.0671 -0.1653
 1150loPI   C1B18069  10.837   4.817   6.373  0.0995  0.2497  0.1411
 1150loPI   C2B18070  10.732   4.866   6.728 -0.2632 -0.2990  0.1448
 1150loPI   C3B18071  10.687   4.855   7.179 -0.5351 -0.0151 -0.2119
 1150loPI   C4B18072  10.619   4.888   7.618  0.3391  0.0639 -0.1452
 1151loPI    C118073  14.186  11.807   5.878  0.0111  0.2954  0.0739
 1151loPI    C218074  14.297  11.992   5.542 -0.1067 -0.1572 -0.2241
 1151loPI    C318075  13.917  11.875   5.590 -0.0882 -0.1066  0.0656
 1151loPI   PO418076  14.316  11.666   5.909 -0.1827 -0.0569  0.2366
 1151loPI   GL118077  14.382  11.520   6.292  0.2175 -0.4555  0.0970
 1151loPI   GL218078  14.759  11.489   6.144 -0.0868  0.1442 -0.0971
 1151loPI   C1A18079  14.239  11.486   6.684 -0.1754 -0.0573 -0.1651
 1151loPI   C2A18080  14.075  11.456   7.126 -0.2685 -0.0310  0.1007
 1151loPI   C3A18081  14.038  11.649   7.467  0.0666  0.2432  0.0754
 1151loPI   C4A18082  14.224  11.744   7.799  0.4497  0.1982  0.1833
 1151loPI   C5A18083  14.239  11.741   8.190  0.1208  0.1747  0.2358
 1151loPI   C6A18084  14.411  11.730   8.597 -0.0792 -0.1508 -0.0586
 1151loPI   C1B18085  14.788  11.441   6.584  0.0152  0.0664  0.0512
 1151loPI   C2B18086  14.926  11.345   6.980 -0.1973 -0.1086 -0.0045
 1151loPI   C3B18087  15.002  11.307   7.342 -0.0477  0.2470  0.1404
 1151loPI   C4B18088  15.214  11.367   7.721 -0.0486 -0.1497 -0.0195
 1152loPI    C118089  16.733   0.418   5.782  0.0506  0.1292 -0.1003
 1152loPI    C218090  16.511   0.188   6.023 -0.1195 -0.0091 -0.3845
 1152loPI    C318091  16.510   0.585   6.070 -0.1954 -0.0308 -0.1943
 1152loPI   PO418092  16.966   0.343   5.777 -0.0974 -0.3269 -0.2929
 1152loPI   GL118093  17.136   0.198   6.149  0.2533 -0.1384 -0.1747
 1152loPI   GL218094  16.919   0.253   6.321 -0.0023 -0.4337  0.1848
 1152loPI   C1A18095  17.281   0.560   6.469 -0.0513  0.1952  0.0917
 1152loPI   C2A18096  17.304   0.718   6.820  0.0863 -0.1442  0.3631
 1152loPI   C3A18097  17.331   0.747   7.229 -0.3140 -0.1944 -0.2979
 1152loPI   C4A18098  17.351   0.512   7.583 -0.0821 -0.2687  0.1736
 1152loPI   C5A18099  17.456   0.214   7.965  0.0270  0.3293 -0.0814
 1152loPI   C6A18100  17.517   0.129   8.457 -0.0157  0.1197  0.2413
 1152loPI   C1B18101  16.533   0.178   6.567  0.1501  0.0490  0.0064
 1152loPI   C2B18102  16.235   0.104   6.916 -0.0910 -0.2190  0.0007
 1152loPI   C3B18103  16.207   0.120   7.402  0.0903  0.2506  0.1867
 1152loPI   C4B18104  16.426   0.345   7.650  0.2412 -0.0531  0.0704
 1153loPI    C118105   5.058   0.069   5.004 -0.0813 -0.0653  0.0562
 1153loPI    C218106   5.396   0.089   5.216 -0.0804 -0.0225  0.0508
 1153loPI    C318107   5.407  -0.019   4.831 -0.0575  0.1068  0.0146
 1153loPI   PO418108   4.910  -0.010   5.225  0.0238 -0.0855 -0.0470
 1153loPI   GL118109   5.032  -0.048   5.678 -0.4721 -0.0198 -0.2046
 1153loPI   GL218110   5.313   0.210   5.726  0.3859 -0.1248  0.0036
 1153loPI   C1A18111   4.915  -0.098   6.130 -0.0860 -0.0238 -0.0335
 1153loPI   C2A18112   4.961   0.015   6.571 -0.1070  0.1681  0.0323
 1153loPI   C3A18113   4.841  -0.020   6.883  0.1093 -0.2612 -0.1872
 1153loPI   C4A18114   4.781  -0.066   7.297  0.0069  0.0702 -0.0332
 1153loPI   C5A18115   4.898   0.106   7.641 -0.1999  0.3409 -0.1088
 1153loPI   C6A18116   4.858   0.517   7.746  0.0122  0.3826  0.1961
 1153loPI   C1B18117   5.208   0.276   6.162 -0.5764 -0.1737 -0.0123
 1153loPI   C2B18118   5.316   0.347   6.552  0.1079 -0.4503  0.0843
 1153loPI   C3B18119   5.187   0.402   6.976 -0.0943  0.3035 -0.1759
 1153loPI   C4B18120   5.249   0.424   7.445  0.1142  0.1402 -0.0800
 1154loPI    C118121  16.382   0.840   5.498  0.1584 -0.1326  0.0551
 1154loPI    C218122  16.127   0.550   5.394 -0.0757  0.0680  0.0605
 1154loPI    C318123  16.279   0.793   5.114 -0.0902  0.1099  0.0889
 1154loPI   PO418124  16.246   0.866   5.778  0.1405 -0.0053 -0.0261
 1154loPI   GL118125  16.445   1.070   6.056  0.1001  0.0529 -0.1160
 1154loPI   GL218126  16.747   0.998   6.152  0.2460 -0.0747 -0.1621
 1154loPI   C1A18127  16.335   0.811   6.492  0.0427 -0.0395  0.0359
 1154loPI   C2A18128  16.283   0.692   6.867 -0.1776 -0.0601 -0.0491
 1154loPI   C3A18129  16.126   0.622   7.357 -0.1026  0.0065 -0.1090
 1154loPI   C4A18130  15.836   0.457   7.706  0.2588  0.2641  0.1174
 1154loPI   C5A18131  15.671   0.286   8.124 -0.2172  0.2168  0.1577
 1154loPI   C6A18132  15.543   0.230   8.569 -0.0715  0.0860  0.1633
 1154loPI   C1B18133  16.858   0.747   6.564  0.2680  0.1401 -0.0381
 1154loPI   C2B18134  16.737   0.634   6.823 -0.2132  0.1116  0.1360
 1154loPI   C3B18135  16.569   0.314   7.168 -0.0492 -0.0293  0.2865
 1154loPI   C4B18136  16.768  -0.034   7.239 -0.3385  0.2949 -0.2639
 1155loPI    C118137   1.970   4.485   5.144 -0.0680 -0.0634 -0.1006
 1155loPI    C218138   2.201   4.753   4.958  0.0207 -0.0621  0.0108
 1155loPI    C318139   1.975   4.502   4.744  0.2761 -0.1974 -0.1055
 1155loPI   PO418140   2.118   4.310   5.426  0.0110 -0.0489  0.1028
 1155loPI   GL118141   2.163   4.124   5.879 -0.2812 -0.0289  0.1804
 1155loPI   GL218142   1.858   3.913   5.975  0.1404 -0.3904 -0.0604
 1155loPI   C1A18143   2.213   4.044   6.291 -0.0124 -0.0100  0.2574
 1155loPI   C2A18144   2.378   4.138   6.653 -0.0995 -0.1792  0.1498
 1155loPI   C3A18145   2.456   3.873   6.839 -0.2780 -0.0576 -0.0244
 1155loPI   C4A18146   2.606   3.587   7.078  0.0770  0.1804  0.2252
 1155loPI   C5A18147   2.894   3.409   7.223  0.1940 -0.1075 -0.0153
 1155loPI   C6A18148   3.269   3.354   7.342 -0.2602  0.1276  0.0236
 1155loPI   C1B18149   2.098   3.620   6.118 -0.2145  0.0714 -0.0052
 1155loPI   C2B18150   2.317   3.551   6.456  0.2132  0.0388  0.0971
 1155loPI   C3B18151   2.675   3.273   6.550  0.0369 -0.1384 -0.1567
 1155loPI   C4B18152   3.081   3.337   6.751 -0.0454  0.0032  0.2294
 1156loPI    C118153  17.517   6.452   5.301  0.3194  0.3521 -0.2652
 1156loPI    C218154  17.254   6.637   5.062  0.0107  0.0251 -0.1881
 1156loPI    C318155  17.465   6.325   4.926  0.2264  0.1703 -0.1922
 1156loPI   PO418156  17.382   6.499   5.570 -0.1829  0.0370  0.0621
 1156loPI   GL118157  17.406   6.586   5.977  0.1671  0.0416  0.2297
 1156loPI   GL218158  17.122   6.762   5.974 -0.2346 -0.0564  0.3087
 1156loPI   C1A18159  17.512   6.571   6.423  0.0428  0.0072  0.0879
 1156loPI   C2A18160  17.538   6.489   6.882  0.1903 -0.0762 -0.2608
 1156loPI   C3A18161  17.701   6.635   7.285  0.1759 -0.1451  0.1285
 1156loPI   C4A18162  17.797   6.586   7.763 -0.1001 -0.1667 -0.3021
 1156loPI   C5A18163  18.175   6.408   7.997 -0.3072 -0.1576 -0.0602
 1156loPI   C6A18164  18.139   6.099   8.313  0.0218  0.1563  0.3596
 1156loPI   C1B18165  16.993   6.854   6.362 -0.2218  0.0572 -0.1494
 1156loPI   C2B18166  17.102   6.774   6.804 -0.0401 -0.1205 -0.0160
 1156loPI   C3B18167  17.179   6.689   7.178  0.0914  0.2232  0.2681
 1156loPI   C4B18168  17.245   6.891   7.530 -0.3526 -0.0722 -0.1046
 1157loPI    C118169   8.559   1.821   5.113 -0.2879  0.1248 -0.1232
 1157loPI    C218170   8.295   2.108   5.027 -0.2069  0.1383 -0.3344
 1157loPI    C318171   8.666   2.128   4.880 -0.1699 -0.0216 -0.2648
 1157loPI   PO418172   8.678   1.797   5.372 -0.2001  0.1412  0.1018
 1157loPI   GL118173   8.500   1.956   5.723 -0.2678  0.5549 -0.2054
 1157loPI   GL218174   8.604   2.065   5.850  0.1662 -0.0655  0.0045
 1157loPI   C1A18175   8.207   1.552   5.834  0.2901 -0.0143  0.1438
 1157loPI   C2A18176   7.918   1.117   5.991  0.1710 -0.2743 -0.1741
 1157loPI   C3A18177   7.923   0.902   6.451  0.2373  0.0541  0.0176
 1157loPI   C4A18178   7.861   0.793   6.936 -0.1082 -0.0185  0.1496
 1157loPI   C5A18179   7.920   0.705   7.361  0.0742 -0.0615  0.0288
 1157loPI   C6A18180   7.928   0.508   7.786 -0.0588  0.0601  0.1857
 1157loPI   C1B18181   8.520   2.137   6.221 -0.0865  0.0134 -0.2148
 1157loPI   C2B18182   8.488   2.167   6.671  0.2514  0.0881 -0.0319
 1157loPI   C3B18183   8.451   2.227   7.071  0.2609 -0.0820 -0.1005
 1157loPI   C4B18184   8.415   2.066   7.418 -0.1165 -0.4051  0.4274
 1158loPI    C118185  17.670   2.794   5.437 -0.1058  0.1137 -0.0991
 1158loPI    C218186  17.982   2.933   5.228  0.1082 -0.0964  0.0737
 1158loPI    C318187  17.653   2.809   5.038  0.1163  0.1537 -0.1087
 1158loPI   PO418188  17.803   2.647   5.622  0.0388  0.0667 -0.0056
 1158loPI   GL118189  18.031   2.424   5.928  0.1425  0.2169 -0.0691
 1158loPI   GL218190  18.274   2.265   5.962  0.1023 -0.3028  0.2151
 1158loPI   C1A18191  17.925   2.459   6.312  0.1938 -0.4230 -0.1864
 1158loPI   C2A18192  17.907   2.372   6.709  0.1915 -0.1101  0.1351
 1158loPI   C3A18193  17.857   2.370   7.137 -0.2930 -0.1003 -0.1874
 1158loPI   C4A18194  17.875   2.420   7.586 -0.2091 -0.1867  0.1813
 1158loPI   C5A18195  17.660   2.543   7.946  0.2394  0.0414  0.1430
 1158loPI   C6A18196  17.256   2.510   8.174 -0.1370 -0.0314  0.2975
 1158loPI   C1B18197  18.381   2.303   6.416  0.3045  0.0304 -0.1050
 1158loPI   C2B18198  18.408   2.272   6.775  0.0774  0.2314 -0.2267
 1158loPI   C3B18199  18.335   2.190   7.192  0.1947 -0.0564 -0.1043
 1158loPI   C4B18200  18.368   2.203   7.661  0.0617 -0.1720  0.2882
 1159loPI    C118201   2.136   8.425   5.228  0.0476 -0.0127 -0.0072
 1159loPI    C218202   2.365   8.178   5.012 -0.0121  0.1987 -0.3184
 1159loPI    C318203   2.329   8.562   4.906 -0.3031  0.2294 -0.1202
 1159loPI   PO418204   2.235   8.399   5.464  0.2878  0.1261 -0.0747
 1159loPI   GL118205   2.476   8.331   5.718 -0.0499 -0.0742  0.0412
 1159loPI   GL218206   2.338   8.074   5.891  0.0389  0.2488 -0.0104
 1159loPI   C1A18207   2.665   8.484   6.063  0.2572  0.1594  0.2795
 1159loPI   C2A18208   2.768   8.494   6.424  0.1418  0.0792 -0.3710
 1159loPI   C3A18209   2.761   8.533   6.725 -0.0024  0.0410  0.1700
 1159loPI   C4A18210   2.801   8.539   7.190 -0.0249  0.0344 -0.0514
 1159loPI   C5A18211   2.830   8.562   7.607  0.4038  0.0381  0.0706
 1159loPI   C6A18212   2.629   8.810   7.882  0.0796 -0.4115  0.1864
 1159loPI   C1B18213   2.375   8.020   6.278 -0.0443  0.2403 -0.2061
 1159loPI   C2B18214   2.519   7.814   6.677  0.0818  0.2869 -0.0150
 1159loPI   C3B18215   2.588   7.761   7.069  0.0497  0.1315  0.2521
 1159loPI   C4B18216   2.660   7.752   7.499 -0.1656  0.1775 -0.0818
 1160loPI    C118217  11.082  17.784   5.207 -0.3147  0.0367 -0.1708
 1160loPI    C218218  10.878  17.517   5.424 -0.1123  0.1037  0.1069
 1160loPI    C318219  11.113  17.393   5.124 -0.2572 -0.0036  0.0364
 1160loPI   PO418220  11.242  17.926   5.469  0.0467 -0.0583 -0.0543
 1160loPI   GL118221  11.255  17.906   5.975 -0.0196  0.2297  0.2375
 1160loPI   GL218222  10.986  17.622   5.873 -0.1098  0.0668 -0.2441
 1160loPI   C1A18223  11.326  17.996   6.433 -0.0439 -0.2811  0.1671
 1160loPI   C2A18224  11.193  17.929   6.853  0.0356  0.2727  0.2629
 1160loPI   C3A18225  11.234  17.972   7.291 -0.3044  0.1147 -0.1158
 1160loPI   C4A18226  11.093  17.999   7.701 -0.2210  0.2633 -0.2502
 1160loPI   C5A18227  11.331  17.852   8.132 -0.2091  0.0461 -0.0333
 1160loPI   C6A18228  11.560  17.826   8.536  0.1051  0.0041  0.0819
 1160loPI   C1B18229  10.982  17.573   6.307  0.3380 -0.1181  0.1956
 1160loPI   C2B18230  10.855  17.557   6.662 -0.0578 -0.0041  0.0755
 1160loPI   C3B18231  10.816  17.595   7.112  0.2542  0.0434 -0.2569
 1160loPI   C4B18232  10.867  17.551   7.513  0.1138  0.3474  0.0553
 1161loPI    C118233   0.346   8.260   4.984  0.1480  0.0743 -0.0983
 1161loPI    C218234   0.285   8.427   4.626 -0.0066 -0.0744 -0.1430
 1161loPI    C318235   0.288   8.029   4.662  0.2685 -0.0636 -0.0225
 1161loPI   PO418236   0.230   8.399   5.142 -0.0933  0.0851  0.0495
 1161loPI   GL118237   0.286   8.254   5.547 -0.0445  0.0503 -0.2026
 1161loPI   GL218238   0.034   8.251   5.718 -0.1783  0.3155 -0.1021
 1161loPI   C1A18239   0.485   8.015   5.916  0.1914 -0.0099 -0.2025
 1161loPI   C2A18240   0.554   7.968   6.365  0.3781 -0.0188 -0.1781
 1161loPI   C3A18241   0.643   8.004   6.795  0.0655  0.0901 -0.1733
 1161loPI   C4A18242   0.702   8.026   7.163 -0.2443 -0.1586 -0.0869
 1161loPI   C5A18243   0.877   8.022   7.557 -0.1253 -0.1685 -0.1200
 1161loPI   C6A18244   0.714   8.139   7.997 -0.0348  0.1753 -0.0222
 1161loPI   C1B18245   0.084   8.215   6.183  0.0155 -0.1997 -0.0256
 1161loPI   C2B18246   0.191   8.244   6.635  0.0171 -0.0778 -0.0285
 1161loPI   C3B18247   0.234   8.248   7.100 -0.0192 -0.1221 -0.1590
 1161loPI   C4B18248   0.309   8.371   7.533  0.2332  0.0116 -0.0418
 1162loPI    C118249  13.261   4.520   5.480  0.1490 -0.0991 -0.2252
 1162loPI    C218250  12.998   4.582   5.185  0.1693  0.0265 -0.2176
 1162loPI    C318251  13.309   4.337   5.127  0.1323 -0.0070 -0.2756
 1162loPI   PO418252  13.040   4.538   5.662 -0.1466  0.1672 -0.2734
 1162loPI   GL118253  12.969   4.576   6.124 -0.0566  0.1614 -0.0292
 1162loPI   GL218254  12.912   4.364   6.286  0.1580  0.2234 -0.2855
 1162loPI   C1A18255  12.946   4.732   6.607  0.1541  0.0907 -0.0366
 1162loPI   C2A18256  12.661   4.803   6.967 -0.0615  0.1336 -0.2877
 1162loPI   C3A18257  12.641   4.857   7.401 -0.0501  0.1893  0.1268
 1162loPI   C4A18258  12.682   5.142   7.783 -0.0747  0.0148 -0.1407
 1162loPI   C5A18259  12.630   5.564   7.945  0.3074  0.1962  0.1417
 1162loPI   C6A18260  12.280   5.757   8.259 -0.0551 -0.2203 -0.0686
 1162loPI   C1B18261  12.489   4.496   6.526 -0.1372 -0.0644 -0.0524
 1162loPI   C2B18262  12.280   4.438   6.975 -0.0869 -0.1591 -0.1097
 1162loPI   C3B18263  12.326   4.438   7.482 -0.0793  0.2158 -0.0054
 1162loPI   C4B18264  12.480   4.320   7.849  0.1201 -0.2000 -0.0417
 1163loPI    C118265   0.011  11.423   5.020  0.0442  0.0311  0.0051
 1163loPI    C218266  -0.377  11.332   4.999  0.1039 -0.1958 -0.1489
 1163loPI    C318267  -0.256  11.706   4.928 -0.0993 -0.0903  0.0448
 1163loPI   PO418268   0.086  11.342   5.233  0.1597 -0.1692  0.0640
 1163loPI   GL118269   0.044  11.356   5.732 -0.0957  0.2432  0.0368
 1163loPI   GL218270  -0.088  11.703   5.886 -0.0371 -0.0167  0.4863
 1163loPI   C1A18271   0.157  11.185   6.251  0.0916  0.2464  0.2064
 1163loPI   C2A18272   0.240  11.131   6.664 -0.0098 -0.0646 -0.1316
 1163loPI   C3A18273   0.303  11.088   7.118 -0.0589  0.1220 -0.1198
 1163loPI   C4A18274   0.161  11.088   7.515  0.0563 -0.0871  0.0278
 1163loPI   C5A18275  -0.234  11.255   7.583  0.0733  0.2157 -0.2796
 1163loPI   C6A18276  -0.686  11.285   7.635 -0.2292 -0.1760  0.0513
 1163loPI   C1B18277  -0.226  11.571   6.202  0.2464  0.1367 -0.0266
 1163loPI   C2B18278  -0.250  11.389   6.627  0.1457  0.0298 -0.1615
 1163loPI   C3B18279  -0.564  11.052   6.782  0.0116 -0.3632 -0.3922
 1163loPI   C4B18280  -0.596  10.996   7.226 -0.0241  0.0940 -0.0850
 1164loPI    C118281   3.881   8.326   5.033  0.1961  0.0218  0.1586
 1164loPI    C218282   4.017   8.695   4.959  0.2421 -0.0003  0.1336
 1164loPI    C318283   4.058   8.407   4.684  0.0298  0.0250  0.0739
 1164loPI   PO418284   3.599   8.398   5.142 -0.4538  0.1950  0.2411
 1164loPI   GL118285   3.555   8.472   5.567  0.0886 -0.0657  0.1777
 1164loPI   GL218286   3.189   8.342   5.644  0.1409 -0.0600 -0.0083
 1164loPI   C1A18287   3.601   8.258   5.967  0.2520  0.3697 -0.0955
 1164loPI   C2A18288   3.708   8.239   6.333  0.1926 -0.0246 -0.0145
 1164loPI   C3A18289   3.803   8.245   6.742  0.1448  0.0503 -0.1742
 1164loPI   C4A18290   3.678   8.198   7.095 -0.1223 -0.0814  0.1046
 1164loPI   C5A18291   3.900   8.323   7.366 -0.4540 -0.1463 -0.1109
 1164loPI   C6A18292   3.832   8.304   7.738 -0.1389 -0.0405 -0.0011
 1164loPI   C1B18293   3.202   8.560   6.018  0.0831 -0.2730 -0.0201
 1164loPI   C2B18294   3.238   8.367   6.419  0.0721 -0.1056  0.1140
 1164loPI   C3B18295   3.289   8.475   6.894 -0.1067  0.1559  0.1768
 1164loPI   C4B18296   3.328   8.515   7.312  0.2289  0.1519 -0.0721
 1165loPI    C118297   6.435  16.120   5.081  0.0045 -0.0996  0.0511
 1165loPI    C218298   6.396  15.726   5.137 -0.0541 -0.0552  0.3395
 1165loPI    C318299   6.091  15.971   5.219 -0.0240  0.0495  0.1440
 1165loPI   PO418300   6.643  16.269   5.256  0.2016  0.1253  0.0728
 1165loPI   GL118301   6.800  16.295   5.638  0.0871  0.0205 -0.0511
 1165loPI   GL218302   7.061  16.250   5.712  0.0952 -0.0964 -0.2226
 1165loPI   C1A18303   6.743  16.088   6.012 -0.0147 -0.1423 -0.0573
 1165loPI   C2A18304   6.663  16.155   6.493 -0.0775 -0.1676 -0.1188
 1165loPI   C3A18305   6.349  16.124   6.799 -0.0308 -0.2122 -0.0217
 1165loPI   C4A18306   6.372  16.116   7.247 -0.1369  0.2588  0.1186
 1165loPI   C5A18307   6.187  16.247   7.697  0.1607 -0.0623 -0.1166
 1165loPI   C6A18308   6.140  16.175   8.155 -0.0596  0.0227  0.2223
 1165loPI   C1B18309   7.048  16.495   6.038 -0.2140  0.1653  0.0298
 1165loPI   C2B18310   6.976  16.545   6.385 -0.3134  0.1082  0.2631
 1165loPI   C3B18311   6.889  16.885   6.718  0.3280  0.0838 -0.0487
 1165loPI   C4B18312   6.695  16.767   6.973  0.1207 -0.0674 -0.0534
 1166loPI    C118313   6.834   1.955   5.244 -0.0886 -0.1154 -0.0860
 1166loPI    C218314   7.129   1.719   5.112  0.0871 -0.0685  0.2110
 1166loPI    C318315   6.755   1.666   4.980  0.2065 -0.2039 -0.0816
 1166loPI   PO418316   6.894   2.196   5.315 -0.2449 -0.0610 -0.3999
 1166loPI   GL118317   7.019   2.346   5.678 -0.1896 -0.0950  0.1066
 1166loPI   GL218318   6.776   2.565   5.733  0.3006 -0.1591 -0.1621
 1166loPI   C1A18319   7.035   2.213   6.112 -0.0300  0.2932  0.2695
 1166loPI   C2A18320   7.023   2.091   6.654  0.2171  0.2057  0.1228
 1166loPI   C3A18321   7.051   1.877   6.958  0.0777 -0.0289 -0.1069
 1166loPI   C4A18322   6.925   1.836   7.384 -0.0787  0.0258  0.1844
 1166loPI   C5A18323   6.923   1.870   7.756 -0.1058 -0.0957 -0.1986
 1166loPI   C6A18324   6.588   1.720   8.035  0.1784 -0.1406  0.0447
 1166loPI   C1B18325   6.848   2.632   6.185  0.0422  0.0328  0.1388
 1166loPI   C2B18326   6.969   2.607   6.607  0.0490  0.0363  0.0542
 1166loPI   C3B18327   7.038   2.485   6.970 -0.2873 -0.2680  0.1031
 1166loPI   C4B18328   7.046   2.329   7.437 -0.1860  0.1058  0.0530
 1167loPI    C118329  13.619   2.968   5.354  0.1651 -0.1364 -0.0923
 1167loPI    C218330  13.229   3.045   5.313  0.1548 -0.0278  0.1876
 1167loPI    C318331  13.369   2.678   5.236  0.0302 -0.0179 -0.1007
 1167loPI   PO418332  13.605   2.938   5.662 -0.2386 -0.0517  0.0115
 1167loPI   GL118333  13.696   2.819   6.034  0.0945  0.1051  0.0326
 1167loPI   GL218334  13.854   2.894   6.173 -0.0972  0.1492 -0.0453
 1167loPI   C1A18335  13.334   2.818   6.328 -0.2694 -0.0685  0.0276
 1167loPI   C2A18336  13.182   2.752   6.793 -0.2160  0.0844  0.4101
 1167loPI   C3A18337  13.223   2.827   7.207 -0.1866  0.1998  0.0671
 1167loPI   C4A18338  13.090   3.087   7.570 -0.4570 -0.3346 -0.2315
 1167loPI   C5A18339  12.919   3.215   7.937  0.1866 -0.2823 -0.0915
 1167loPI   C6A18340  13.186   3.264   8.268 -0.0466  0.4685 -0.0759
 1167loPI   C1B18341  13.887   3.075   6.581  0.1338 -0.1126  0.2552
 1167loPI   C2B18342  14.131   3.090   7.014 -0.2717  0.1671  0.2271
 1167loPI   C3B18343  13.903   3.283   7.459 -0.1353 -0.2008  0.0978
 1167loPI   C4B18344  14.013   3.427   7.918  0.1033 -0.0125  0.0833
 1168loPI    C118345   6.848  14.324   4.910  0.0415 -0.2131 -0.2262
 1168loPI    C218346   7.135  14.567   4.774 -0.1076  0.1420  0.0759
 1168loPI    C318347   7.028  14.246   4.561  0.3218  0.1537 -0.1704
 1168loPI   PO418348   6.944  14.400   5.252  0.1996 -0.3133  0.0287
 1168loPI   GL118349   7.153  14.084   5.646  0.0713 -0.2984  0.0479
 1168loPI   GL218350   6.850  14.064   5.636  0.0320 -0.2736 -0.4461
 1168loPI   C1A18351   7.234  13.858   6.043 -0.0718  0.0937  0.0180
 1168loPI   C2A18352   6.953  13.761   6.389  0.2014 -0.5069  0.0231
 1168loPI   C3A18353   7.041  13.817   6.927 -0.1121 -0.1654 -0.1319
 1168loPI   C4A18354   7.012  13.788   7.336  0.3273 -0.1342 -0.2199
 1168loPI   C5A18355   7.104  13.793   7.697 -0.0538  0.2357 -0.0789
 1168loPI   C6A18356   7.375  13.878   8.061 -0.3131  0.0166  0.1528
 1168loPI   C1B18357   6.590  13.996   6.051  0.0036 -0.4082 -0.1948
 1168loPI   C2B18358   6.431  14.071   6.524 -0.0985  0.0657  0.0942
 1168loPI   C3B18359   6.353  14.273   6.871  0.1365  0.0053  0.1207
 1168loPI   C4B18360   6.278  14.499   7.278 -0.1259 -0.1349  0.0449
 1169loPI    C118361  10.104   2.187   5.163  0.0636  0.0637  0.1471
 1169loPI    C218362  10.240   2.434   4.879  0.2378 -0.3505 -0.1411
 1169loPI    C318363   9.869   2.287   4.855  0.0407  0.0743  0.1681
 1169loPI   PO418364  10.420   2.100   5.249  0.1478  0.1187  0.0807
 1169loPI   GL118365  10.466   1.962   5.638 -0.0611  0.0515 -0.2132
 1169loPI   GL218366  10.097   1.886   5.685  0.0683 -0.0223 -0.3801
 1169loPI   C1A18367  10.602   1.769   5.967  0.1377  0.0347  0.1396
 1169loPI   C2A18368  10.556   1.699   6.396  0.0629  0.2124  0.0830
 1169loPI   C3A18369  10.611   1.680   6.793 -0.2670  0.1128  0.0048
 1169loPI   C4A18370  10.431   1.604   7.112  0.1906  0.2217 -0.1943
 1169loPI   C5A18371  10.436   1.699   7.464  0.0198  0.0845  0.0004
 1169loPI   C6A18372  10.499   1.786   7.855  0.0681  0.0920 -0.2084
 1169loPI   C1B18373  10.067   1.868   6.152 -0.2381  0.0526  0.0332
 1169loPI   C2B18374  10.047   1.814   6.618  0.0345 -0.0541 -0.2890
 1169loPI   C3B18375   9.963   1.864   7.025  0.1817  0.0397  0.0804
 1169loPI   C4B18376   9.936   1.735   7.418  0.2365 -0.1951 -0.0505
 1170loPI    C118377   8.899   6.299   5.030  0.2556 -0.1600  0.0719
 1170loPI    C218378   8.529   6.163   5.094  0.2511 -0.1828 -0.0025
 1170loPI    C318379   8.584   6.526   4.935  0.2592 -0.2099 -0.0617
 1170loPI   PO418380   8.992   6.170   5.309 -0.0015 -0.2539 -0.0096
 1170loPI   GL118381   8.985   6.249   5.704  0.1360  0.0063  0.1323
 1170loPI   GL218382   8.987   5.890   5.702 -0.0003  0.0493  0.0288
 1170loPI   C1A18383   9.026   6.263   6.217  0.2084  0.2592 -0.1182
 1170loPI   C2A18384   8.861   6.289   6.644 -0.1431 -0.0812  0.1380
 1170loPI   C3A18385   8.816   6.225   7.070  0.0515  0.1938  0.1990
 1170loPI   C4A18386   8.769   6.349   7.437 -0.1345  0.0770 -0.0461
 1170loPI   C5A18387   8.844   6.632   7.879 -0.2599  0.1446  0.0585
 1170loPI   C6A18388   9.023   6.837   8.223  0.1871  0.0580  0.0586
 1170loPI   C1B18389   8.861   5.523   5.876 -0.3053  0.0609 -0.1573
 1170loPI   C2B18390   8.820   5.024   6.168 -0.1500 -0.1473 -0.0424
 1170loPI   C3B18391   8.663   4.907   6.504  0.2253 -0.0123  0.1096
 1170loPI   C4B18392   8.702   4.900   6.998  0.1817 -0.0904  0.0023
 1171loPI    C118393  10.328  12.451   5.319  0.0296 -0.0303 -0.0529
 1171loPI    C218394  10.465  12.824   5.368 -0.1387  0.0298 -0.0311
 1171loPI    C318395  10.467  12.656   5.005  0.0046  0.0245 -0.0284
 1171loPI   PO418396  10.361  12.352   5.495 -0.1133 -0.2667 -0.6376
 1171loPI   GL118397  10.224  12.435   5.962  0.0165  0.0142 -0.1057
 1171loPI   GL218398   9.996  12.456   6.216  0.3557  0.1651  0.0437
 1171loPI   C1A18399  10.478  12.551   6.279  0.3514  0.1399 -0.0254
 1171loPI   C2A18400  10.648  12.675   6.668  0.3072 -0.1529 -0.2035
 1171loPI   C3A18401  10.818  12.626   7.015  0.4678 -0.0665  0.0553
 1171loPI   C4A18402  10.846  12.581   7.392  0.2552  0.2138 -0.2246
 1171loPI   C5A18403  10.653  12.622   7.749  0.3453  0.0654 -0.2300
 1171loPI   C6A18404  10.497  12.772   8.068 -0.0827  0.0222 -0.1058
 1171loPI   C1B18405  10.040  12.572   6.589 -0.0359  0.1865 -0.2164
 1171loPI   C2B18406  10.265  12.649   6.934  0.0466  0.1678  0.0519
 1171loPI   C3B18407  10.280  12.662   7.346  0.0456  0.1586 -0.2444
 1171loPI   C4B18408  10.131  12.852   7.743 -0.2929  0.2021 -0.1086
 1172loPI    C118409  13.277  16.096   5.795  0.0224 -0.1821  0.0387
 1172loPI    C218410  13.402  15.942   5.448 -0.0615 -0.0030 -0.0725
 1172loPI    C318411  13.311  16.331   5.473 -0.4706 -0.1010  0.0365
 1172loPI   PO418412  13.053  16.011   5.857 -0.0497 -0.1663 -0.0188
 1172loPI   GL118413  13.114  15.750   6.163 -0.0174  0.3594  0.1649
 1172loPI   GL218414  13.339  15.692   6.302  0.2319  0.1509 -0.1081
 1172loPI   C1A18415  12.898  15.875   6.502  0.0755  0.1954  0.2039
 1172loPI   C2A18416  12.786  15.617   6.875 -0.0737 -0.1518  0.0653
 1172loPI   C3A18417  12.717  15.688   7.340  0.2808 -0.0645  0.1372
 1172loPI   C4A18418  12.635  15.604   7.765  0.1559 -0.1460  0.2106
 1172loPI   C5A18419  12.820  15.664   8.194 -0.1069 -0.0393  0.1863
 1172loPI   C6A18420  12.910  15.754   8.569  0.0201  0.1830 -0.2354
 1172loPI   C1B18421  13.315  15.575   6.713  0.0221 -0.0188 -0.1180
 1172loPI   C2B18422  13.256  15.485   7.136  0.1626 -0.0121 -0.2570
 1172loPI   C3B18423  13.263  15.573   7.529 -0.3261 -0.1225  0.3612
 1172loPI   C4B18424  13.218  15.780   7.924  0.2159  0.0852 -0.2095
 1173loPI    C118425   0.003  12.916   5.221  0.0741 -0.0801  0.0733
 1173loPI    C218426  -0.278  12.787   4.967 -0.0172 -0.1312  0.1993
 1173loPI    C318427   0.097  12.649   4.939  0.0534  0.1124 -0.1188
 1173loPI   PO418428  -0.060  12.922   5.432  0.1621 -0.3176  0.1248
 1173loPI   GL118429   0.167  13.119   5.806 -0.2137 -0.2045 -0.0759
 1173loPI   GL218430   0.240  13.409   5.799 -0.3363 -0.2420  0.0580
 1173loPI   C1A18431   0.066  13.151   6.216 -0.1375 -0.2343 -0.3859
 1173loPI   C2A18432   0.032  13.094   6.654  0.1643  0.1045  0.0763
 1173loPI   C3A18433   0.003  12.889   7.062  0.0395  0.2518  0.2460
 1173loPI   C4A18434   0.014  12.746   7.572 -0.1755 -0.1778  0.0652
 1173loPI   C5A18435   0.221  12.355   7.725 -0.1766 -0.0475 -0.0761
 1173loPI   C6A18436   0.051  11.835   7.852  0.4840 -0.1599 -0.1426
 1173loPI   C1B18437   0.513  13.471   6.104  0.1463  0.0003 -0.0466
 1173loPI   C2B18438   0.504  13.399   6.526  0.0528  0.1891 -0.3115
 1173loPI   C3B18439   0.393  13.304   7.027 -0.0016  0.0294 -0.0023
 1173loPI   C4B18440   0.378  13.352   7.407  0.1100  0.1461 -0.1908
 1174loPI    C118441  15.697   3.176   5.508  0.0150 -0.0544  0.0818
 1174loPI    C218442  15.298   3.190   5.492  0.0126 -0.1394  0.0660
 1174loPI    C318443  15.497   2.904   5.295  0.0738 -0.1790  0.1841
 1174loPI   PO418444  15.801   3.205   5.760  0.2904 -0.1671 -0.1549
 1174loPI   GL118445  15.596   3.086   6.188 -0.0660  0.1119  0.0876
 1174loPI   GL218446  15.845   2.866   6.073 -0.0668  0.0814  0.0739
 1174loPI   C1A18447  15.774   3.105   6.542  0.0462  0.0953  0.2011
 1174loPI   C2A18448  16.172   3.023   6.836  0.0554 -0.1531 -0.0359
 1174loPI   C3A18449  16.192   2.660   7.126  0.3380 -0.1084 -0.1914
 1174loPI   C4A18450  16.188   2.467   7.477 -0.0581 -0.0760 -0.1082
 1174loPI   C5A18451  16.057   2.206   7.841  0.4545 -0.3524 -0.4427
 1174loPI   C6A18452  15.998   2.305   8.273  0.2181 -0.2102 -0.3160
 1174loPI   C1B18453  15.888   2.647   6.411 -0.0247 -0.2149  0.1478
 1174loPI   C2B18454  15.883   2.538   6.778  0.1298 -0.0454  0.1825
 1174loPI   C3B18455  15.720   2.441   7.242 -0.0111  0.1443 -0.1399
 1174loPI   C4B18456  15.686   2.569   7.676 -0.1272 -0.0958 -0.2809
 1175loPI    C118457  10.362   1.159   5.177  0.1356  0.1982 -0.1983
 1175loPI    C218458  10.454   1.012   4.816  0.1319 -0.0373 -0.1047
 1175loPI    C318459  10.389   1.404   4.861  0.2265  0.0073 -0.3410
 1175loPI   PO418460  10.152   1.101   5.313 -0.0947  0.2676 -0.4270
 1175loPI   GL118461   9.807   1.299   5.485 -0.1175  0.1975  0.0256
 1175loPI   GL218462   9.454   1.353   5.572  0.3933  0.1393  0.1667
 1175loPI   C1A18463   9.847   1.465   5.865  0.0111  0.3990 -0.1160
 1175loPI   C2A18464   9.784   1.423   6.295 -0.0590  0.1657  0.0810
 1175loPI   C3A18465   9.740   1.467   6.711  0.0122  0.1745 -0.1483
 1175loPI   C4A18466   9.620   1.454   7.178  0.0173  0.1580  0.2772
 1175loPI   C5A18467   9.600   1.341   7.696  0.0568  0.1009  0.2503
 1175loPI   C6A18468   9.956   1.287   7.982 -0.0119 -0.0694  0.1811
 1175loPI   C1B18469   9.281   1.587   5.940  0.0011  0.0676 -0.4378
 1175loPI   C2B18470   9.162   1.584   6.415 -0.0805 -0.0086  0.2389
 1175loPI   C3B18471   9.203   1.506   6.775 -0.3003  0.1082  0.4052
 1175loPI   C4B18472   9.114   1.546   7.141 -0.2469  0.0920  0.0829
 1176loPI    C118473   4.945  12.229   5.014  0.1069 -0.1882  0.1304
 1176loPI    C218474   5.310  12.343   5.129 -0.0084  0.3296  0.0101
 1176loPI    C318475   5.242  12.244   4.747  0.0228  0.1445  0.0513
 1176loPI   PO418476   4.845  12.120   5.265  0.0138 -0.0360  0.2605
 1176loPI   GL118477   4.819  11.822   5.630 -0.0347  0.2240  0.1885
 1176loPI   GL218478   4.562  12.009   5.696  0.0757  0.1129  0.1558
 1176loPI   C1A18479   5.170  11.789   6.035  0.0298  0.0172  0.2713
 1176loPI   C2A18480   5.184  11.685   6.477 -0.0319 -0.1773  0.2619
 1176loPI   C3A18481   5.125  11.614   6.815  0.1984 -0.0261 -0.0431
 1176loPI   C4A18482   5.145  11.607   7.228  0.0839 -0.2195 -0.1222
 1176loPI   C5A18483   5.158  11.543   7.631  0.0222  0.1991 -0.0662
 1176loPI   C6A18484   5.458  11.598   7.884 -0.1659  0.0987 -0.1550
 1176loPI   C1B18485   4.554  11.846   6.172  0.0781 -0.0756  0.2261
 1176loPI   C2B18486   4.610  11.793   6.596 -0.0390  0.0979 -0.0981
 1176loPI   C3B18487   4.639  11.732   6.999  0.0336  0.2181  0.1705
 1176loPI   C4B18488   4.687  11.722   7.390  0.1067 -0.1151  0.0400
 1177loPI    C118489  10.544  11.048   5.833 -0.2461  0.2060  0.0693
 1177loPI    C218490  10.564  10.819   6.161 -0.2707 -0.0335 -0.0937
 1177loPI    C318491  10.880  10.846   5.916 -0.2789  0.0832 -0.0923
 1177loPI   PO418492  10.283  11.114   5.846  0.1604 -0.1615  0.2609
 1177loPI   GL118493  10.104  11.181   6.176  0.2048 -0.0749 -0.0176
 1177loPI   GL218494   9.778  11.255   6.211  0.2524  0.1200 -0.1507
 1177loPI   C1A18495  10.283  11.004   6.445 -0.1114 -0.4241 -0.2537
 1177loPI   C2A18496  10.284  10.918   6.816  0.0737  0.0631  0.0986
 1177loPI   C3A18497  10.304  10.899   7.274 -0.1267  0.2801 -0.0392
 1177loPI   C4A18498  10.139  10.663   7.685 -0.0192 -0.1429 -0.0634
 1177loPI   C5A18499  10.191  10.294   8.005 -0.0447  0.1840 -0.0711
 1177loPI   C6A18500   9.985   9.948   8.334 -0.1278  0.0351 -0.2562
 1177loPI   C1B18501   9.867  11.371   6.603  0.0630  0.1654 -0.0720
 1177loPI   C2B18502  10.020  11.338   7.003 -0.2789  0.1510  0.1613
 1177loPI   C3B18503   9.899  11.329   7.425  0.2250 -0.1250  0.0400
 1177loPI   C4B18504   9.398  11.327   7.578  0.0254 -0.0219  0.0856
 1178loPI    C118505  16.123   5.365   5.567 -0.0305  0.0607  0.2088
 1178loPI    C218506  15.789   5.532   5.424 -0.0410 -0.0045  0.1569
 1178loPI    C318507  15.790   5.146   5.528  0.0508 -0.0351  0.0450
 1178loPI   PO418508  16.183   5.570   5.793 -0.1687 -0.1557  0.0833
 1178loPI   GL118509  16.261   5.608   6.224 -0.1572 -0.0511  0.2123
 1178loPI   GL218510  16.033   5.890   6.181 -0.1972  0.1518  0.1523
 1178loPI   C1A18511  16.210   5.757   6.665  0.1162  0.0759 -0.4101
 1178loPI   C2A18512  16.231   5.639   7.148 -0.1592 -0.0507  0.1811
 1178loPI   C3A18513  16.036   5.645   7.537  0.3643 -0.1161 -0.1175
 1178loPI   C4A18514  16.063   5.852   7.886  0.1702 -0.0789  0.1315
 1178loPI   C5A18515  16.376   5.728   8.227 -0.0645 -0.0839 -0.0779
 1178loPI   C6A18516  16.556   5.479   8.557 -0.1154 -0.2234 -0.2877
 1178loPI   C1B18517  16.250   6.245   6.542 -0.1756  0.2727  0.3330
 1178loPI   C2B18518  16.103   6.247   6.883  0.1892  0.0770  0.3891
 1178loPI   C3B18519  16.042   6.064   7.258 -0.2517 -0.1093 -0.0149
 1178loPI   C4B18520  15.744   6.101   7.630  0.0812  0.1947 -0.1599
 1179loPI    C118521  18.162  14.410   5.520 -0.0361 -0.0293 -0.0354
 1179loPI    C218522  17.770  14.334   5.540 -0.0248 -0.0967 -0.0715
 1179loPI    C318523  17.956  14.334   5.186 -0.0128  0.0397 -0.0657
 1179loPI   PO418524  18.198  14.474   5.727  0.0494  0.0885  0.2378
 1179loPI   GL118525  18.069  14.595   6.105  0.4215 -0.1486  0.0331
 1179loPI   GL218526  18.050  14.882   6.191 -0.1150 -0.1020 -0.0783
 1179loPI   C1A18527  17.982  14.593   6.631 -0.1579  0.0351  0.2296
 1179loPI   C2A18528  17.986  14.578   7.087  0.1195 -0.2317 -0.0291
 1179loPI   C3A18529  17.972  14.665   7.476  0.2949  0.1246 -0.0129
 1179loPI   C4A18530  17.658  14.673   7.802 -0.1156 -0.1380  0.0618
 1179loPI   C5A18531  17.276  14.549   8.066  0.1310  0.0023  0.2123
 1179loPI   C6A18532  17.158  14.432   8.465 -0.1938 -0.1901  0.0802
 1179loPI   C1B18533  18.136  15.058   6.522 -0.0614  0.0047 -0.0552
 1179loPI   C2B18534  17.890  15.125   6.891 -0.0123  0.1057  0.1265
 1179loPI   C3B18535  17.845  15.162   7.204  0.0555 -0.0190  0.0538
 1179loPI   C4B18536  17.726  15.313   7.570 -0.4825 -0.0831  0.3762
 1180loPI    C118537  11.719   8.470   5.278 -0.1760  0.1573 -0.1017
 1180loPI    C218538  11.495   8.225   5.054 -0.1356  0.0176  0.0094
 1180loPI    C318539  11.892   8.237   5.001 -0.1784  0.3495 -0.2670
 1180loPI   PO418540  11.692   8.433   5.588 -0.3023 -0.0535 -0.2067
 1180loPI   GL118541  11.495   8.479   5.949 -0.1847 -0.1403 -0.3119
 1180loPI   GL218542  11.520   8.804   6.006  0.0394 -0.0171 -0.0106
 1180loPI   C1A18543  11.223   8.241   6.116  0.2409 -0.1287  0.0294
 1180loPI   C2A18544  11.213   8.047   6.492 -0.0566  0.2252  0.0899
 1180loPI   C3A18545  11.196   8.081   6.928  0.1410 -0.2090  0.1033
 1180loPI   C4A18546  11.177   8.060   7.340  0.0172  0.0794 -0.1869
 1180loPI   C5A18547  11.390   8.013   7.705  0.0297  0.2523 -0.1233
 1180loPI   C6A18548  11.647   7.781   7.941  0.2609  0.1095  0.0192
 1180loPI   C1B18549  11.417   8.604   6.384  0.2396  0.0024 -0.0328
 1180loPI   C2B18550  11.378   8.491   6.715 -0.0077 -0.1107  0.1650
 1180loPI   C3B18551  11.322   8.531   7.136  0.3652  0.0052  0.4659
 1180loPI   C4B18552  11.575   8.418   7.468 -0.1768  0.3274 -0.0691
 1181loPI    C118553   0.605  18.159   5.279  0.4660  0.1049  0.3609
 1181loPI    C218554   0.652  17.949   4.941  0.0222 -0.1515  0.4513
 1181loPI    C318555   0.934  18.208   5.056  0.1549 -0.0185 -0.1418
 1181loPI   PO418556   0.567  18.006   5.433  0.0629 -0.3634  0.0305
 1181loPI   GL118557   0.679  18.036   5.840 -0.2033  0.2904 -0.1593
 1181loPI   GL218558   0.729  18.347   5.880  0.2697 -0.1026 -0.2963
 1181loPI   C1A18559   0.851  17.965   6.233 -0.0586  0.2014  0.1431
 1181loPI   C2A18560   0.842  17.935   6.729 -0.1283  0.3472  0.2120
 1181loPI   C3A18561   0.787  17.957   7.193 -0.2779 -0.1699  0.2115
 1181loPI   C4A18562   0.796  17.876   7.580  0.2753 -0.0137  0.0997
 1181loPI   C5A18563   0.822  18.094   7.892 -0.2317  0.2947  0.0651
 1181loPI   C6A18564   0.679  18.133   8.230  0.1167  0.0771  0.2679
 1181loPI   C1B18565   0.766  18.449   6.416  0.0598 -0.0542 -0.0074
 1181loPI   C2B18566   0.716  18.437   6.846  0.1924  0.0647 -0.1270
 1181loPI   C3B18567   0.666  18.451   7.217 -0.2039  0.1781 -0.1781
 1181loPI   C4B18568   0.595  18.463   7.635  0.2136  0.2406  0.0244
 1182loPI    C118569  10.859   4.046   5.420 -0.1666 -0.2723 -0.1965
 1182loPI    C218570  10.633   4.070   5.091 -0.1651  0.0700 -0.1763
 1182loPI    C318571  10.990   4.249   5.101 -0.0777 -0.1080 -0.0572
 1182loPI   PO418572  10.779   4.195   5.593 -0.1819 -0.1102  0.0997
 1182loPI   GL118573  10.707   4.140   5.938  0.0113  0.2498  0.3186
 1182loPI   GL218574  10.426   3.981   5.994 -0.2535 -0.0839  0.1010
 1182loPI   C1A18575  10.723   4.064   6.416  0.2508 -0.0709 -0.0340
 1182loPI   C2A18576  10.519   4.063   6.875 -0.0013  0.0556 -0.1810
 1182loPI   C3A18577  10.336   3.915   7.310  0.0309 -0.1615  0.0586
 1182loPI   C4A18578  10.254   4.053   7.759 -0.0663  0.3160  0.0494
 1182loPI   C5A18579  10.161   3.831   8.152 -0.2200  0.2181  0.2684
 1182loPI   C6A18580   9.924   3.843   8.593  0.0429  0.0744  0.0705
 1182loPI   C1B18581  10.101   4.205   6.224 -0.0518 -0.0046  0.2570
 1182loPI   C2B18582  10.008   4.259   6.674 -0.2263  0.0717 -0.2877
 1182loPI   C3B18583   9.990   4.164   7.096 -0.0162 -0.0653 -0.0197
 1182loPI   C4B18584   9.810   4.144   7.428 -0.2454  0.2170 -0.3487
 1183loPI    C118585   7.880  10.456   5.946 -0.0109 -0.0399 -0.0680
 1183loPI    C218586   7.891  10.640   6.301 -0.0689 -0.1129 -0.0282
 1183loPI    C318587   7.566  10.433   6.193  0.0215 -0.2481 -0.0441
 1183loPI   PO418588   8.121  10.284   5.912 -0.0365  0.0784 -0.1392
 1183loPI   GL118589   8.404  10.205   6.163 -0.2677 -0.0526  0.2980
 1183loPI   GL218590   8.155  10.221   6.406 -0.2129  0.0551 -0.0365
 1183loPI   C1A18591   8.629  10.065   6.553 -0.3747 -0.1531  0.0768
 1183loPI   C2A18592   8.568  10.130   6.979  0.1185 -0.1180  0.0125
 1183loPI   C3A18593   8.667  10.277   7.388 -0.3018  0.1121  0.2439
 1183loPI   C4A18594   8.668  10.591   7.674  0.0899 -0.2086  0.1441
 1183loPI   C5A18595   8.904  10.792   8.033 -0.3128  0.1442  0.2650
 1183loPI   C6A18596   8.951  11.062   8.307 -0.1488  0.3071  0.1567
 1183loPI   C1B18597   8.007  10.381   6.769 -0.0838 -0.1230  0.3606
 1183loPI   C2B18598   7.967  10.771   6.803  0.0870  0.1157  0.2055
 1183loPI   C3B18599   7.960  11.057   7.168 -0.1748  0.0248 -0.4653
 1183loPI   C4B18600   8.217  11.329   7.192  0.1636  0.2297 -0.1087
 1184loPI    C118601  17.313  14.507   5.549 -0.1576  0.0315 -0.0091
 1184loPI    C218602  17.141  14.366   5.217  0.0561  0.1955 -0.1923
 1184loPI    C318603  17.479  14.580   5.192  0.1389  0.1084  0.1407
 1184loPI   PO418604  17.057  14.554   5.690 -0.2234 -0.0022  0.1608
 1184loPI   GL118605  16.766  14.447   5.959 -0.2301 -0.0298 -0.0227
 1184loPI   GL218606  16.820  14.742   6.076 -0.0515  0.1890 -0.0224
 1184loPI   C1A18607  16.838  14.292   6.395 -0.3384 -0.0606 -0.3099
 1184loPI   C2A18608  17.160  14.161   6.747 -0.1461  0.0421  0.1669
 1184loPI   C3A18609  17.209  13.823   7.040 -0.1139  0.0876  0.2334
 1184loPI   C4A18610  17.219  13.824   7.458  0.0469  0.0186  0.0954
 1184loPI   C5A18611  17.317  13.920   7.835 -0.0923  0.0140  0.0536
 1184loPI   C6A18612  17.552  14.167   8.163  0.1354 -0.3116 -0.4193
 1184loPI   C1B18613  16.763  14.812   6.529  0.0538 -0.0087 -0.0353
 1184loPI   C2B18614  16.556  14.978   6.904  0.0836  0.1543 -0.0996
 1184loPI   C3B18615  16.468  15.329   7.171  0.3528 -0.1894  0.2075
 1184loPI   C4B18616  16.497  15.609   7.593  0.2513  0.1994  0.3179
 1185loPI    C118617   6.907  12.290   5.369  0.0930  0.0034 -0.0504
 1185loPI    C218618   6.882  12.040   5.058 -0.0026 -0.0693  0.0152
 1185loPI    C318619   6.854  12.435   4.999 -0.2418 -0.0933 -0.0438
 1185loPI   PO418620   6.974  12.067   5.548 -0.4473  0.2641 -0.1046
 1185loPI   GL118621   6.602  11.860   5.916  0.0498  0.0071  0.3268
 1185loPI   GL218622   6.667  12.223   5.901 -0.2050 -0.1212 -0.0637
 1185loPI   C1A18623   6.512  11.861   6.219 -0.2468  0.3997 -0.3529
 1185loPI   C2A18624   6.485  11.961   6.644 -0.0907  0.0031  0.0428
 1185loPI   C3A18625   6.453  12.056   6.989  0.1943 -0.2368  0.1061
 1185loPI   C4A18626   6.201  12.194   7.265 -0.1688 -0.3006 -0.0860
 1185loPI   C5A18627   5.996  12.118   7.724 -0.1049  0.1523  0.1914
 1185loPI   C6A18628   5.858  11.944   8.121  0.2394  0.0458 -0.0735
 1185loPI   C1B18629   6.444  12.357   6.240  0.2025  0.0723  0.2475
 1185loPI   C2B18630   6.146  12.376   6.673  0.0532  0.0435  0.0753
 1185loPI   C3B18631   5.826  12.079   6.869  0.0877 -0.0496 -0.2987
 1185loPI   C4B18632   5.489  12.040   7.020 -0.1566 -0.0236 -0.0618
 1186loPI    C118633   0.013  13.834   5.348 -0.2174  0.2549  0.0041
 1186loPI    C218634  -0.161  13.898   4.994 -0.0907  0.0528 -0.0965
 1186loPI    C318635   0.232  13.957   5.037 -0.0743 -0.0951 -0.0378
 1186loPI   PO418636  -0.166  13.891   5.513 -0.2481 -0.1924 -0.1976
 1186loPI   GL118637  -0.022  13.988   5.873 -0.4679 -0.0391  0.1286
 1186loPI   GL218638   0.231  13.854   5.942  0.1961 -0.0278 -0.3494
 1186loPI   C1A18639  -0.117  14.100   6.364  0.0108 -0.0439  0.0126
 1186loPI   C2A18640   0.005  14.049   6.807 -0.0350 -0.0035  0.0604
 1186loPI   C3A18641   0.310  14.357   7.087  0.3138 -0.0026 -0.0903
 1186loPI   C4A18642   0.304  14.602   7.568 -0.1631  0.3226  0.0865
 1186loPI   C5A18643   0.255  14.678   7.984 -0.1886 -0.1684 -0.0345
 1186loPI   C6A18644   0.147  14.940   8.222 -0.0971 -0.0089  0.1432
 1186loPI   C1B18645   0.410  13.886   6.332 -0.1945 -0.0071  0.0301
 1186loPI   C2B18646   0.494  13.831   6.809  0.0508 -0.1032  0.0063
 1186loPI   C3B18647   0.237  13.792   7.132 -0.3031 -0.0333  0.2790
 1186loPI   C4B18648   0.201  13.775   7.674  0.1595 -0.1949  0.2101
 1187loPI    C118649  13.154  12.410   5.463 -0.0889 -0.1389  0.0136
 1187loPI    C218650  13.107  12.470   5.070  0.0288  0.3267  0.0642
 1187loPI    C318651  13.473  12.407   5.221 -0.0108  0.1949  0.1070
 1187loPI   PO418652  13.012  12.561   5.560 -0.0414 -0.1511 -0.2712
 1187loPI   GL118653  12.973  12.610   5.951  0.0528  0.1449 -0.1243
 1187loPI   GL218654  12.692  12.611   6.050 -0.1006  0.2175  0.1057
 1187loPI   C1A18655  13.066  12.273   6.281 -0.0800  0.0555  0.0737
 1187loPI   C2A18656  13.159  12.318   6.607  0.1552 -0.0715  0.1546
 1187loPI   C3A18657  13.220  12.378   7.010  0.1693 -0.1389 -0.0290
 1187loPI   C4A18658  13.392  12.358   7.418 -0.1685 -0.3771 -0.2276
 1187loPI   C5A18659  13.224  12.289   7.788 -0.0993  0.1231  0.1550
 1187loPI   C6A18660  12.914  12.017   7.871  0.3630  0.3319 -0.2294
 1187loPI   C1B18661  12.810  12.719   6.408  0.0529  0.0084 -0.0399
 1187loPI   C2B18662  12.946  12.759   6.784  0.2401  0.1448  0.0077
 1187loPI   C3B18663  12.868  12.753   7.196 -0.0025  0.1621 -0.3505
 1187loPI   C4B18664  13.020  12.729   7.508 -0.0746  0.2310 -0.0654
 1188loPI    C118665  10.696  14.503   4.895  0.0333 -0.1421 -0.0303
 1188loPI    C218666  10.736  14.878   4.760 -0.0208 -0.0855  0.1093
 1188loPI    C318667  11.061  14.663   4.853  0.0102 -0.0730  0.0306
 1188loPI   PO418668  10.544  14.619   5.193  0.1315 -0.1332  0.1956
 1188loPI   GL118669  10.677  14.703   5.645 -0.4296 -0.0073  0.1245
 1188loPI   GL218670  10.630  14.932   5.876 -0.3622 -0.0645  0.0457
 1188loPI   C1A18671  10.820  14.505   6.079  0.0129  0.1365  0.1350
 1188loPI   C2A18672  10.780  14.499   6.546 -0.1816 -0.0335 -0.1702
 1188loPI   C3A18673  10.833  14.420   6.946 -0.0613  0.2006  0.2938
 1188loPI   C4A18674  10.752  14.486   7.424  0.1070 -0.2999 -0.0644
 1188loPI   C5A18675  10.476  14.462   7.740  0.3337 -0.0339  0.3911
 1188loPI   C6A18676  10.698  14.558   8.149 -0.0768  0.0466 -0.0069
 1188loPI   C1B18677  10.566  14.948   6.394  0.0762  0.1528  0.0885
 1188loPI   C2B18678  10.612  14.967   6.851  0.2389  0.3482 -0.1074
 1188loPI   C3B18679  10.629  14.925   7.317  0.0518 -0.3547  0.1758
 1188loPI   C4B18680  10.520  14.960   7.718 -0.0660 -0.0965  0.0162
 1189loPI    C118681   9.206  14.625   5.099 -0.0578 -0.0111 -0.0639
 1189loPI    C218682   9.354  14.411   5.402 -0.0490 -0.0792 -0.1161
 1189loPI    C318683   9.243  14.229   5.064 -0.0526 -0.0027 -0.1564
 1189loPI   PO418684   9.396  14.854   5.166  0.2523  0.0684  0.1149
 1189loPI   GL118685   9.651  14.836   5.520 -0.0439  0.2375 -0.0599
 1189loPI   GL218686   9.440  15.053   5.706  0.1699  0.1318  0.0987
 1189loPI   C1A18687   9.389  14.559   5.837  0.1224 -0.3776 -0.0903
 1189loPI   C2A18688   9.284  14.636   6.208  0.0756  0.0263  0.0221
 1189loPI   C3A18689   9.223  14.646   6.695 -0.1055 -0.1524 -0.1597
 1189loPI   C4A18690   9.196  14.586   7.135 -0.0640  0.0001 -0.2506
 1189loPI   C5A18691   9.422  14.573   7.647  0.0948  0.0678  0.0761
 1189loPI   C6A18692   9.412  14.587   8.105 -0.2688 -0.1739 -0.3756
 1189loPI   C1B18693   9.485  15.079   6.141 -0.3100  0.1011 -0.0032
 1189loPI   C2B18694   9.595  15.108   6.591 -0.2707 -0.0548 -0.0429
 1189loPI   C3B18695   9.634  15.021   6.964 -0.2718  0.1716 -0.1647
 1189loPI   C4B18696   9.569  15.052   7.409  0.1144 -0.2278  0.1558
 1190loPI    C118697   2.701   6.917   4.957  0.0063  0.1076 -0.0041
 1190loPI    C218698   2.607   7.270   4.794 -0.0569  0.0637 -0.0628
 1190loPI    C318699   2.665   6.950   4.560 -0.1108  0.0092 -0.0020
 1190loPI   PO418700   2.463   6.924   5.226  0.2486 -0.2389 -0.1628
 1190loPI   GL118701   2.596   6.824   5.614 -0.2974 -0.1603  0.1837
 1190loPI   GL218702   2.562   6.533   5.756  0.1209  0.3727 -0.2688
 1190loPI   C1A18703   2.765   6.932   6.061 -0.0547  0.0570  0.1163
 1190loPI   C2A18704   2.845   6.779   6.442  0.0373 -0.1508 -0.0073
 1190loPI   C3A18705   2.836   6.725   6.887 -0.0580 -0.1192 -0.2065
 1190loPI   C4A18706   2.830   6.674   7.447 -0.0316 -0.1453 -0.1166
 1190loPI   C5A18707   2.941   6.937   7.794  0.1204 -0.0636  0.1220
 1190loPI   C6A18708   3.102   7.125   8.141  0.1818  0.1887 -0.3308
 1190loPI   C1B18709   2.349   6.495   6.126 -0.1731 -0.0379  0.0141
 1190loPI   C2B18710   2.482   6.476   6.594  0.1873 -0.2169  0.2053
 1190loPI   C3B18711   2.466   6.406   7.074 -0.0520 -0.0608 -0.0990
 1190loPI   C4B18712   2.500   6.312   7.583  0.1646 -0.0303  0.2225
 1191loPI    C118713  15.759   9.211   5.059  0.0010 -0.0993 -0.1316
 1191loPI    C218714  15.367   9.276   5.016 -0.0399 -0.2590 -0.0090
 1191loPI    C318715  15.599   9.237   4.693 -0.1200 -0.1391 -0.0821
 1191loPI   PO418716  15.778   9.101   5.277  0.0894  0.1819  0.1418
 1191loPI   GL118717  15.963   9.092   5.669  0.0397  0.1630 -0.1061
 1191loPI   GL218718  16.099   8.828   5.724 -0.0961  0.0043 -0.0229
 1191loPI   C1A18719  15.856   9.327   5.949  0.1413 -0.0027  0.0169
 1191loPI   C2A18720  15.825   9.299   6.403 -0.1491  0.0541  0.0461
 1191loPI   C3A18721  15.824   9.267   6.833  0.2367  0.0732 -0.2934
 1191loPI   C4A18722  15.746   9.232   7.249  0.2530 -0.0410 -0.0330
 1191loPI   C5A18723  15.857   9.188   7.757 -0.1771 -0.1132  0.0355
 1191loPI   C6A18724  15.806   9.305   8.203 -0.0932  0.0374  0.2055
 1191loPI   C1B18725  15.958   8.845   6.178 -0.3743 -0.1353 -0.0530
 1191loPI   C2B18726  16.026   8.831   6.647  0.2510 -0.0504 -0.0962
 1191loPI   C3B18727  16.050   8.765   7.008 -0.0360 -0.0355  0.2584
 1191loPI   C4B18728  16.101   8.732   7.473 -0.0227  0.0801 -0.0830
 1192loPI    C118729   5.900  17.760   5.027 -0.1801  0.2397 -0.0661
 1192loPI    C218730   6.244  17.834   5.217 -0.2766  0.1630  0.1410
 1192loPI    C318731   6.248  17.720   4.834 -0.0571 -0.0705  0.2101
 1192loPI   PO418732   5.789  17.954   5.114  0.1910  0.0912 -0.0837
 1192loPI   GL118733   5.637  17.925   5.581  0.0710  0.1238 -0.1646
 1192loPI   GL218734   6.026  17.901   5.633  0.1461  0.2362 -0.0666
 1192loPI   C1A18735   5.431  17.938   5.916  0.2515  0.0129 -0.0728
 1192loPI   C2A18736   5.391  18.058   6.394 -0.0241  0.0229  0.0278
 1192loPI   C3A18737   5.350  18.086   6.884 -0.3100 -0.0142 -0.1205
 1192loPI   C4A18738   5.231  18.140   7.240 -0.0533  0.2067  0.2020
 1192loPI   C5A18739   5.205  17.871   7.570 -0.0551  0.1889  0.0259
 1192loPI   C6A18740   5.427  17.694   7.860 -0.1209  0.1903  0.1542
 1192loPI   C1B18741   5.948  17.933   6.071  0.2521  0.1132 -0.0711
 1192loPI   C2B18742   5.904  17.961   6.609  0.1820  0.1112  0.1405
 1192loPI   C3B18743   5.797  17.990   7.059  0.0376  0.2795 -0.1507
 1192loPI   C4B18744   5.699  17.933   7.456  0.0611 -0.1829 -0.0599
 1193loPI    C118745  14.665  17.493   5.485  0.2587  0.0586  0.1362
 1193loPI    C218746  14.553  17.330   5.138 -0.3143  0.2425  0.2250
 1193loPI    C318747  14.852  17.168   5.347 -0.1979 -0.0800 -0.1785
 1193loPI   PO418748  14.457  17.474   5.625  0.0217  0.1090  0.3557
 1193loPI   GL118749  14.494  17.572   6.001  0.1265  0.2415  0.0022
 1193loPI   GL218750  14.381  17.782   6.140 -0.2504  0.2355 -0.1702
 1193loPI   C1A18751  14.741  17.327   6.287 -0.0302 -0.0154 -0.0985
 1193loPI   C2A18752  14.916  17.030   6.673 -0.1888 -0.1754  0.0830
 1193loPI   C3A18753  14.738  16.756   6.914  0.0101  0.1833  0.2935
 1193loPI   C4A18754  14.530  16.773   7.437 -0.1236  0.2205 -0.0916
 1193loPI   C5A18755  14.317  16.753   7.814 -0.0780 -0.0605 -0.2074
 1193loPI   C6A18756  14.070  16.834   8.150  0.0202  0.1362 -0.2436
 1193loPI   C1B18757  14.386  17.622   6.511  0.0161  0.3191 -0.3203
 1193loPI   C2B18758  14.276  17.740   6.909 -0.1899 -0.2629 -0.1797
 1193loPI   C3B18759  14.361  17.675   7.329  0.0349 -0.1002 -0.3242
 1193loPI   C4B18760  14.516  17.841   7.712 -0.1962  0.0242 -0.0379
 1194loPI    C118761  13.359   1.179   5.688  0.0397  0.0192  0.0984
 1194loPI    C218762  13.405   0.955   5.361 -0.0544  0.1127  0.0203
 1194loPI    C318763  13.577   1.316   5.382 -0.1327  0.1494  0.0322
 1194loPI   PO418764  13.072   1.117   5.753 -0.1563 -0.0649  0.0153
 1194loPI   GL118765  12.845   0.928   5.971 -0.5525 -0.1672  0.0956
 1194loPI   GL218766  12.548   1.028   6.017  0.2373  0.1709  0.1652
 1194loPI   C1A18767  12.852   0.901   6.375 -0.2041 -0.0544  0.2608
 1194loPI   C2A18768  12.724   0.807   6.740 -0.3934  0.0257  0.1995
 1194loPI   C3A18769  12.748   0.847   7.216  0.0782 -0.1334 -0.0162
 1194loPI   C4A18770  12.862   0.816   7.646  0.1472 -0.1632 -0.1390
 1194loPI   C5A18771  12.833   0.834   8.164 -0.0859 -0.1304 -0.0147
 1194loPI   C6A18772  12.593   0.530   8.271 -0.0672 -0.1775 -0.0808
 1194loPI   C1B18773  12.377   0.982   6.309  0.2834 -0.0228 -0.0924
 1194loPI   C2B18774  12.275   0.962   6.727  0.2007  0.1352 -0.0914
 1194loPI   C3B18775  12.165   0.916   7.186  0.1906  0.1764  0.1559
 1194loPI   C4B18776  12.018   0.868   7.630 -0.3185  0.0534 -0.1627
 1195loPI    C118777  14.189  10.963   5.486  0.0284 -0.0150 -0.1860
 1195loPI    C218778  14.537  10.906   5.298  0.1394  0.1744 -0.0422
 1195loPI    C318779  14.242  11.105   5.116  0.1547  0.1332 -0.1126
 1195loPI   PO418780  14.124  10.749   5.590  0.0646 -0.1954  0.1182
 1195loPI   GL118781  14.159  10.800   5.981 -0.0316  0.0011 -0.1286
 1195loPI   GL218782  13.827  10.930   5.904  0.0148  0.1781  0.2918
 1195loPI   C1A18783  14.111  10.645   6.346  0.2274  0.4159 -0.0614
 1195loPI   C2A18784  14.034  10.437   6.800  0.1166 -0.1646 -0.0047
 1195loPI   C3A18785  13.801  10.193   7.013 -0.2039 -0.2005  0.1574
 1195loPI   C4A18786  13.681  10.023   7.421  0.3881  0.0784  0.4079
 1195loPI   C5A18787  13.505   9.974   7.810  0.0614  0.1282 -0.0461
 1195loPI   C6A18788  13.652   9.941   8.280  0.2053 -0.1466  0.1279
 1195loPI   C1B18789  13.568  10.968   6.150  0.2649 -0.0087 -0.2466
 1195loPI   C2B18790  13.461  10.961   6.633  0.1640  0.0871 -0.0418
 1195loPI   C3B18791  13.547  11.070   7.046  0.0235  0.2047  0.1009
 1195loPI   C4B18792  13.654  11.359   7.381  0.0421 -0.1200  0.0805
 1196loPI    C118793   6.134  14.552   5.136  0.1530 -0.1933 -0.0640
 1196loPI    C218794   6.192  14.877   4.910 -0.1137 -0.0429  0.0792
 1196loPI    C318795   6.441  14.566   4.880  0.1461  0.1738 -0.0576
 1196loPI   PO418796   6.025  14.605   5.378  0.0152  0.2976  0.1716
 1196loPI   GL118797   5.684  14.445   5.620  0.0346 -0.2588  0.0566
 1196loPI   GL218798   5.403  14.606   5.703  0.1781 -0.0500  0.1499
 1196loPI   C1A18799   5.818  14.689   6.002  0.0876  0.6134 -0.0825
 1196loPI   C2A18800   5.741  14.705   6.483 -0.0665  0.1351  0.1046
 1196loPI   C3A18801   5.543  14.858   6.872 -0.0348  0.0362  0.0519
 1196loPI   C4A18802   5.526  14.822   7.308  0.0885  0.1567 -0.1453
 1196loPI   C5A18803   5.289  14.617   7.602 -0.0809  0.0993  0.0019
 1196loPI   C6A18804   5.225  14.183   7.742 -0.2162  0.1044  0.2552
 1196loPI   C1B18805   5.335  14.421   6.096 -0.3174 -0.1395 -0.1637
 1196loPI   C2B18806   5.386  14.349   6.550 -0.1750  0.1206 -0.0953
 1196loPI   C3B18807   5.373  14.270   6.987 -0.1290  0.1606  0.2187
 1196loPI   C4B18808   5.454  14.000   7.340 -0.1123  0.2067 -0.1224
 1197loPI    C118809   3.632  14.806   5.358 -0.1299  0.1042  0.0332
 1197loPI    C218810   3.980  14.904   5.187 -0.0485 -0.0092  0.1331
 1197loPI    C318811   3.831  14.535   5.142  0.0023 -0.0579  0.3527
 1197loPI   PO418812   3.615  15.036   5.531  0.0747  0.2050 -0.1623
 1197loPI   GL118813   3.596  15.065   5.922 -0.5986  0.0162 -0.0707
 1197loPI   GL218814   3.450  15.310   5.897 -0.1045  0.2001  0.2729
 1197loPI   C1A18815   3.771  14.925   6.190  0.2354  0.0328 -0.3820
 1197loPI   C2A18816   3.878  14.697   6.504 -0.0479  0.0087 -0.0951
 1197loPI   C3A18817   4.129  14.664   6.899  0.0532  0.0117  0.0763
 1197loPI   C4A18818   4.238  14.581   7.233 -0.1447  0.1470 -0.1560
 1197loPI   C5A18819   4.285  14.459   7.651 -0.0943 -0.0092 -0.0855
 1197loPI   C6A18820   4.345  14.644   8.106  0.2147  0.2427  0.1502
 1197loPI   C1B18821   3.407  15.325   6.325  0.2091 -0.0369  0.1342
 1197loPI   C2B18822   3.398  15.274   6.814 -0.0406  0.1669 -0.0615
 1197loPI   C3B18823   3.304  15.252   7.143 -0.0974  0.2446  0.1799
 1197loPI   C4B18824   3.459  15.054   7.541  0.2166 -0.0217  0.0088
 1198loPI    C118825   7.390   8.202   4.920 -0.2615 -0.1611 -0.0911
 1198loPI    C218826   7.056   8.302   4.724 -0.2321  0.1680  0.0204
 1198loPI    C318827   7.413   8.373   4.559 -0.2125  0.0686  0.0194
 1198loPI   PO418828   7.401   8.368   5.078 -0.0084  0.0191 -0.2851
 1198loPI   GL118829   7.293   8.331   5.434  0.1543  0.1016  0.0456
 1198loPI   GL218830   7.055   8.328   5.620  0.0988 -0.3131 -0.0015
 1198loPI   C1A18831   7.534   8.278   5.861  0.2386 -0.1437 -0.0568
 1198loPI   C2A18832   7.535   8.158   6.190 -0.0228 -0.1430 -0.0327
 1198loPI   C3A18833   7.632   8.045   6.517  0.0208  0.0302 -0.0297
 1198loPI   C4A18834   7.558   8.105   6.968  0.0596 -0.1738  0.0110
 1198loPI   C5A18835   7.438   8.010   7.443  0.1862  0.1707 -0.0477
 1198loPI   C6A18836   7.144   8.185   7.775 -0.3264 -0.0556 -0.1779
 1198loPI   C1B18837   7.140   8.503   6.020 -0.1440 -0.0344  0.0205
 1198loPI   C2B18838   6.981   8.358   6.355  0.2606 -0.1021  0.0188
 1198loPI   C3B18839   6.979   8.230   6.794 -0.0243 -0.1650 -0.0761
 1198loPI   C4B18840   6.980   8.272   7.240 -0.1593  0.1661 -0.2750
 1199loPI    C118841  10.673   1.685   5.253 -0.1160  0.1051 -0.0432
 1199loPI    C218842  11.055   1.645   5.142 -0.0040 -0.0224  0.3711
 1199loPI    C318843  10.788   1.799   4.887  0.2966 -0.0453  0.0345
 1199loPI   PO418844  10.702   1.364   5.376 -0.1976  0.0480  0.0506
 1199loPI   GL118845  10.530   1.139   5.676 -0.1526  0.0632  0.0893
 1199loPI   GL218846  10.344   1.412   5.678  0.0342 -0.0056 -0.3264
 1199loPI   C1A18847  10.768   1.241   6.051  0.0024  0.0444 -0.0349
 1199loPI   C2A18848  10.665   1.246   6.463  0.2995  0.3895  0.1660
 1199loPI   C3A18849  10.713   1.147   6.941  0.0438  0.1363 -0.0500
 1199loPI   C4A18850  10.605   1.190   7.397  0.0748 -0.1449 -0.3430
 1199loPI   C5A18851  10.481   1.197   7.856 -0.1962 -0.2166 -0.0974
 1199loPI   C6A18852  10.435   1.443   8.268  0.4086 -0.1547 -0.0315
 1199loPI   C1B18853  10.297   1.340   6.175 -0.0217 -0.2642  0.1539
 1199loPI   C2B18854  10.181   1.306   6.631 -0.2261 -0.2796  0.0032
 1199loPI   C3B18855  10.090   1.244   7.051  0.2948  0.2819 -0.1720
 1199loPI   C4B18856  10.083   1.300   7.479 -0.0631  0.1095  0.3047
 1200loPI    C118857  10.426  10.039   5.173  0.0257 -0.1266 -0.0038
 1200loPI    C218858  10.638  10.053   4.834 -0.1886 -0.1084 -0.1396
 1200loPI    C318859  10.314  10.283   4.877 -0.0888 -0.0141  0.1310
 1200loPI   PO418860  10.596  10.070   5.501 -0.0814  0.1082  0.0330
 1200loPI   GL118861  10.667  10.157   5.909 -0.0010 -0.1020  0.3072
 1200loPI   GL218862  10.474  10.197   6.135 -0.0856  0.2757 -0.0639
 1200loPI   C1A18863  10.870   9.997   6.411  0.1947 -0.2034  0.0361
 1200loPI   C2A18864  10.894   9.757   6.815 -0.2198  0.3063  0.0455
 1200loPI   C3A18865  10.814   9.670   7.210 -0.1158  0.1726  0.2575
 1200loPI   C4A18866  10.925   9.688   7.601  0.0370 -0.3000  0.1750
 1200loPI   C5A18867  10.949   9.872   8.012 -0.1019  0.1922 -0.3465
 1200loPI   C6A18868  11.184  10.266   8.120  0.2431 -0.4323 -0.0142
 1200loPI   C1B18869  10.517  10.393   6.523  0.0252  0.0281  0.1959
 1200loPI   C2B18870  10.468  10.503   6.978  0.0688 -0.3561 -0.3360
 1200loPI   C3B18871  10.616  10.498   7.418 -0.1398 -0.3977 -0.2644
 1200loPI   C4B18872  10.599  10.918   7.690 -0.0886  0.1576 -0.1345
 1201loPI    C118873   4.751  11.048   5.210 -0.0719 -0.1216 -0.0404
 1201loPI    C218874   4.771  10.781   4.913  0.1232  0.0259 -0.1619
 1201loPI    C318875   4.743  11.171   4.830 -0.0917  0.0501  0.0148
 1201loPI   PO418876   5.025  10.939   5.329  0.2951 -0.1324  0.1172
 1201loPI   GL118877   5.076  10.940   5.702  0.0295  0.3644  0.0418
 1201loPI   GL218878   5.096  11.325   5.582  0.0381  0.0058  0.1076
 1201loPI   C1A18879   4.963  10.937   6.087 -0.0705 -0.0776 -0.0158
 1201loPI   C2A18880   4.958  10.800   6.494 -0.0363 -0.3309 -0.1213
 1201loPI   C3A18881   4.935  10.766   6.967 -0.2603 -0.0828  0.2590
 1201loPI   C4A18882   4.984  10.701   7.422 -0.1756 -0.0617 -0.0783
 1201loPI   C5A18883   5.061  10.849   7.763  0.2728 -0.1321  0.1178
 1201loPI   C6A18884   5.096  10.637   8.139  0.0340  0.2315 -0.2160
 1201loPI   C1B18885   5.301  11.299   6.145  0.2526  0.1129  0.1328
 1201loPI   C2B18886   5.290  11.187   6.605  0.1084 -0.1569  0.0246
 1201loPI   C3B18887   5.348  11.149   7.021  0.2027 -0.1001  0.1492
 1201loPI   C4B18888   5.253  11.052   7.361  0.1934 -0.0490  0.1025
 1202loPI    C118889   2.360   6.386   5.038  0.0585 -0.0424 -0.0433
 1202loPI    C218890   2.186   6.030   4.980  0.0038  0.0228 -0.2916
 1202loPI    C318891   2.468   6.158   4.727  0.2277  0.0329 -0.0406
 1202loPI   PO418892   2.305   6.433   5.314  0.0711  0.1797 -0.2696
 1202loPI   GL118893   2.054   6.503   5.619 -0.0851 -0.0023  0.3052
 1202loPI   GL218894   2.023   6.793   5.763 -0.2647 -0.0099  0.1825
 1202loPI   C1A18895   2.045   6.169   5.915  0.0114  0.0440  0.1101
 1202loPI   C2A18896   2.360   6.051   6.329 -0.1150 -0.0140 -0.1895
 1202loPI   C3A18897   2.504   5.996   6.810 -0.3145 -0.1235 -0.0271
 1202loPI   C4A18898   2.555   5.945   7.242 -0.2363 -0.1804 -0.1299
 1202loPI   C5A18899   2.665   5.798   7.661 -0.2611  0.0252  0.1954
 1202loPI   C6A18900   2.606   5.371   7.767 -0.0801 -0.1385 -0.3525
 1202loPI   C1B18901   1.926   6.756   6.133  0.1769 -0.5455  0.2771
 1202loPI   C2B18902   1.961   6.644   6.496  0.4041  0.2205 -0.3352
 1202loPI   C3B18903   1.991   6.665   6.889 -0.0374 -0.1475 -0.1802
 1202loPI   C4B18904   1.994   6.583   7.386  0.0298 -0.0550  0.2653
 1203loPI    C118905   7.683  12.564   5.817 -0.0929  0.0064  0.0311
 1203loPI    C218906   7.374  12.416   5.611 -0.0523  0.3299 -0.2720
 1203loPI    C318907   7.610  12.693   5.445  0.1381  0.4084  0.1193
 1203loPI   PO418908   7.556  12.633   6.061  0.2439 -0.0612 -0.2493
 1203loPI   GL118909   7.505  12.390   6.335  0.2874 -0.1944  0.0308
 1203loPI   GL218910   7.497  12.143   6.386 -0.0970  0.1565  0.3350
 1203loPI   C1A18911   7.328  12.467   6.784 -0.0974  0.1077 -0.6401
 1203loPI   C2A18912   7.147  12.447   7.268  0.0333  0.0283 -0.1177
 1203loPI   C3A18913   6.965  12.416   7.707  0.0187  0.0374  0.1780
 1203loPI   C4A18914   6.974  12.116   8.035  0.2440 -0.1740 -0.2307
 1203loPI   C5A18915   7.062  11.663   8.133  0.1625  0.1415 -0.1207
 1203loPI   C6A18916   7.093  11.196   8.156 -0.2139 -0.2603  0.1183
 1203loPI   C1B18917   7.451  11.966   6.749  0.3772  0.2682  0.1212
 1203loPI   C2B18918   7.058  11.970   7.012  0.2488 -0.3443 -0.2092
 1203loPI   C3B18919   6.767  12.150   7.348  0.2851  0.0732  0.0235
 1203loPI   C4B18920   6.482  12.245   7.701  0.0205 -0.2521  0.1709
 1204loPI    C118921  17.168  16.944   5.601 -0.0126 -0.1630 -0.0489
 1204loPI    C218922  17.511  16.747   5.540  0.0876 -0.0274  0.0689
 1204loPI    C318923  17.184  16.548   5.658  0.0799 -0.1827 -0.2052
 1204loPI   PO418924  17.235  17.173   5.715 -0.0116 -0.1706  0.1959
 1204loPI   GL118925  17.575  17.328   5.999  0.0874  0.1927  0.1593
 1204loPI   GL218926  17.360  17.063   6.172 -0.2596  0.1581  0.0669
 1204loPI   C1A18927  17.650  17.582   6.417  0.1428  0.1032 -0.0524
 1204loPI   C2A18928  17.723  17.806   6.763 -0.0159 -0.2042  0.0691
 1204loPI   C3A18929  17.632  17.802   7.190 -0.2999 -0.2423  0.1866
 1204loPI   C4A18930  17.509  17.698   7.625  0.0124 -0.3616  0.0651
 1204loPI   C5A18931  17.221  17.428   7.762 -0.1260  0.2479 -0.1290
 1204loPI   C6A18932  16.886  17.256   8.070 -0.2875 -0.0993 -0.0766
 1204loPI   C1B18933  17.429  17.153   6.664 -0.1412 -0.3281 -0.0607
 1204loPI   C2B18934  17.240  17.540   6.719 -0.1664 -0.2086 -0.1148
 1204loPI   C3B18935  17.191  18.054   6.867 -0.0830 -0.1918 -0.2211
 1204loPI   C4B18936  17.026  18.409   6.850 -0.3440 -0.0770 -0.0034
 1205loPI    C118937   1.110  16.065   4.900 -0.0258 -0.0268 -0.0365
 1205loPI    C218938   1.015  15.769   4.648 -0.0342  0.0267 -0.0968
 1205loPI    C318939   1.322  16.011   4.565 -0.1264  0.1338 -0.1273
 1205loPI   PO418940   1.212  15.940   5.223 -0.0089 -0.2811  0.0338
 1205loPI   GL118941   1.594  15.966   5.431 -0.0741 -0.3276  0.0146
 1205loPI   GL218942   1.866  15.970   5.588 -0.1248 -0.3374  0.0778
 1205loPI   C1A18943   1.345  15.985   5.829  0.3200  0.0745 -0.0560
 1205loPI   C2A18944   1.282  15.900   6.262  0.0328  0.1350  0.2381
 1205loPI   C3A18945   1.289  15.943   6.694  0.1542  0.0271  0.0908
 1205loPI   C4A18946   1.286  16.003   7.153 -0.1554  0.4016  0.2088
 1205loPI   C5A18947   1.306  16.000   7.663  0.2172 -0.2024 -0.0150
 1205loPI   C6A18948   1.743  16.178   7.766  0.0074  0.0432  0.0142
 1205loPI   C1B18949   1.830  15.889   5.972 -0.2714 -0.0842  0.1533
 1205loPI   C2B18950   1.815  15.870   6.469  0.1020  0.1242 -0.1513
 1205loPI   C3B18951   1.742  15.793   6.968 -0.2184  0.0664 -0.1414
 1205loPI   C4B18952   1.778  15.784   7.425  0.1748 -0.2778 -0.1054
 1206loPI    C118953   0.580   1.148   4.874 -0.1325 -0.0340  0.1504
 1206loPI    C218954   0.925   1.065   4.691 -0.2226 -0.0043 -0.0350
 1206loPI    C318955   0.610   0.823   4.643 -0.2717  0.0504  0.0117
 1206loPI   PO418956   0.667   1.225   5.069 -0.3435  0.1404 -0.0750
 1206loPI   GL118957   0.600   1.054   5.464 -0.0707 -0.1363 -0.0592
 1206loPI   GL218958   0.940   1.122   5.580  0.1496 -0.0848  0.1095
 1206loPI   C1A18959   0.458   1.167   5.849  0.0413 -0.1087 -0.3393
 1206loPI   C2A18960   0.298   1.208   6.196 -0.1627 -0.1508 -0.2543
 1206loPI   C3A18961   0.445   1.171   6.555 -0.0066 -0.1359  0.2507
 1206loPI   C4A18962   0.421   1.269   6.936  0.0893 -0.0094  0.0725
 1206loPI   C5A18963   0.393   1.113   7.235  0.1627  0.0444  0.1839
 1206loPI   C6A18964   0.519   0.703   7.441 -0.0514  0.0288 -0.0460
 1206loPI   C1B18965   1.022   1.046   5.992  0.1019 -0.1876  0.1448
 1206loPI   C2B18966   0.950   1.140   6.417 -0.1040 -0.3881  0.1237
 1206loPI   C3B18967   0.978   1.110   6.888  0.0943  0.1993 -0.1571
 1206loPI   C4B18968   0.910   1.107   7.339  0.2375 -0.0101 -0.1721
 1207loPI    C118969   1.618  10.495   5.254 -0.0797 -0.0084 -0.0312
 1207loPI    C218970   1.384  10.757   5.064 -0.0246  0.0820  0.0245
 1207loPI    C318971   1.678  10.572   4.866 -0.1219 -0.0078 -0.0376
 1207loPI   PO418972   1.665  10.678   5.493 -0.0624  0.0294 -0.3461
 1207loPI   GL118973   1.531  10.768   5.888  0.0234 -0.0615  0.1302
 1207loPI   GL218974   1.365  11.102   5.867  0.1030 -0.3141 -0.0710
 1207loPI   C1A18975   1.639  11.005   6.323 -0.0885  0.0374 -0.2723
 1207loPI   C2A18976   1.439  11.240   6.774  0.0592 -0.0471 -0.0415
 1207loPI   C3A18977   1.151  11.274   7.024 -0.0151  0.1430  0.0306
 1207loPI   C4A18978   0.966  11.142   7.373  0.0081  0.1136  0.0583
 1207loPI   C5A18979   0.679  10.999   7.583 -0.0212  0.0796 -0.0387
 1207loPI   C6A18980   0.335  10.880   7.922  0.0105  0.0785 -0.4845
 1207loPI   C1B18981   1.110  10.831   6.113 -0.0649 -0.1947 -0.3269
 1207loPI   C2B18982   1.274  10.733   6.524 -0.1008 -0.1154 -0.2112
 1207loPI   C3B18983   1.365  10.793   7.017 -0.0804 -0.0976 -0.0792
 1207loPI   C4B18984   1.416  10.832   7.475  0.0541  0.0779 -0.1258
 1208loPI    C118985  14.157   2.150   5.421  0.0051  0.0773 -0.0661
 1208loPI    C218986  14.492   2.146   5.203 -0.0047  0.1243 -0.0821
 1208loPI    C318987  14.281   1.809   5.251  0.0018  0.1120 -0.1384
 1208loPI   PO418988  14.234   2.278   5.657 -0.0348 -0.0930 -0.0487
 1208loPI   GL118989  14.060   2.162   5.996  0.1097  0.0169  0.4144
 1208loPI   GL218990  14.112   2.483   6.100  0.1080  0.2478  0.0935
 1208loPI   C1A18991  14.206   2.118   6.438  0.2794  0.1195  0.0302
 1208loPI   C2A18992  14.302   2.087   6.889  0.0236 -0.0994 -0.0330
 1208loPI   C3A18993  14.410   2.226   7.286  0.2646  0.0582 -0.0688
 1208loPI   C4A18994  14.455   2.332   7.706 -0.1841  0.0971  0.3747
 1208loPI   C5A18995  14.556   2.098   8.006  0.3269 -0.0244 -0.3201
 1208loPI   C6A18996  14.478   2.034   8.417  0.3921  0.0268 -0.2735
 1208loPI   C1B18997  14.154   2.612   6.531  0.0676 -0.0345  0.3681
 1208loPI   C2B18998  14.242   2.554   6.930 -0.0465  0.1834  0.0740
 1208loPI   C3B18999  14.367   2.705   7.361  0.0679 -0.0765 -0.4265
 1208loPI   C4B19000  14.236   2.954   7.683 -0.0771  0.2294 -0.0133
 1209loPI    C119001   9.830   5.911   5.195 -0.1983  0.0613 -0.1897
 1209loPI    C219002   9.697   5.585   5.006 -0.1010 -0.0243 -0.1121
 1209loPI    C319003   9.807   5.907   4.796 -0.4268  0.0477 -0.1772
 1209loPI   PO419004   9.821   5.729   5.486  0.0773  0.1529  0.1215
 1209loPI   GL119005  10.075   5.834   5.755 -0.4651  0.0067  0.1586
 1209loPI   GL219006  10.347   5.666   5.864  0.1007 -0.1520  0.0108
 1209loPI   C1A19007   9.801   5.780   6.166 -0.1035 -0.0478  0.2645
 1209loPI   C2A19008   9.608   5.547   6.478  0.0368  0.0467  0.1480
 1209loPI   C3A19009   9.680   5.195   6.581  0.1106  0.1501 -0.1161
 1209loPI   C4A19010   9.613   5.066   7.001  0.1945  0.0271 -0.1502
 1209loPI   C5A19011   9.570   5.162   7.326 -0.2603  0.1863 -0.4379
 1209loPI   C6A19012   9.420   5.417   7.560 -0.1271 -0.0938 -0.1264
 1209loPI   C1B19013  10.625   5.819   6.234  0.0996  0.0697  0.1628
 1209loPI   C2B19014  10.722   6.217   6.454 -0.0374  0.2913  0.0697
 1209loPI   C3B19015  10.778   6.577   6.697  0.3252 -0.0168  0.1220
 1209loPI   C4B19016  10.788   6.588   7.155 -0.0115  0.1995 -0.1613
 1210loPI    C119017   0.453  16.092   5.125 -0.0113 -0.3240  0.1056
 1210loPI    C219018   0.547  15.931   4.770  0.0940 -0.2634  0.1055
 1210loPI    C319019   0.271  16.220   4.793 -0.0105 -0.3614  0.0907
 1210loPI   PO419020   0.732  16.131   5.203  0.1996 -0.0734 -0.1670
 1210loPI   GL119021   0.719  16.176   5.665 -0.2348  0.1025  0.1616
 1210loPI   GL219022   1.003  16.302   5.645  0.0718  0.2442  0.0817
 1210loPI   C1A19023   0.812  16.106   6.117  0.2239  0.0642 -0.3765
 1210loPI   C2A19024   0.853  16.128   6.590  0.0571  0.0285 -0.0227
 1210loPI   C3A19025   0.724  16.118   7.065 -0.0161 -0.0281  0.1238
 1210loPI   C4A19026   0.448  16.196   7.373 -0.0875  0.0997  0.0747
 1210loPI   C5A19027   0.159  16.191   7.670 -0.0055  0.3123 -0.1300
 1210loPI   C6A19028  -0.279  16.214   7.760  0.2319 -0.4185  0.0369
 1210loPI   C1B19029   1.180  16.424   6.057  0.1206  0.4120 -0.1785
 1210loPI   C2B19030   1.193  16.523   6.494  0.0131  0.1596  0.0401
 1210loPI   C3B19031   1.180  16.436   6.934  0.0180 -0.0929 -0.0607
 1210loPI   C4B19032   1.165  16.471   7.378  0.0122  0.0518  0.2222
 1211loPI    C119033   6.547   2.117   4.777  0.1871  0.1384 -0.0162
 1211loPI    C219034   6.238   2.059   4.531 -0.0159 -0.1130  0.2906
 1211loPI    C319035   6.450   2.397   4.508 -0.0779 -0.0986 -0.1727
 1211loPI   PO419036   6.408   2.093   5.034  0.2173  0.0538  0.0521
 1211loPI   GL119037   6.108   2.197   5.438 -0.0853  0.1763 -0.1553
 1211loPI   GL219038   5.975   2.416   5.552  0.3474 -0.1024 -0.1031
 1211loPI   C1A19039   6.415   2.296   5.761  0.4064  0.1302  0.0033
 1211loPI   C2A19040   6.437   2.341   6.202  0.1748 -0.2071  0.0391
 1211loPI   C3A19041   6.603   2.263   6.579  0.0500 -0.0682  0.0061
 1211loPI   C4A19042   6.663   2.163   6.990  0.3125  0.0411  0.1689
 1211loPI   C5A19043   6.556   2.181   7.376 -0.0432 -0.1800 -0.2517
 1211loPI   C6A19044   6.444   2.150   7.775  0.0483 -0.1872 -0.1250
 1211loPI   C1B19045   5.932   2.313   5.964 -0.1197  0.1394 -0.1668
 1211loPI   C2B19046   6.009   2.483   6.378 -0.1483  0.1043  0.1902
 1211loPI   C3B19047   6.154   2.328   6.791  0.1060  0.1615 -0.0778
 1211loPI   C4B19048   6.125   2.345   7.287  0.0108 -0.0602  0.2063
 1212loPI    C119049  14.800  13.673   5.892 -0.1186 -0.1416 -0.1701
 1212loPI    C219050  15.081  13.872   5.689 -0.0295 -0.2189 -0.1238
 1212loPI    C319051  14.838  14.068   5.939  0.1422 -0.1865  0.0200
 1212loPI   PO419052  14.908  13.413   5.843 -0.1675  0.0365 -0.0807
 1212loPI   GL119053  15.007  13.066   6.157  0.0693 -0.1312 -0.2398
 1212loPI   GL219054  15.237  13.255   6.309 -0.1506 -0.1663 -0.1299
 1212loPI   C1A19055  15.085  12.837   6.574 -0.3657  0.1309  0.0327
 1212loPI   C2A19056  15.072  12.834   7.041 -0.1726  0.1503  0.3618
 1212loPI   C3A19057  15.071  12.903   7.436 -0.1756 -0.3974  0.1950
 1212loPI   C4A19058  15.126  13.191   7.755 -0.1535  0.2313 -0.3394
 1212loPI   C5A19059  15.188  13.192   8.143  0.0050  0.2408  0.1211
 1212loPI   C6A19060  14.888  13.206   8.527 -0.1337 -0.5272 -0.1263
 1212loPI   C1B19061  15.331  13.278   6.657 -0.2973 -0.1116 -0.0601
 1212loPI   C2B19062  15.401  13.185   7.024  0.0947 -0.1150  0.0377
 1212loPI   C3B19063  15.607  13.205   7.369 -0.0554 -0.1073 -0.1509
 1212loPI   C4B19064  15.729  13.193   7.804  0.1746 -0.0160  0.0391
 1213loPI    C119065   9.202  15.697   5.057  0.0227 -0.0989  0.0990
 1213loPI    C219066   9.349  15.339   5.160 -0.1032 -0.0810  0.3488
 1213loPI    C319067   9.104  15.372   4.846  0.2416 -0.1453  0.0665
 1213loPI   PO419068   9.070  15.783   5.303 -0.1911  0.0680 -0.2516
 1213loPI   GL119069   8.802  15.518   5.588 -0.0934 -0.2273 -0.2413
 1213loPI   GL219070   9.054  15.300   5.525 -0.0850  0.1782 -0.1254
 1213loPI   C1A19071   8.858  15.665   5.987  0.1777  0.1162 -0.2684
 1213loPI   C2A19072   8.804  15.636   6.465 -0.1180 -0.1611  0.1274
 1213loPI   C3A19073   8.744  15.483   6.886  0.1015 -0.1282  0.2885
 1213loPI   C4A19074   8.845  15.613   7.317 -0.0422 -0.0062  0.0078
 1213loPI   C5A19075   9.253  15.636   7.543  0.1129 -0.1808  0.0843
 1213loPI   C6A19076   9.370  15.784   7.937  0.3562 -0.0710 -0.0416
 1213loPI   C1B19077   8.987  15.130   6.019 -0.1301 -0.1068  0.0357
 1213loPI   C2B19078   9.034  15.114   6.497 -0.4607  0.1508  0.3836
 1213loPI   C3B19079   9.089  15.068   6.945 -0.0248  0.0740  0.0780
 1213loPI   C4B19080   9.077  15.138   7.519 -0.1720  0.2939  0.1028
 1214loPI    C119081   1.574   4.915   5.132  0.0628 -0.1090 -0.0390
 1214loPI    C219082   1.300   5.059   4.878 -0.0099  0.0696  0.1386
 1214loPI    C319083   1.584   4.811   4.745 -0.0729  0.1269 -0.1080
 1214loPI   PO419084   1.494   4.863   5.362 -0.0102 -0.1161 -0.0310
 1214loPI   GL119085   1.387   4.842   5.688  0.0500  0.0453  0.0350
 1214loPI   GL219086   1.188   5.092   5.879  0.1542 -0.0129  0.0727
 1214loPI   C1A19087   1.383   4.641   6.033  0.0307 -0.1395  0.0508
 1214loPI   C2A19088   1.297   4.663   6.490 -0.1685  0.0374  0.0849
 1214loPI   C3A19089   1.454   4.452   6.919  0.0206  0.2677 -0.0613
 1214loPI   C4A19090   1.463   4.510   7.313  0.2834 -0.2573 -0.0150
 1214loPI   C5A19091   1.315   4.651   7.811  0.0701  0.1834  0.0692
 1214loPI   C6A19092   1.588   4.743   8.229  0.0456 -0.0535  0.1668
 1214loPI   C1B19093   1.195   5.120   6.374 -0.0008  0.0393 -0.1446
 1214loPI   C2B19094   1.346   5.116   6.745 -0.1219 -0.0721 -0.2183
 1214loPI   C3B19095   1.274   5.254   7.192  0.1712 -0.1329 -0.1571
 1214loPI   C4B19096   1.347   5.103   7.641  0.1564 -0.1642 -0.1531
 1215loPI    C119097   6.007  16.343   4.833  0.2339 -0.2342  0.1471
 1215loPI    C219098   5.682  16.192   4.656  0.1935 -0.1014  0.1073
 1215loPI    C319099   6.001  15.960   4.718  0.1440 -0.1942  0.0168
 1215loPI   PO419100   5.988  16.389   5.034  0.2223  0.3528  0.0111
 1215loPI   GL119101   5.747  16.228   5.483  0.1478 -0.4539  0.1005
 1215loPI   GL219102   5.475  15.903   5.527 -0.3802  0.0393  0.1625
 1215loPI   C1A19103   5.620  16.269   5.916 -0.5332  0.1146  0.0743
 1215loPI   C2A19104   5.506  16.210   6.290  0.1800 -0.1580  0.1040
 1215loPI   C3A19105   5.368  16.163   6.720 -0.1026  0.0043  0.2593
 1215loPI   C4A19106   5.337  16.228   7.184  0.1323 -0.0128 -0.0962
 1215loPI   C5A19107   5.188  16.182   7.594  0.1438  0.0374 -0.0943
 1215loPI   C6A19108   5.166  16.144   8.015  0.1860 -0.2491 -0.0753
 1215loPI   C1B19109   5.255  15.947   5.871  0.0045  0.0311 -0.1104
 1215loPI   C2B19110   5.206  15.853   6.350 -0.1275 -0.1775 -0.1271
 1215loPI   C3B19111   5.088  15.772   6.757  0.0880 -0.1378  0.0781
 1215loPI   C4B19112   5.030  15.813   7.148  0.0570 -0.2150 -0.1322
 1216loPI    C119113   6.037   5.895   5.363  0.1034  0.1259 -0.2402
 1216loPI    C219114   6.016   5.840   4.967 -0.2084  0.0251 -0.2118
 1216loPI    C319115   5.824   5.591   5.215 -0.1533  0.1870 -0.0034
 1216loPI   PO419116   6.368   5.956   5.406  0.0319 -0.0389  0.2094
 1216loPI   GL119117   6.456   6.029   5.797  0.0297 -0.0883 -0.0119
 1216loPI   GL219118   6.179   5.744   5.959  0.0186  0.0323 -0.1639
 1216loPI   C1A19119   6.595   6.054   6.183 -0.0467  0.0407  0.0277
 1216loPI   C2A19120   6.562   5.974   6.658  0.3131 -0.1774  0.2633
 1216loPI   C3A19121   6.665   5.984   7.023  0.1491  0.1536  0.2515
 1216loPI   C4A19122   6.626   5.921   7.424 -0.0526  0.0676  0.1794
 1216loPI   C5A19123   6.411   5.836   7.878  0.2408  0.0551  0.2376
 1216loPI   C6A19124   6.499   6.024   8.265 -0.1216 -0.1364  0.3715
 1216loPI   C1B19125   6.134   5.718   6.379  0.2913 -0.1154 -0.1164
 1216loPI   C2B19126   6.207   5.635   6.766 -0.0323  0.2935  0.1550
 1216loPI   C3B19127   6.227   5.687   7.170 -0.1636 -0.2151  0.0902
 1216loPI   C4B19128   6.312   5.470   7.530 -0.3640 -0.0054 -0.1526
 1217loPI    C119129   7.902  17.302   5.335 -0.0607  0.3103  0.0814
 1217loPI    C219130   7.529  17.366   5.205 -0.0655 -0.0236 -0.0789
 1217loPI    C319131   7.640  17.000   5.324  0.2334  0.0560 -0.1040
 1217loPI   PO419132   7.953  17.453   5.457 -0.0188 -0.1000  0.1264
 1217loPI   GL119133   8.197  17.384   5.794  0.2442 -0.0264  0.2055
 1217loPI   GL219134   8.481  17.158   5.952  0.2263 -0.2164  0.0228
 1217loPI   C1A19135   8.503  17.594   6.171 -0.0154  0.0622 -0.2071
 1217loPI   C2A19136   8.525  17.579   6.641 -0.0462 -0.2096  0.0294
 1217loPI   C3A19137   8.416  17.455   7.030 -0.1951  0.1788 -0.1969
 1217loPI   C4A19138   8.403  17.498   7.471 -0.2706  0.2024  0.2080
 1217loPI   C5A19139   8.592  17.486   7.838  0.0406 -0.0283 -0.3340
 1217loPI   C6A19140   9.008  17.324   8.105  0.2198 -0.3475 -0.2855
 1217loPI   C1B19141   8.258  17.201   6.398  0.1996  0.2599 -0.3562
 1217loPI   C2B19142   8.186  17.050   6.788  0.0140  0.1816 -0.0048
 1217loPI   C3B19143   8.117  16.985   7.266 -0.2518 -0.0378 -0.1076
 1217loPI   C4B19144   8.099  17.093   7.753  0.0755 -0.0899  0.2811
 1218loPI    C119145   5.429  16.395   5.072  0.1090  0.0292 -0.2032
 1218loPI    C219146   5.620  16.672   5.288  0.0487 -0.2370  0.2030
 1218loPI    C319147   5.624  16.691   4.888  0.4773  0.0559  0.2153
 1218loPI   PO419148   5.181  16.314   5.331 -0.3532  0.1822  0.1222
 1218loPI   GL119149   5.180  16.381   5.708 -0.3578  0.0297  0.0568
 1218loPI   GL219150   5.282  16.682   5.652  0.3728  0.0927  0.1646
 1218loPI   C1A19151   4.996  16.323   6.031 -0.0865  0.0689  0.2117
 1218loPI   C2A19152   4.994  16.321   6.423  0.0032 -0.1030  0.0871
 1218loPI   C3A19153   4.953  16.258   6.923  0.0659  0.2811  0.1258
 1218loPI   C4A19154   4.731  16.319   7.327  0.0406  0.0295 -0.1510
 1218loPI   C5A19155   4.846  16.454   7.732  0.1679 -0.1701 -0.1343
 1218loPI   C6A19156   4.927  16.585   8.143 -0.1846 -0.1186  0.0005
 1218loPI   C1B19157   5.350  16.717   6.139 -0.0044  0.2121  0.0473
 1218loPI   C2B19158   5.230  16.773   6.539  0.0220 -0.1361  0.0969
 1218loPI   C3B19159   5.309  16.722   6.964 -0.3078  0.0903 -0.2617
 1218loPI   C4B19160   5.094  16.651   7.315 -0.0462  0.0470  0.2087
 1219loPI    C119161  17.870   8.606   5.118 -0.1104 -0.0357 -0.1119
 1219loPI    C219162  18.117   8.673   4.810  0.0442 -0.0964 -0.0026
 1219loPI    C319163  17.761   8.854   4.824  0.0020 -0.1557 -0.2569
 1219loPI   PO419164  17.998   8.548   5.354  0.1028 -0.0236 -0.0433
 1219loPI   GL119165  17.981   8.708   5.640  0.1724  0.1370 -0.0322
 1219loPI   GL219166  18.203   8.736   5.901  0.2606 -0.1130 -0.0473
 1219loPI   C1A19167  17.851   8.437   6.092 -0.0300  0.1862  0.1450
 1219loPI   C2A19168  17.932   8.449   6.569 -0.0200 -0.2982  0.0303
 1219loPI   C3A19169  17.854   8.492   6.973 -0.2597 -0.3663  0.1593
 1219loPI   C4A19170  17.742   8.495   7.431 -0.1960  0.2395  0.3735
 1219loPI   C5A19171  17.736   8.510   7.845 -0.0671 -0.2168 -0.3624
 1219loPI   C6A19172  17.735   8.088   8.040  0.2470  0.1637 -0.0780
 1219loPI   C1B19173  18.347   8.703   6.374  0.1135 -0.1016  0.0984
 1219loPI   C2B19174  18.342   8.779   6.879  0.1422  0.3546  0.4258
 1219loPI   C3B19175  18.171   8.775   7.308 -0.2035  0.2522  0.1834
 1219loPI   C4B19176  18.203   8.681   7.828 -0.2750 -0.0230  0.1334
 1220loPI    C119177   0.666   6.542   4.928 -0.0710 -0.0568 -0.0960
 1220loPI    C219178   0.326   6.733   5.020  0.0019  0.0747 -0.0957
 1220loPI    C319179   0.313   6.368   4.855 -0.1357 -0.0037  0.0854
 1220loPI   PO419180   0.778   6.468   5.102 -0.0662 -0.0903 -0.2936
 1220loPI   GL119181   0.904   6.327   5.457  0.0390 -0.1094  0.0485
 1220loPI   GL219182   1.133   6.118   5.562  0.2250  0.0987 -0.1956
 1220loPI   C1A19183   0.723   6.467   5.853  0.1359 -0.0049  0.0710
 1220loPI   C2A19184   0.621   6.395   6.264  0.1132  0.2598  0.2976
 1220loPI   C3A19185   0.575   6.445   6.581  0.0917  0.0154  0.0467
 1220loPI   C4A19186   0.696   6.369   7.040  0.3671  0.3403 -0.1696
 1220loPI   C5A19187   0.764   6.364   7.467 -0.0877  0.0295 -0.0238
 1220loPI   C6A19188   0.821   6.408   7.823  0.0489 -0.3966  0.1626
 1220loPI   C1B19189   1.102   6.173   5.971 -0.1117 -0.0829  0.0824
 1220loPI   C2B19190   1.107   6.206   6.403 -0.2002 -0.0140 -0.1093
 1220loPI   C3B19191   1.159   6.156   6.768 -0.2579 -0.1272  0.1016
 1220loPI   C4B19192   1.566   6.084   6.913  0.0771  0.0699  0.0888
 1221loPI    C119193  16.918  12.221   5.607 -0.1237  0.1411  0.0599
 1221loPI    C219194  16.948  12.125   5.220  0.0193 -0.0238  0.1106
 1221loPI    C319195  16.601  12.261   5.366 -0.0605 -0.0452 -0.0564
 1221loPI   PO419196  17.256  12.324   5.571  0.0568 -0.3747  0.0590
 1221loPI   GL119197  17.567  12.446   5.846  0.2932 -0.1884 -0.1331
 1221loPI   GL219198  17.444  12.748   5.750  0.1258 -0.0013  0.3019
 1221loPI   C1A19199  17.371  12.386   6.350 -0.2196  0.1533  0.3221
 1221loPI   C2A19200  17.544  12.188   6.772 -0.0796  0.0301 -0.0070
 1221loPI   C3A19201  17.675  12.030   7.256  0.0460 -0.1286 -0.2170
 1221loPI   C4A19202  17.782  11.722   7.551 -0.1472  0.2650  0.0293
 1221loPI   C5A19203  17.757  11.573   8.022 -0.1331 -0.2350  0.1876
 1221loPI   C6A19204  17.229  11.531   8.068  0.0520 -0.1690  0.3506
 1221loPI   C1B19205  17.272  12.912   6.211 -0.0690  0.1822  0.2195
 1221loPI   C2B19206  17.296  12.845   6.655 -0.0469  0.1347  0.2235
 1221loPI   C3B19207  17.393  12.575   7.040  0.0735  0.1044  0.0543
 1221loPI   C4B19208  17.729  12.561   7.283  0.1587 -0.3392 -0.1397
 1222loPI    C119209   6.030   1.590   4.560 -0.1426 -0.0506  0.0693
 1222loPI    C219210   6.027   1.190   4.541 -0.3038 -0.0473  0.0101
 1222loPI    C319211   5.686   1.394   4.504 -0.1743  0.1139 -0.3383
 1222loPI   PO419212   6.291   1.592   4.788  0.1857  0.2861  0.1447
 1222loPI   GL119213   6.191   1.652   5.232  0.2257  0.0890  0.0835
 1222loPI   GL219214   6.428   1.628   5.346 -0.3234 -0.1852 -0.0065
 1222loPI   C1A19215   5.895   1.518   5.604 -0.0535 -0.1387  0.2777
 1222loPI   C2A19216   5.754   1.559   6.079  0.1028  0.3040 -0.1805
 1222loPI   C3A19217   5.769   1.633   6.443  0.0701  0.0357  0.1028
 1222loPI   C4A19218   5.856   1.592   6.941  0.1138 -0.2597  0.0336
 1222loPI   C5A19219   5.821   1.630   7.331 -0.1173 -0.5829  0.2117
 1222loPI   C6A19220   5.668   1.415   7.663 -0.1226 -0.3966  0.0014
 1222loPI   C1B19221   6.302   1.837   5.733  0.3756  0.2567 -0.1677
 1222loPI   C2B19222   6.210   1.894   6.108 -0.0566 -0.0371  0.1531
 1222loPI   C3B19223   6.225   1.875   6.600  0.2301 -0.3127  0.0224
 1222loPI   C4B19224   6.290   1.849   7.058 -0.0444 -0.1815  0.1198
 1223loPI    C119225  14.250  10.163   5.570  0.0777 -0.2091 -0.2456
 1223loPI    C219226  14.502  10.401   5.370  0.0992 -0.0834 -0.0715
 1223loPI    C319227  14.331  10.090   5.185  0.1280  0.0230 -0.2805
 1223loPI   PO419228  14.309  10.306   5.858  0.0216  0.0499 -0.0868
 1223loPI   GL119229  14.477  10.203   6.245 -0.3601 -0.1376 -0.0268
 1223loPI   GL219230  14.661  10.492   6.183 -0.1578 -0.0406  0.1652
 1223loPI   C1A19231  14.483  10.126   6.729 -0.3137  0.0048  0.3927
 1223loPI   C2A19232  14.269  10.050   7.105 -0.1991  0.1886  0.1066
 1223loPI   C3A19233  14.052  10.302   7.410 -0.1066  0.1760  0.2059
 1223loPI   C4A19234  13.743  10.447   7.660  0.0415  0.1172  0.1095
 1223loPI   C5A19235  13.754  10.426   8.085 -0.0678  0.2173 -0.0846
 1223loPI   C6A19236  13.997  10.393   8.419  0.1928  0.1887  0.0735
 1223loPI   C1B19237  14.510  10.563   6.629 -0.0396 -0.1632  0.2108
 1223loPI   C2B19238  14.512  10.577   7.153  0.0699 -0.2292  0.0351
 1223loPI   C3B19239  14.488  10.778   7.605 -0.1669  0.3529  0.2077
 1223loPI   C4B19240  14.211  10.734   7.953 -0.1319  0.1406  0.1677
 1224loPI    C119241  14.163  13.503   5.493 -0.1257 -0.1135  0.2047
 1224loPI    C219242  13.810  13.337   5.407 -0.0987  0.0580 -0.2665
 1224loPI    C319243  14.143  13.200   5.233  0.0477  0.0095  0.0451
 1224loPI   PO419244  14.144  13.553   5.736 -0.2366  0.2052  0.4168
 1224loPI   GL119245  14.213  13.908   5.892 -0.0359  0.2688 -0.0883
 1224loPI   GL219246  14.030  14.183   6.097 -0.2320 -0.1113 -0.1736
 1224loPI   C1A19247  14.383  13.801   6.374 -0.0269  0.3848  0.4313
 1224loPI   C2A19248  14.342  13.804   6.817 -0.2873 -0.0819 -0.0437
 1224loPI   C3A19249  14.412  13.871   7.202 -0.1020  0.2105  0.0509
 1224loPI   C4A19250  14.469  13.954   7.691 -0.1959 -0.1615  0.0238
 1224loPI   C5A19251  14.526  13.777   8.001  0.2581 -0.2567  0.0852
 1224loPI   C6A19252  14.187  13.530   8.182  0.1031 -0.0904 -0.0151
 1224loPI   C1B19253  14.078  14.188   6.625 -0.1490 -0.2258  0.1569
 1224loPI   C2B19254  14.029  14.252   7.061 -0.3219  0.1548  0.2224
 1224loPI   C3B19255  14.021  14.224   7.463  0.0459 -0.1710  0.0921
 1224loPI   C4B19256  14.191  14.305   7.885  0.2529 -0.1459 -0.2564
 1225loPI    C119257   4.862   0.841   4.534 -0.1166  0.0415  0.0679
 1225loPI    C219258   5.160   0.755   4.282 -0.1191 -0.1207  0.1191
 1225loPI    C319259   4.837   0.952   4.150 -0.2226 -0.4041 -0.0594
 1225loPI   PO419260   4.939   0.936   4.728 -0.0561 -0.1210  0.2206
 1225loPI   GL119261   4.855   0.980   5.158  0.1614  0.2676 -0.0922
 1225loPI   GL219262   5.022   1.134   5.356  0.1200  0.1326  0.1538
 1225loPI   C1A19263   4.654   0.924   5.660  0.1468  0.2590 -0.0042
 1225loPI   C2A19264   4.636   0.896   6.039  0.3286 -0.2011 -0.0516
 1225loPI   C3A19265   4.600   1.036   6.504  0.0309  0.0044  0.0321
 1225loPI   C4A19266   4.658   0.983   6.964  0.2304  0.0482 -0.3895
 1225loPI   C5A19267   4.456   0.803   7.348 -0.1951 -0.2043  0.1307
 1225loPI   C6A19268   4.376   0.520   7.641  0.1971 -0.1189  0.0927
 1225loPI   C1B19269   4.977   1.239   5.820  0.0237  0.1581 -0.0402
 1225loPI   C2B19270   4.968   1.277   6.278  0.1822  0.0287  0.0135
 1225loPI   C3B19271   4.945   1.405   6.700 -0.0438  0.0112  0.1056
 1225loPI   C4B19272   4.924   1.407   7.037  0.2572  0.0652  0.0892
 1226loPI    C119273  12.451   6.654   5.392 -0.0546 -0.0838  0.0680
 1226loPI    C219274  12.255   6.990   5.299  0.1068 -0.0062  0.0037
 1226loPI    C319275  12.310   6.708   5.021  0.1049 -0.0187  0.0160
 1226loPI   PO419276  12.236   6.595   5.639 -0.3009  0.0093  0.0360
 1226loPI   GL119277  12.130   6.356   5.927 -0.3003 -0.2066  0.1431
 1226loPI   GL219278  12.276   6.124   5.977  0.0214 -0.3987  0.1978
 1226loPI   C1A19279  11.985   6.418   6.335 -0.0072 -0.1773 -0.2890
 1226loPI   C2A19280  12.092   6.395   6.756  0.1524 -0.2766  0.2829
 1226loPI   C3A19281  12.100   6.347   7.227  0.0981 -0.1729  0.1330
 1226loPI   C4A19282  12.268   6.382   7.572  0.1877  0.0576  0.3263
 1226loPI   C5A19283  12.499   6.126   7.918  0.1683 -0.1770  0.2011
 1226loPI   C6A19284  12.594   6.421   8.204 -0.1965  0.0147 -0.0410
 1226loPI   C1B19285  12.471   6.061   6.363 -0.1532  0.2973  0.2151
 1226loPI   C2B19286  12.389   6.014   6.801 -0.1195 -0.1300  0.1960
 1226loPI   C3B19287  12.324   5.769   7.073 -0.0517  0.0892 -0.2057
 1226loPI   C4B19288  12.482   5.784   7.510  0.1538 -0.0506  0.2689
 1227loPI    C119289  16.951  17.770   5.456 -0.3257  0.0453 -0.0722
 1227loPI    C219290  16.730  17.772   5.122 -0.0705 -0.1382 -0.2466
 1227loPI    C319291  17.121  17.853   5.103 -0.1303  0.2595  0.0696
 1227loPI   PO419292  16.834  17.605   5.593 -0.0062 -0.0015  0.2793
 1227loPI   GL119293  16.995  17.502   6.025 -0.1508 -0.0821  0.2418
 1227loPI   GL219294  17.228  17.678   6.198  0.0444 -0.1926 -0.0536
 1227loPI   C1A19295  16.672  17.505   6.241  0.1493 -0.0959 -0.0445
 1227loPI   C2A19296  16.599  17.456   6.659 -0.1304  0.0279 -0.3650
 1227loPI   C3A19297  16.507  17.354   7.037 -0.4682  0.0772 -0.1482
 1227loPI   C4A19298  16.353  17.172   7.413  0.0019  0.2132  0.3030
 1227loPI   C5A19299  16.042  16.971   7.701 -0.1071 -0.0282 -0.0076
 1227loPI   C6A19300  16.124  16.801   8.201  0.0951 -0.1545  0.0659
 1227loPI   C1B19301  17.434  18.029   6.371  0.1712 -0.1060  0.0322
 1227loPI   C2B19302  17.605  18.282   6.600 -0.2267 -0.0120 -0.3096
 1227loPI   C3B19303  17.546  18.351   6.956 -0.0970 -0.2557  0.1514
 1227loPI   C4B19304  17.254  18.265   7.314  0.0493  0.2323 -0.2907
 1228loPI    C119305  17.707  14.885   5.762 -0.0554 -0.1780 -0.0287
 1228loPI    C219306  17.848  14.856   5.389  0.1342 -0.1049  0.0361
 1228loPI    C319307  18.093  14.958   5.688 -0.0649  0.0607  0.1455
 1228loPI   PO419308  17.638  14.710   5.825 -0.2270 -0.1570 -0.0202
 1228loPI   GL119309  17.349  14.609   6.101  0.2368 -0.2820  0.0728
 1228loPI   GL219310  17.229  14.307   6.037 -0.0004 -0.1660 -0.1978
 1228loPI   C1A19311  17.211  14.585   6.458 -0.1618  0.0588  0.0182
 1228loPI   C2A19312  17.058  14.792   6.913 -0.0859 -0.3949  0.2166
 1228loPI   C3A19313  16.821  14.847   7.294  0.5135  0.3205 -0.0849
 1228loPI   C4A19314  16.384  14.987   7.507 -0.2744  0.0623  0.1195
 1228loPI   C5A19315  15.956  14.809   7.582  0.0326  0.1276  0.0622
 1228loPI   C6A19316  15.576  14.624   7.574 -0.0702  0.2271  0.2859
 1228loPI   C1B19317  17.556  14.209   6.426  0.1451 -0.1698 -0.0999
 1228loPI   C2B19318  17.674  14.181   6.890 -0.1083 -0.0509  0.0258
 1228loPI   C3B19319  17.811  13.982   7.266 -0.0745  0.1365  0.1594
 1228loPI   C4B19320  18.165  14.163   7.447  0.0353 -0.1293 -0.1947
 1229loPI    C119321  10.197   4.329   5.271 -0.0154 -0.1172 -0.0384
 1229loPI    C219322  10.301   4.607   5.003  0.0770 -0.1595 -0.0467
 1229loPI    C319323  10.189   4.244   4.881  0.0164 -0.1456 -0.0329
 1229loPI   PO419324   9.980   4.498   5.452  0.1051 -0.0812 -0.0908
 1229loPI   GL119325   9.934   4.606   5.916  0.1222 -0.1469 -0.1285
 1229loPI   GL219326  10.183   4.799   6.033 -0.1786 -0.0982 -0.2662
 1229loPI   C1A19327   9.836   4.601   6.351 -0.0542 -0.0199 -0.0110
 1229loPI   C2A19328   9.715   4.678   6.688 -0.2752 -0.0088  0.0245
 1229loPI   C3A19329   9.815   4.640   7.154  0.2971  0.1247  0.3260
 1229loPI   C4A19330   9.760   4.689   7.530  0.2797 -0.0916 -0.2944
 1229loPI   C5A19331   9.711   4.364   7.850  0.1035  0.2971  0.1694
 1229loPI   C6A19332   9.950   4.264   8.209 -0.1436  0.1482  0.0532
 1229loPI   C1B19333  10.282   4.887   6.470  0.0926  0.2405  0.0424
 1229loPI   C2B19334  10.118   5.044   6.891 -0.3840  0.0948 -0.3809
 1229loPI   C3B19335  10.187   4.941   7.275 -0.1017  0.1014 -0.1364
 1229loPI   C4B19336  10.103   5.230   7.546  0.0113  0.0493 -0.1680
 1230loPI    C119337  12.459  13.558   5.142  0.0026 -0.1635 -0.1703
 1230loPI    C219338  12.636  13.215   5.037  0.0631 -0.2496  0.1981
 1230loPI    C319339  12.776  13.563   4.899  0.3156 -0.3397  0.2219
 1230loPI   PO419340  12.445  13.544   5.353 -0.1311  0.0185 -0.1691
 1230loPI   GL119341  12.593  13.406   5.749  0.1784  0.0309 -0.0259
 1230loPI   GL219342  12.900  13.502   5.883  0.0451  0.1410  0.0727
 1230loPI   C1A19343  12.333  13.597   6.125  0.0475  0.3527  0.1828
 1230loPI   C2A19344  12.323  13.523   6.529  0.1110 -0.1215  0.2402
 1230loPI   C3A19345  12.266  13.515   6.937 -0.0041 -0.0906 -0.1676
 1230loPI   C4A19346  12.274  13.536   7.409 -0.2702  0.0036 -0.1058
 1230loPI   C5A19347  12.285  13.562   7.751 -0.0689 -0.0971  0.1095
 1230loPI   C6A19348  12.533  13.798   8.026 -0.2640  0.0187 -0.1068
 1230loPI   C1B19349  12.809  13.567   6.325 -0.3261 -0.4495  0.0699
 1230loPI   C2B19350  12.778  13.496   6.805 -0.1959 -0.1460  0.1301
 1230loPI   C3B19351  12.890  13.613   7.279  0.0366  0.0728  0.2058
 1230loPI   C4B19352  12.888  13.722   7.672 -0.0416 -0.3287 -0.3894
 1231loPI    C119353   5.841   0.213   4.760  0.1828 -0.0716  0.0569
 1231loPI    C219354   6.175   0.030   4.883  0.2583 -0.1093 -0.1984
 1231loPI    C319355   5.964  -0.122   4.579  0.0786 -0.0141 -0.1230
 1231loPI   PO419356   5.767   0.321   4.940  0.0877  0.1685 -0.0175
 1231loPI   GL119357   5.734   0.545   5.304  0.0054  0.0041  0.1935
 1231loPI   GL219358   5.814   0.253   5.458  0.0905  0.1377 -0.1877
 1231loPI   C1A19359   5.682   0.763   5.711  0.0080  0.0089  0.1328
 1231loPI   C2A19360   5.613   0.682   6.179 -0.2897  0.0964  0.1308
 1231loPI   C3A19361   5.531   0.723   6.731 -0.0698 -0.3047  0.1898
 1231loPI   C4A19362   5.598   0.711   7.179 -0.1538 -0.1133  0.2516
 1231loPI   C5A19363   5.549   0.904   7.585  0.0927 -0.0675 -0.1002
 1231loPI   C6A19364   5.141   0.928   7.937 -0.1114 -0.2066 -0.1675
 1231loPI   C1B19365   5.783   0.169   5.944  0.2242 -0.1557 -0.0565
 1231loPI   C2B19366   5.801   0.178   6.327 -0.0742  0.0616  0.1507
 1231loPI   C3B19367   5.741   0.244   6.788  0.2374 -0.0306  0.1089
 1231loPI   C4B19368   5.601   0.240   7.213 -0.0145  0.0349  0.3513
 1232loPI    C119369  10.888  14.991   5.237  0.0357  0.0206 -0.3831
 1232loPI    C219370  11.166  15.272   5.300 -0.1260  0.0699  0.1576
 1232loPI    C319371  11.273  14.888   5.270  0.0367  0.1274 -0.0191
 1232loPI   PO419372  10.706  15.098   5.357  0.2964  0.3271 -0.1159
 1232loPI   GL119373  10.613  15.378   5.669  0.0156 -0.3070 -0.0892
 1232loPI   GL219374  10.949  15.372   5.705  0.1161 -0.0635  0.2462
 1232loPI   C1A19375  10.381  15.367   6.020  0.0484 -0.3524 -0.0439
 1232loPI   C2A19376  10.327  15.360   6.470 -0.1074  0.0323  0.1123
 1232loPI   C3A19377  10.278  15.434   6.899  0.1031  0.1582 -0.0628
 1232loPI   C4A19378  10.285  15.389   7.335 -0.2193  0.1959 -0.3947
 1232loPI   C5A19379  10.501  15.489   7.659 -0.0547  0.1452  0.1523
 1232loPI   C6A19380  10.604  15.469   8.074 -0.0654  0.1560 -0.1044
 1232loPI   C1B19381  10.844  15.395   6.172  0.1099 -0.0014  0.0212
 1232loPI   C2B19382  10.817  15.317   6.612  0.1904  0.0842 -0.1601
 1232loPI   C3B19383  10.875  15.337   7.150  0.1909 -0.0185 -0.0728
 1232loPI   C4B19384  10.983  15.298   7.543  0.3869 -0.4982  0.0374
 1233loPI    C119385  10.135  18.147   5.236 -0.0857 -0.0588  0.0225
 1233loPI    C219386  10.213  17.898   5.539 -0.0007 -0.0599 -0.0002
 1233loPI    C319387   9.999  17.771   5.225 -0.0820 -0.0611  0.0555
 1233loPI   PO419388   9.986  18.382   5.347  0.2148  0.1285  0.5212
 1233loPI   GL119389   9.907  18.594   5.707  0.0922 -0.1791 -0.0851
 1233loPI   GL219390   9.682  18.574   5.841  0.2491  0.1308  0.2613
 1233loPI   C1A19391  10.092  18.724   6.053 -0.2511  0.0268 -0.0118
 1233loPI   C2A19392  10.135  18.629   6.462 -0.0651  0.1969  0.1414
 1233loPI   C3A19393  10.029  18.626   6.956 -0.0590  0.1277 -0.1008
 1233loPI   C4A19394   9.957  18.586   7.404  0.2953  0.0581  0.0956
 1233loPI   C5A19395   9.947  18.528   7.800 -0.0924  0.4857 -0.1835
 1233loPI   C6A19396   9.746  18.194   8.012 -0.1710 -0.1005  0.0937
 1233loPI   C1B19397   9.635  18.698   6.226  0.3400  0.1833  0.0699
 1233loPI   C2B19398   9.605  18.704   6.688 -0.0387 -0.0627  0.1672
 1233loPI   C3B19399   9.443  18.670   7.142  0.3258 -0.1145  0.1330
 1233loPI   C4B19400   9.415  18.576   7.644 -0.0393  0.1296 -0.0034
 1234loPI    C119401   6.329   4.973   4.986  0.0683  0.1661 -0.0024
 1234loPI    C219402   6.683   5.132   4.891  0.1317  0.0659  0.0641
 1234loPI    C319403   6.401   5.092   4.611  0.1820  0.1221  0.0050
 1234loPI   PO419404   6.393   4.784   5.105 -0.0627  0.0873  0.1197
 1234loPI   GL119405   6.309   4.802   5.478  0.1231 -0.0060  0.0076
 1234loPI   GL219406   6.074   4.513   5.480 -0.1152 -0.0273  0.2373
 1234loPI   C1A19407   6.416   4.734   5.865 -0.0276  0.3177  0.1655
 1234loPI   C2A19408   6.488   4.623   6.284  0.0859 -0.0765 -0.1934
 1234loPI   C3A19409   6.520   4.629   6.674 -0.0444 -0.1640  0.2735
 1234loPI   C4A19410   6.565   4.571   7.130  0.1636 -0.1028  0.0952
 1234loPI   C5A19411   6.552   4.528   7.527  0.0075  0.3265 -0.1324
 1234loPI   C6A19412   6.629   4.291   7.931 -0.0407  0.2302 -0.0969
 1234loPI   C1B19413   6.090   4.391   5.892  0.2419  0.1313  0.0295
 1234loPI   C2B19414   6.071   4.256   6.284 -0.1204 -0.0342  0.0388
 1234loPI   C3B19415   6.114   4.246   6.758  0.3285  0.3142  0.0817
 1234loPI   C4B19416   6.187   4.186   7.215 -0.1629  0.0251  0.0510
 1235loPI    C119417   6.996  12.723   5.560 -0.0500 -0.0732 -0.0855
 1235loPI    C219418   6.968  13.103   5.440 -0.0028 -0.0647 -0.0700
 1235loPI    C319419   7.218  12.852   5.253  0.1846 -0.0123  0.1064
 1235loPI   PO419420   7.030  12.693   5.820  0.2281 -0.2753  0.1033
 1235loPI   GL119421   6.790  12.693   6.121 -0.0205  0.3938  0.0869
 1235loPI   GL219422   7.063  12.667   6.296 -0.0259  0.1564  0.4233
 1235loPI   C1A19423   6.568  12.908   6.406  0.4174 -0.2746 -0.0602
 1235loPI   C2A19424   6.520  13.032   6.821 -0.0577 -0.2841 -0.0264
 1235loPI   C3A19425   6.472  13.051   7.307 -0.0200  0.1244  0.0254
 1235loPI   C4A19426   6.762  12.962   7.642  0.1414  0.1187  0.0712
 1235loPI   C5A19427   6.751  13.072   7.974  0.0386  0.2231  0.2147
 1235loPI   C6A19428   6.512  13.042   8.391  0.0729 -0.1239 -0.0281
 1235loPI   C1B19429   6.932  12.787   6.717 -0.3534  0.0222  0.0391
 1235loPI   C2B19430   7.008  12.912   7.168  0.2029 -0.1292  0.1158
 1235loPI   C3B19431   7.240  12.821   7.526  0.1377 -0.0901 -0.3716
 1235loPI   C4B19432   7.192  12.848   7.956  0.3379  0.2223  0.0177
 1236loPI    C119433  16.570  10.092   5.608 -0.1922  0.0417  0.0728
 1236loPI    C219434  16.555  10.342   5.297  0.0088 -0.0256  0.0069
 1236loPI    C319435  16.858  10.365   5.556 -0.0490 -0.1060  0.0822
 1236loPI   PO419436  16.403   9.882   5.444 -0.0935 -0.0225 -0.1581
 1236loPI   GL119437  16.371   9.523   5.681 -0.0615 -0.0311 -0.1467
 1236loPI   GL219438  16.704   9.673   5.872  0.0853  0.0025  0.0183
 1236loPI   C1A19439  16.248   9.560   6.157  0.2758 -0.2245 -0.0687
 1236loPI   C2A19440  16.363   9.560   6.637 -0.0691  0.1341  0.0595
 1236loPI   C3A19441  16.322   9.619   7.018  0.1988  0.0216 -0.3748
 1236loPI   C4A19442  16.283   9.631   7.443  0.2486  0.2446  0.1477
 1236loPI   C5A19443  16.432   9.572   7.864 -0.2177 -0.1115  0.0011
 1236loPI   C6A19444  16.410   9.232   8.172 -0.0325 -0.0989  0.2597
 1236loPI   C1B19445  16.788   9.395   6.225  0.1507 -0.0078  0.1667
 1236loPI   C2B19446  16.829   9.405   6.636 -0.0583 -0.0466  0.0864
 1236loPI   C3B19447  16.787   9.407   7.016 -0.0950  0.0883 -0.2102
 1236loPI   C4B19448  16.785   9.492   7.417  0.1241  0.0425 -0.0429
 1237loPI    C119449  17.219  15.500   5.911 -0.0152  0.1269 -0.2035
 1237loPI    C219450  17.544  15.730   5.949  0.0124  0.0755 -0.1230
 1237loPI    C319451  17.276  15.807   5.662  0.1066  0.1045 -0.2041
 1237loPI   PO419452  17.123  15.493   6.118 -0.1240 -0.3405 -0.0202
 1237loPI   GL119453  16.893  15.488   6.477 -0.0166 -0.0872 -0.0903
 1237loPI   GL219454  16.590  15.326   6.340 -0.0162  0.3503 -0.0343
 1237loPI   C1A19455  16.871  15.416   6.940 -0.2842 -0.0493 -0.0696
 1237loPI   C2A19456  16.952  15.342   7.328  0.0023  0.1184 -0.1587
 1237loPI   C3A19457  16.768  15.228   7.772 -0.1207 -0.3111  0.2113
 1237loPI   C4A19458  16.693  15.180   8.106 -0.0791  0.1435 -0.2004
 1237loPI   C5A19459  16.436  15.155   8.472 -0.1303  0.0518 -0.1051
 1237loPI   C6A19460  16.046  15.094   8.371 -0.0162  0.0050 -0.1363
 1237loPI   C1B19461  16.372  15.502   6.656  0.1399 -0.3200  0.1568
 1237loPI   C2B19462  16.120  15.825   6.743 -0.0428  0.0932 -0.3578
 1237loPI   C3B19463  16.263  15.822   7.144 -0.0515 -0.1836 -0.0813
 1237loPI   C4B19464  16.003  15.911   7.499 -0.2302 -0.1289 -0.0525
 1238loPI    C119465   0.278  15.244   5.517  0.2081  0.3042  0.0316
 1238loPI    C219466   0.277  15.212   5.118 -0.1276  0.1159  0.0439
 1238loPI    C319467  -0.064  15.288   5.314 -0.0466 -0.2229  0.3256
 1238loPI   PO419468   0.466  15.437   5.548 -0.0638  0.3478  0.0329
 1238loPI   GL119469   0.644  15.430   5.859  0.0493 -0.0778  0.1115
 1238loPI   GL219470   0.530  15.631   5.995 -0.0706  0.1604 -0.1179
 1238loPI   C1A19471   1.023  15.487   5.978 -0.0436  0.0173 -0.0570
 1238loPI   C2A19472   1.014  15.560   6.478  0.0768 -0.1486  0.0370
 1238loPI   C3A19473   0.959  15.663   6.937 -0.0849 -0.2148  0.3052
 1238loPI   C4A19474   0.870  15.744   7.356 -0.1041 -0.1038  0.0900
 1238loPI   C5A19475   0.843  16.112   7.654 -0.1864 -0.1281  0.0749
 1238loPI   C6A19476   0.769  16.134   8.136 -0.1116  0.0070  0.0633
 1238loPI   C1B19477   0.581  15.794   6.404  0.0257 -0.0300  0.1592
 1238loPI   C2B19478   0.448  15.816   6.730  0.0171  0.0546 -0.3040
 1238loPI   C3B19479   0.435  15.693   7.202  0.1836  0.0088  0.1428
 1238loPI   C4B19480   0.433  15.711   7.641 -0.1755 -0.0718  0.0157
 1239loPI    C119481   5.639  10.190   5.388 -0.0140  0.0330 -0.1554
 1239loPI    C219482   6.035  10.248   5.373 -0.0274  0.1226 -0.1643
 1239loPI    C319483   5.848  10.065   5.070  0.0039  0.1005 -0.1702
 1239loPI   PO419484   5.628  10.157   5.613 -0.2577  0.2774 -0.0326
 1239loPI   GL119485   5.437  10.299   5.947 -0.2048 -0.3387 -0.2022
 1239loPI   GL219486   5.236  10.480   5.944  0.0680  0.0911 -0.0453
 1239loPI   C1A19487   5.503  10.137   6.426 -0.1599  0.2307  0.1715
 1239loPI   C2A19488   5.614  10.166   6.863  0.1964  0.0580 -0.0967
 1239loPI   C3A19489   5.624  10.142   7.341 -0.2594  0.1645 -0.0757
 1239loPI   C4A19490   5.835  10.172   7.785  0.0119 -0.1386 -0.0316
 1239loPI   C5A19491   6.201  10.214   7.913 -0.1984 -0.0127  0.3865
 1239loPI   C6A19492   6.524  10.331   8.057 -0.0274 -0.1961  0.2265
 1239loPI   C1B19493   5.099  10.335   6.371  0.1240 -0.0223  0.1199
 1239loPI   C2B19494   5.064  10.356   6.763 -0.0887 -0.3713  0.0363
 1239loPI   C3B19495   5.159  10.307   7.187  0.2191  0.1600  0.0855
 1239loPI   C4B19496   5.276  10.331   7.614  0.2082 -0.2207 -0.2085
 1240loPI    C119497   1.280   9.023   5.307  0.1637  0.1657 -0.2322
 1240loPI    C219498   1.189   8.664   5.155  0.0521  0.0080  0.1915
 1240loPI    C319499   1.425   8.915   4.951 -0.0521 -0.2131 -0.2103
 1240loPI   PO419500   1.302   8.926   5.552 -0.0498 -0.0528  0.3694
 1240loPI   GL119501   1.636   8.967   5.844  0.1752  0.3871  0.2092
 1240loPI   GL219502   1.677   9.362   5.906 -0.1570 -0.0220  0.2129
 1240loPI   C1A19503   1.967   9.009   6.240  0.0745 -0.1524 -0.0948
 1240loPI   C2A19504   2.115   9.003   6.634 -0.1154 -0.1083  0.1693
 1240loPI   C3A19505   2.338   8.694   6.973  0.0412  0.1081 -0.0615
 1240loPI   C4A19506   2.369   8.742   7.388  0.0020  0.1631 -0.0788
 1240loPI   C5A19507   2.233   8.561   7.742 -0.1648 -0.1872  0.0444
 1240loPI   C6A19508   2.109   8.221   7.879 -0.1179 -0.2939 -0.4085
 1240loPI   C1B19509   1.770   9.470   6.391 -0.1921 -0.0074 -0.2094
 1240loPI   C2B19510   1.966   9.405   6.792  0.3642  0.0814 -0.3541
 1240loPI   C3B19511   2.145   9.206   7.115  0.1866 -0.0159  0.1171
 1240loPI   C4B19512   2.078   9.575   7.274 -0.0673  0.0456 -0.0796
 1241loPI    C119513   4.374  10.400   5.120 -0.0974 -0.0654 -0.0682
 1241loPI    C219514   4.681  10.259   4.906  0.0603  0.2018 -0.0238
 1241loPI    C319515   4.374  10.438   4.722  0.0589  0.1754 -0.0472
 1241loPI   PO419516   4.454  10.601   5.264 -0.1278 -0.0243  0.3100
 1241loPI   GL119517   4.344  10.581   5.599  0.0013 -0.0932 -0.2000
 1241loPI   GL219518   4.678  10.598   5.777 -0.0803  0.2161  0.0567
 1241loPI   C1A19519   4.164  10.631   6.020 -0.0965 -0.0054  0.0135
 1241loPI   C2A19520   4.089  10.573   6.513  0.0293  0.1869  0.2088
 1241loPI   C3A19521   4.059  10.539   6.910  0.1838  0.2036  0.2252
 1241loPI   C4A19522   4.131  10.494   7.290  0.2819  0.0638  0.6262
 1241loPI   C5A19523   4.198  10.465   7.718  0.2661 -0.0644 -0.0553
 1241loPI   C6A19524   4.159  10.630   8.158  0.2159 -0.0582 -0.1639
 1241loPI   C1B19525   4.613  10.535   6.139 -0.2812  0.0227 -0.4037
 1241loPI   C2B19526   4.601  10.450   6.571  0.0664 -0.1505  0.3796
 1241loPI   C3B19527   4.560  10.441   7.003  0.2258 -0.3004  0.0052
 1241loPI   C4B19528   4.632  10.424   7.420  0.0470 -0.0278 -0.3292
 1242loPI    C119529  11.011   9.080   5.105  0.0331 -0.1054 -0.1610
 1242loPI    C219530  10.624   9.156   5.036 -0.0038 -0.0076  0.1399
 1242loPI    C319531  10.906   9.343   4.823 -0.1197 -0.0103 -0.0170
 1242loPI   PO419532  11.017   9.103   5.401 -0.1375 -0.1460  0.1426
 1242loPI   GL119533  11.039   9.195   5.724  0.1163  0.0740  0.0439
 1242loPI   GL219534  10.779   8.947   5.911 -0.1177 -0.3703  0.0629
 1242loPI   C1A19535  11.171   9.115   6.221  0.2108 -0.2678  0.2373
 1242loPI   C2A19536  11.126   8.970   6.482  0.0178  0.2461 -0.0935
 1242loPI   C3A19537  11.000   8.829   6.838 -0.0660  0.2452  0.2834
 1242loPI   C4A19538  10.827   8.676   7.186  0.1065 -0.4852  0.0481
 1242loPI   C5A19539  10.815   8.489   7.582 -0.1286 -0.1546 -0.0011
 1242loPI   C6A19540  10.899   8.067   7.768  0.0404 -0.0919  0.0203
 1242loPI   C1B19541  10.975   8.660   6.097  0.0459 -0.0576  0.0180
 1242loPI   C2B19542  10.864   8.553   6.451 -0.3720  0.1643 -0.1265
 1242loPI   C3B19543  10.813   8.353   6.802  0.1014  0.1763  0.3183
 1242loPI   C4B19544  10.724   8.196   7.187 -0.0935 -0.2360  0.2282
 1243loPI    C119545   8.214   5.778   5.214  0.2203  0.0083 -0.1670
 1243loPI    C219546   8.058   5.428   5.099 -0.1312  0.0559  0.1447
 1243loPI    C319547   8.382   5.435   5.333  0.1987 -0.0474 -0.2951
 1243loPI   PO419548   7.989   5.911   5.258  0.0078 -0.1585  0.0650
 1243loPI   GL119549   7.823   6.271   5.624  0.1024  0.0687 -0.1025
 1243loPI   GL219550   7.660   5.948   5.641  0.1275 -0.0203 -0.0007
 1243loPI   C1A19551   7.650   6.208   6.050  0.1243  0.4044 -0.0734
 1243loPI   C2A19552   7.577   6.341   6.429  0.0670  0.1300  0.1515
 1243loPI   C3A19553   7.426   6.198   6.685 -0.0803 -0.2503  0.0594
 1243loPI   C4A19554   7.421   6.264   7.126  0.1123 -0.0162 -0.1210
 1243loPI   C5A19555   7.349   6.183   7.587  0.3433 -0.0375  0.0501
 1243loPI   C6A19556   7.377   5.983   7.937 -0.0329 -0.1240  0.2434
 1243loPI   C1B19557   7.884   5.771   6.029  0.2244 -0.0455 -0.0511
 1243loPI   C2B19558   8.053   5.503   6.449 -0.0873  0.0762  0.3009
 1243loPI   C3B19559   8.153   5.499   6.839  0.1963 -0.2507  0.1426
 1243loPI   C4B19560   8.110   5.625   7.229  0.0284  0.0094 -0.3194
 1244loPI    C119561   9.647   8.782   5.486 -0.0636  0.0667  0.0559
 1244loPI    C219562   9.840   8.693   5.147 -0.1318 -0.0482  0.0468
 1244loPI    C319563   9.465   8.833   5.133 -0.2071 -0.2425  0.0817
 1244loPI   PO419564   9.861   8.864   5.645  0.1454  0.0705  0.0979
 1244loPI   GL119565  10.337   8.840   5.823  0.2937  0.1751  0.1654
 1244loPI   GL219566  10.081   8.898   6.143 -0.0972 -0.4024 -0.1055
 1244loPI   C1A19567  10.558   8.864   6.297 -0.0629  0.3223  0.0864
 1244loPI   C2A19568  10.474   8.830   6.701 -0.1286 -0.2565 -0.1579
 1244loPI   C3A19569  10.264   8.999   7.008  0.0613  0.0954  0.1984
 1244loPI   C4A19570  10.096   9.126   7.343 -0.1592  0.2053  0.1336
 1244loPI   C5A19571   9.945   9.350   7.694  0.2264 -0.2967  0.3220
 1244loPI   C6A19572   9.495   9.403   7.866 -0.1302  0.0327  0.0101
 1244loPI   C1B19573   9.940   8.797   6.497  0.1175 -0.0184 -0.2483
 1244loPI   C2B19574   9.862   8.777   6.942  0.1060  0.2659 -0.1327
 1244loPI   C3B19575   9.617   8.540   7.211 -0.0619 -0.1653  0.2240
 1244loPI   C4B19576   9.214   8.441   7.316  0.1947  0.2616  0.3583
 1245loPI    C119577   6.986   6.360   4.991 -0.0077 -0.1574  0.0989
 1245loPI    C219578   7.089   5.976   5.041  0.1615 -0.1569 -0.2213
 1245loPI    C319579   6.975   6.108   4.681  0.1148  0.0969 -0.1160
 1245loPI   PO419580   6.946   6.499   5.310 -0.0488  0.1779  0.1051
 1245loPI   GL119581   6.934   6.631   5.742 -0.0185  0.1529  0.3107
 1245loPI   GL219582   7.126   6.932   5.883  0.0560  0.1993  0.1150
 1245loPI   C1A19583   6.645   6.520   6.064 -0.1236 -0.3531  0.2064
 1245loPI   C2A19584   6.459   6.585   6.495 -0.0411  0.0542 -0.0339
 1245loPI   C3A19585   6.503   6.438   6.797 -0.1895  0.0700 -0.4289
 1245loPI   C4A19586   6.367   6.378   7.236  0.0447 -0.2310  0.1964
 1245loPI   C5A19587   6.491   6.370   7.673 -0.2722 -0.0687  0.1362
 1245loPI   C6A19588   6.859   6.187   7.823  0.1195 -0.1527 -0.0960
 1245loPI   C1B19589   6.965   6.865   6.248 -0.1163 -0.2836  0.1937
 1245loPI   C2B19590   6.947   6.906   6.629  0.3506 -0.0079 -0.0359
 1245loPI   C3B19591   6.814   6.813   6.972  0.2429 -0.1385 -0.0944
 1245loPI   C4B19592   6.773   6.791   7.424  0.2703 -0.1911 -0.1929
 1246loPI    C119593   2.749  15.545   5.050  0.3578 -0.0519 -0.1615
 1246loPI    C219594   2.854  15.845   5.293  0.0369  0.0483 -0.1418
 1246loPI    C319595   2.720  15.924   4.924 -0.1462 -0.0636 -0.1004
 1246loPI   PO419596   2.665  15.353   5.322 -0.1449  0.0448  0.3312
 1246loPI   GL119597   2.681  15.482   5.729  0.1928 -0.1410 -0.0362
 1246loPI   GL219598   2.762  15.743   5.775 -0.2011  0.0287  0.1358
 1246loPI   C1A19599   2.907  15.408   6.151 -0.1125  0.0482  0.1264
 1246loPI   C2A19600   2.944  15.159   6.473  0.5022  0.0029 -0.1603
 1246loPI   C3A19601   2.916  14.996   6.884 -0.0440 -0.1901  0.0475
 1246loPI   C4A19602   2.902  15.000   7.258 -0.0406  0.4780 -0.1534
 1246loPI   C5A19603   3.038  15.388   7.535  0.2038 -0.4717  0.2008
 1246loPI   C6A19604   2.930  15.730   7.735  0.0164  0.1207  0.2206
 1246loPI   C1B19605   2.745  15.981   6.171  0.2796 -0.0208  0.2525
 1246loPI   C2B19606   2.628  16.073   6.591 -0.1156  0.0678  0.0634
 1246loPI   C3B19607   2.664  15.967   6.987  0.0736 -0.1186 -0.1876
 1246loPI   C4B19608   2.661  16.013   7.406  0.0162  0.1484 -0.1962
 1247loPI    C119609   0.305   2.821   5.186  0.0622 -0.1909  0.1064
 1247loPI    C219610   0.618   2.819   4.937 -0.0261  0.1672 -0.0146
 1247loPI    C319611   0.250   2.758   4.795 -0.0333 -0.0660  0.0990
 1247loPI   PO419612   0.470   2.768   5.427 -0.1956 -0.4005 -0.0034
 1247loPI   GL119613   0.543   2.593   5.828  0.1594 -0.2134  0.1810
 1247loPI   GL219614   0.884   2.782   5.786  0.1790  0.2719 -0.0658
 1247loPI   C1A19615   0.579   2.529   6.300 -0.2735 -0.0143  0.1184
 1247loPI   C2A19616   0.630   2.581   6.700  0.0292  0.1196 -0.2603
 1247loPI   C3A19617   0.481   2.567   7.143 -0.0731 -0.3466 -0.0339
 1247loPI   C4A19618   0.522   2.548   7.522 -0.0103  0.0040 -0.1710
 1247loPI   C5A19619   0.698   2.832   7.878 -0.1219  0.1769 -0.1457
 1247loPI   C6A19620   0.959   3.122   7.929 -0.1888  0.0640 -0.0073
 1247loPI   C1B19621   0.985   2.825   6.123 -0.2141 -0.1421  0.1698
 1247loPI   C2B19622   0.940   2.938   6.596  0.0194 -0.2757 -0.2059
 1247loPI   C3B19623   0.879   2.903   7.016 -0.1550 -0.1968 -0.2761
 1247loPI   C4B19624   0.888   2.977   7.459  0.2632 -0.0678 -0.1036
 1248loPI    C119625  10.403  10.566   5.724  0.0163  0.1617 -0.0946
 1248loPI    C219626  10.269  10.522   5.350 -0.2886  0.1248  0.0154
 1248loPI    C319627  10.564  10.781   5.428 -0.2525  0.1639 -0.2419
 1248loPI   PO419628  10.205  10.614   5.836 -0.0700  0.0648 -0.0436
 1248loPI   GL119629  10.133  10.550   6.228 -0.1550 -0.1425  0.0240
 1248loPI   GL219630   9.873  10.707   6.279 -0.0977 -0.1184 -0.2084
 1248loPI   C1A19631  10.041  10.508   6.689  0.0182 -0.3800  0.1372
 1248loPI   C2A19632   9.895  10.339   7.066  0.2691 -0.0676 -0.3233
 1248loPI   C3A19633   9.939  10.087   7.442 -0.0869 -0.3219 -0.0649
 1248loPI   C4A19634  10.181   9.840   7.628  0.1933  0.1445  0.0140
 1248loPI   C5A19635  10.408   9.806   8.027 -0.1625 -0.0314  0.0919
 1248loPI   C6A19636  10.467   9.581   8.397 -0.0607 -0.2266  0.1507
 1248loPI   C1B19637   9.676  10.917   6.613  0.2875  0.0405  0.0664
 1248loPI   C2B19638   9.834  10.902   7.056 -0.2698 -0.2743 -0.0544
 1248loPI   C3B19639   9.719  10.897   7.470 -0.0921 -0.1294  0.1511
 1248loPI   C4B19640   9.830  11.041   7.880 -0.2385  0.0999  0.3892
 1249loPI    C119641   4.381   6.906   5.153 -0.0400  0.1928 -0.0957
 1249loPI    C219642   4.710   7.131   5.113  0.0269  0.0877 -0.1405
 1249loPI    C319643   4.703   6.758   4.967 -0.0894  0.0664 -0.0818
 1249loPI   PO419644   4.190   7.060   5.099  0.2675 -0.0371 -0.0859
 1249loPI   GL119645   3.962   7.085   5.553 -0.2895 -0.0676  0.3374
 1249loPI   GL219646   4.121   7.229   5.837 -0.1929  0.1166 -0.1869
 1249loPI   C1A19647   3.686   7.002   5.914  0.1976  0.0109 -0.1960
 1249loPI   C2A19648   3.678   6.996   6.354 -0.1420 -0.1583  0.1934
 1249loPI   C3A19649   3.627   6.960   6.863 -0.0152  0.1149 -0.0189
 1249loPI   C4A19650   3.660   6.871   7.315  0.1320  0.4269  0.4022
 1249loPI   C5A19651   3.768   6.727   7.722 -0.2066  0.0978 -0.0454
 1249loPI   C6A19652   3.805   6.699   8.217 -0.1482 -0.0601 -0.0084
 1249loPI   C1B19653   4.058   7.259   6.282 -0.1120 -0.0558  0.0294
 1249loPI   C2B19654   4.026   7.312   6.736 -0.2257 -0.0691  0.2257
 1249loPI   C3B19655   4.009   7.269   7.182 -0.4133  0.0066  0.0262
 1249loPI   C4B19656   4.092   7.245   7.620  0.1590 -0.0044  0.0981
 1250loPI    C119657   9.792  12.328   5.697  0.2679  0.1106 -0.1867
 1250loPI    C219658   9.755  12.494   5.335 -0.1058  0.0580 -0.1768
 1250loPI    C319659   9.692  12.101   5.383 -0.0838  0.0694 -0.0501
 1250loPI   PO419660   9.667  12.435   5.844 -0.1286 -0.1764 -0.0885
 1250loPI   GL119661   9.425  12.694   6.105  0.1107  0.0885  0.0312
 1250loPI   GL219662   9.743  12.907   6.064  0.1839  0.0933 -0.0796
 1250loPI   C1A19663   9.565  12.700   6.477 -0.4292  0.1805  0.0650
 1250loPI   C2A19664   9.647  12.687   6.917  0.0070  0.2564 -0.0234
 1250loPI   C3A19665   9.791  12.675   7.279  0.1236 -0.1042 -0.1035
 1250loPI   C4A19666   9.692  12.612   7.738 -0.0024 -0.0578  0.0964
 1250loPI   C5A19667   9.597  12.357   8.020 -0.2497  0.5429 -0.1512
 1250loPI   C6A19668   9.246  12.181   8.289 -0.1018 -0.1288 -0.2606
 1250loPI   C1B19669   9.873  13.124   6.483 -0.2930  0.0014 -0.1517
 1250loPI   C2B19670   9.966  13.138   6.928 -0.2882 -0.1203  0.3272
 1250loPI   C3B19671   9.990  13.205   7.406  0.1737 -0.0997  0.3569
 1250loPI   C4B19672   9.919  13.386   7.846 -0.4803 -0.1502  0.2757
 1251loPI    C119673   3.444  12.359   5.121 -0.0234 -0.0178 -0.0446
 1251loPI    C219674   3.570  12.500   4.769 -0.0851 -0.1006 -0.1002
 1251loPI    C319675   3.273  12.232   4.782 -0.1539 -0.0192  0.0212
 1251loPI   PO419676   3.434  12.632   5.223  0.2732  0.1985 -0.1663
 1251loPI   GL119677   3.455  12.872   5.600  0.0774  0.1355 -0.3174
 1251loPI   GL219678   3.418  12.605   5.830 -0.0862 -0.2566 -0.1480
 1251loPI   C1A19679   3.485  13.157   5.960 -0.1181 -0.0208 -0.3926
 1251loPI   C2A19680   3.261  13.376   6.374  0.0091  0.2807  0.0371
 1251loPI   C3A19681   3.176  13.420   6.805 -0.3133 -0.0271  0.5029
 1251loPI   C4A19682   3.216  13.433   7.266 -0.0307  0.0126 -0.1970
 1251loPI   C5A19683   3.171  13.248   7.607  0.0239 -0.1196  0.3091
 1251loPI   C6A19684   3.311  12.793   7.738  0.1617  0.1337 -0.0441
 1251loPI   C1B19685   3.583  12.488   6.216 -0.0594 -0.2483 -0.1038
 1251loPI   C2B19686   3.505  12.453   6.712 -0.1659  0.0903 -0.1502
 1251loPI   C3B19687   3.444  12.429   7.065 -0.2222 -0.0684  0.0191
 1251loPI   C4B19688   3.452  12.383   7.514  0.0238 -0.0403 -0.0759
 1252loPI    C119689   8.083   7.626   5.268 -0.1725  0.0888  0.1037
 1252loPI    C219690   8.076   7.957   5.045  0.1367  0.0285  0.0005
 1252loPI    C319691   7.784   7.687   5.010  0.2438 -0.0392 -0.4253
 1252loPI   PO419692   8.182   7.729   5.483  0.1213 -0.0939 -0.1429
 1252loPI   GL119693   8.000   7.579   5.926 -0.5946  0.2307 -0.2469
 1252loPI   GL219694   7.752   7.853   5.890  0.0276  0.2398  0.1661
 1252loPI   C1A19695   8.185   7.493   6.308 -0.1476  0.2410  0.0716
 1252loPI   C2A19696   8.149   7.524   6.710  0.6165 -0.0313 -0.0893
 1252loPI   C3A19697   8.111   7.376   7.073 -0.0437  0.3178  0.1286
 1252loPI   C4A19698   8.015   7.429   7.473 -0.0680 -0.0107 -0.4094
 1252loPI   C5A19699   7.723   7.463   7.906 -0.0008 -0.1023 -0.0218
 1252loPI   C6A19700   7.515   7.231   8.147 -0.0498  0.2247 -0.2669
 1252loPI   C1B19701   7.691   7.619   6.261 -0.1272  0.1351 -0.3070
 1252loPI   C2B19702   7.684   7.566   6.616  0.0138 -0.1159 -0.0993
 1252loPI   C3B19703   7.697   7.630   7.000 -0.0793  0.2261  0.0826
 1252loPI   C4B19704   7.534   7.516   7.411  0.1630 -0.1749  0.1276
 1253loPI    C119705   3.805   3.971   4.971  0.2204  0.1446  0.0655
 1253loPI    C219706   3.807   3.605   4.811  0.1927  0.0923  0.1842
 1253loPI    C319707   3.910   3.920   4.588 -0.0890  0.0515 -0.0098
 1253loPI   PO419708   3.748   4.066   5.161  0.5946 -0.0656 -0.2575
 1253loPI   GL119709   3.527   4.103   5.538  0.1068 -0.1720 -0.0545
 1253loPI   GL219710   3.531   4.391   5.517 -0.1653 -0.0103 -0.2161
 1253loPI   C1A19711   3.605   4.191   5.966  0.0133  0.0103  0.1326
 1253loPI   C2A19712   3.694   4.441   6.363 -0.4295  0.0122  0.0046
 1253loPI   C3A19713   3.764   4.558   6.829  0.4684  0.2075  0.1503
 1253loPI   C4A19714   3.608   4.692   7.245 -0.0797  0.0570  0.0911
 1253loPI   C5A19715   3.293   4.749   7.630  0.2748 -0.1784 -0.0864
 1253loPI   C6A19716   3.126   4.676   8.053 -0.0359 -0.0416 -0.0303
 1253loPI   C1B19717   3.293   4.600   5.886  0.0943  0.0242 -0.3123
 1253loPI   C2B19718   3.275   4.693   6.347  0.0344 -0.0969 -0.0083
 1253loPI   C3B19719   3.289   4.768   6.868  0.0507  0.1452 -0.0214
 1253loPI   C4B19720   3.089   4.539   7.147 -0.2238  0.1961  0.1623
 1254loPI    C119721   8.753   5.591   5.022 -0.2350  0.1668  0.0493
 1254loPI    C219722   8.461   5.761   4.808 -0.0772  0.0967 -0.2271
 1254loPI    C319723   8.752   5.558   4.623  0.0390 -0.0034  0.0599
 1254loPI   PO419724   8.787   5.732   5.225 -0.2771 -0.2731 -0.1390
 1254loPI   GL119725   8.512   5.907   5.608  0.1478  0.2702 -0.0491
 1254loPI   GL219726   8.346   6.133   5.676  0.0651 -0.1337 -0.0511
 1254loPI   C1A19727   8.628   5.902   6.056 -0.0877  0.0816  0.2853
 1254loPI   C2A19728   8.555   5.927   6.477  0.1536  0.0145 -0.2967
 1254loPI   C3A19729   8.483   5.905   6.905 -0.0489 -0.0928  0.2232
 1254loPI   C4A19730   8.509   5.911   7.367 -0.3653 -0.1177  0.1489
 1254loPI   C5A19731   8.207   5.920   7.681 -0.1389  0.1744  0.3469
 1254loPI   C6A19732   8.015   5.829   8.081 -0.3432  0.0591 -0.0072
 1254loPI   C1B19733   8.217   6.118   6.089  0.0168 -0.1407  0.0796
 1254loPI   C2B19734   7.968   6.032   6.460  0.1639  0.1788 -0.0822
 1254loPI   C3B19735   7.979   6.140   6.878 -0.1217  0.0054  0.0521
 1254loPI   C4B19736   7.843   6.079   7.313 -0.1715 -0.2756  0.1541
 1255loPI    C119737  13.637   5.382   5.266  0.1676 -0.1691 -0.0763
 1255loPI    C219738  14.004   5.391   5.107  0.0781 -0.2080 -0.2883
 1255loPI    C319739  13.715   5.180   4.930 -0.1118  0.0265 -0.2629
 1255loPI   PO419740  13.696   5.328   5.517  0.1660  0.1734 -0.1261
 1255loPI   GL119741  13.523   5.387   5.890  0.1643 -0.0995  0.1091
 1255loPI   GL219742  13.616   5.579   6.127 -0.1317 -0.3106 -0.0494
 1255loPI   C1A19743  13.525   4.996   6.308 -0.1041 -0.0204  0.2542
 1255loPI   C2A19744  13.393   4.863   6.791  0.1233 -0.2646  0.0609
 1255loPI   C3A19745  13.197   4.547   7.028 -0.1358  0.0190  0.2200
 1255loPI   C4A19746  12.901   4.443   7.230 -0.3585 -0.0631  0.1927
 1255loPI   C5A19747  12.803   4.135   7.446 -0.0938  0.0193 -0.3773
 1255loPI   C6A19748  12.836   3.942   7.953  0.0400  0.2901 -0.4140
 1255loPI   C1B19749  13.518   5.440   6.525 -0.0563  0.2736 -0.0715
 1255loPI   C2B19750  13.764   5.293   6.811 -0.0800  0.1265 -0.1374
 1255loPI   C3B19751  13.976   5.327   7.137 -0.0703 -0.0518  0.2374
 1255loPI   C4B19752  14.397   5.406   7.286 -0.1274 -0.0254  0.1323
 1256loPI    C119753   4.327  18.052   4.885  0.0657  0.0557  0.1323
 1256loPI    C219754   4.637  18.244   4.722 -0.0459  0.3045  0.2073
 1256loPI    C319755   4.303  18.185   4.509  0.0571  0.0181  0.1194
 1256loPI   PO419756   4.308  18.123   5.127 -0.0090 -0.0383 -0.2457
 1256loPI   GL119757   4.556  18.095   5.547  0.0938 -0.4034  0.0749
 1256loPI   GL219758   4.682  17.812   5.487 -0.1012 -0.1690 -0.0601
 1256loPI   C1A19759   4.450  18.211   5.954 -0.1102  0.2533 -0.0932
 1256loPI   C2A19760   4.459  18.322   6.348  0.1982 -0.1335 -0.0819
 1256loPI   C3A19761   4.412  18.319   6.684  0.0064  0.1130 -0.1399
 1256loPI   C4A19762   4.327  18.364   7.121  0.2514  0.0876  0.2491
 1256loPI   C5A19763   4.346  18.218   7.606  0.2460 -0.0008  0.1094
 1256loPI   C6A19764   4.553  18.158   8.005  0.1273 -0.0484  0.1338
 1256loPI   C1B19765   4.617  17.741   5.944  0.0594 -0.2069 -0.1618
 1256loPI   C2B19766   4.577  17.795   6.358  0.1776 -0.0427 -0.0497
 1256loPI   C3B19767   4.512  17.811   6.754  0.0703 -0.1759 -0.2229
 1256loPI   C4B19768   4.439  17.808   7.158  0.3600 -0.4708 -0.1459
 1257loPI    C119769   3.142  11.089   5.231  0.0257 -0.0291 -0.0715
 1257loPI    C219770   3.428  11.313   5.063  0.1340 -0.1965 -0.1128
 1257loPI    C319771   3.172  11.108   4.833 -0.1091  0.0615 -0.0780
 1257loPI   PO419772   3.057  11.202   5.386  0.2934 -0.2643  0.1374
 1257loPI   GL119773   2.868  11.384   5.799  0.0497 -0.0658 -0.0488
 1257loPI   GL219774   2.595  11.142   5.875  0.2446 -0.2020 -0.0550
 1257loPI   C1A19775   3.108  11.489   6.136  0.0629  0.0196 -0.0474
 1257loPI   C2A19776   3.202  11.583   6.521  0.1742 -0.0104 -0.0040
 1257loPI   C3A19777   3.234  11.591   6.893  0.1593 -0.1217  0.0013
 1257loPI   C4A19778   3.235  11.489   7.315 -0.0417  0.0057 -0.0988
 1257loPI   C5A19779   3.214  11.427   7.758  0.0678 -0.2027 -0.0499
 1257loPI   C6A19780   3.230  11.510   8.169  0.3257 -0.2524 -0.1176
 1257loPI   C1B19781   2.763  11.106   6.238 -0.1077  0.1305  0.0476
 1257loPI   C2B19782   2.880  11.167   6.603 -0.1754  0.1702  0.0376
 1257loPI   C3B19783   2.872  11.163   7.075 -0.0136  0.1368 -0.0148
 1257loPI   C4B19784   2.905  11.184   7.455 -0.0266  0.1026  0.0025
 1258loPI    C119785  13.905   8.823   5.333 -0.2478 -0.2559 -0.0617
 1258loPI    C219786  14.083   8.467   5.290  0.0793 -0.0918 -0.1024
 1258loPI    C319787  14.145   8.756   5.020  0.0327  0.0844  0.0730
 1258loPI   PO419788  13.630   8.821   5.432 -0.1629  0.1898  0.1953
 1258loPI   GL119789  13.461   8.700   5.784  0.2071  0.0242  0.0005
 1258loPI   GL219790  13.339   8.407   5.735  0.0437 -0.1536 -0.1924
 1258loPI   C1A19791  13.367   8.535   6.298  0.0795  0.0027  0.1232
 1258loPI   C2A19792  13.370   8.476   6.686 -0.0341 -0.2418 -0.3650
 1258loPI   C3A19793  13.350   8.421   7.149 -0.4154 -0.2330 -0.0947
 1258loPI   C4A19794  13.605   8.350   7.576  0.0844 -0.1009  0.2272
 1258loPI   C5A19795  13.999   8.326   7.887 -0.1601 -0.1181 -0.2704
 1258loPI   C6A19796  14.219   8.420   8.257 -0.3505 -0.0664  0.0201
 1258loPI   C1B19797  13.548   8.165   5.958 -0.0924 -0.2545 -0.1890
 1258loPI   C2B19798  13.555   8.091   6.392 -0.1647  0.0065 -0.1517
 1258loPI   C3B19799  13.842   8.155   6.725 -0.0033  0.1487  0.1318
 1258loPI   C4B19800  13.799   8.039   7.212  0.2966  0.1407 -0.0260
 1259loPI    C119801   3.573   7.237   5.230  0.0664  0.0969  0.1028
 1259loPI    C219802   3.637   7.025   4.896 -0.0416  0.0795  0.0930
 1259loPI    C319803   3.542   7.413   4.872 -0.2090  0.0397  0.0963
 1259loPI   PO419804   3.436   7.097   5.364  0.1825 -0.1112  0.0395
 1259loPI   GL119805   3.246   7.318   5.748  0.1554 -0.0915 -0.0523
 1259loPI   GL219806   2.916   7.402   5.870  0.0910  0.1193 -0.2188
 1259loPI   C1A19807   3.218   7.072   6.249  0.1522  0.1207  0.4519
 1259loPI   C2A19808   3.163   7.131   6.800 -0.3180 -0.1321  0.1277
 1259loPI   C3A19809   3.188   7.037   7.201 -0.0582  0.0104 -0.0810
 1259loPI   C4A19810   3.315   7.022   7.580 -0.2056 -0.0621 -0.0288
 1259loPI   C5A19811   3.578   7.157   7.896 -0.3332 -0.1505  0.2169
 1259loPI   C6A19812   3.618   7.197   8.325  0.1120 -0.1494  0.2912
 1259loPI   C1B19813   3.060   7.505   6.298  0.5581 -0.2504 -0.2951
 1259loPI   C2B19814   3.018   7.616   6.711 -0.1247  0.3299  0.2328
 1259loPI   C3B19815   3.093   7.569   7.204  0.5274  0.0275  0.4097
 1259loPI   C4B19816   3.157   7.532   7.647 -0.1355  0.0099  0.0983
 1260loPI    C119817  15.318  14.315   5.727  0.3007 -0.3531  0.0546
 1260loPI    C219818  15.504  14.338   6.081  0.3268 -0.1138  0.0267
 1260loPI    C319819  15.665  14.513   5.758  0.0914  0.0342 -0.0129
 1260loPI   PO419820  15.124  14.493   5.783  0.4516 -0.2762  0.2193
 1260loPI   GL119821  15.032  14.592   6.215  0.0119  0.0827  0.1818
 1260loPI   GL219822  15.250  14.605   6.475  0.1332  0.1126  0.2969
 1260loPI   C1A19823  14.975  14.100   6.472  0.3927 -0.0119 -0.0274
 1260loPI   C2A19824  15.120  13.725   6.659 -0.3343  0.2155 -0.1594
 1260loPI   C3A19825  15.287  13.675   7.028 -0.1951 -0.2804 -0.2020
 1260loPI   C4A19826  15.324  13.602   7.508 -0.0550 -0.3060  0.1477
 1260loPI   C5A19827  15.353  13.601   7.936  0.0816 -0.1400 -0.2578
 1260loPI   C6A19828  14.988  13.636   8.269 -0.0772 -0.0111 -0.0247
 1260loPI   C1B19829  15.658  14.518   6.709 -0.1187  0.0544  0.1586
 1260loPI   C2B19830  15.962  14.131   6.676  0.0750  0.0248 -0.1167
 1260loPI   C3B19831  16.241  13.757   6.942 -0.1418  0.2108  0.0743
 1260loPI   C4B19832  16.246  13.616   7.389  0.1658  0.1238 -0.1177
 1261loPI    C119833  10.595   5.305   5.184 -0.1534 -0.3003  0.1044
 1261loPI    C219834  10.336   5.102   4.956 -0.0546 -0.2358 -0.0670
 1261loPI    C319835  10.712   4.973   4.995 -0.0538 -0.2114  0.0085
 1261loPI   PO419836  10.470   5.346   5.477  0.0327  0.2285 -0.0872
 1261loPI   GL119837  10.388   5.180   5.886  0.1280 -0.0848 -0.4381
 1261loPI   GL219838  10.077   5.294   5.812  0.1509  0.4744 -0.2151
 1261loPI   C1A19839  10.611   5.301   6.314  0.1096 -0.1056 -0.1263
 1261loPI   C2A19840  10.608   5.333   6.778  0.0909 -0.0460  0.0730
 1261loPI   C3A19841  10.605   5.334   7.179 -0.0722  0.1838  0.2329
 1261loPI   C4A19842  10.538   5.401   7.626 -0.2016 -0.2276  0.0921
 1261loPI   C5A19843  10.517   5.546   8.145  0.3997  0.1195 -0.0395
 1261loPI   C6A19844  10.767   5.695   8.518  0.2259 -0.0044 -0.1255
 1261loPI   C1B19845  10.096   5.334   6.278 -0.0359  0.0867 -0.0214
 1261loPI   C2B19846  10.160   5.600   6.474  0.0965 -0.1677 -0.1263
 1261loPI   C3B19847  10.428   5.769   6.669 -0.1504 -0.1799  0.2708
 1261loPI   C4B19848  10.590   6.063   6.936 -0.0611  0.0868 -0.0078
 1262loPI    C119849   2.910  16.459   4.714 -0.1681  0.0015  0.1062
 1262loPI    C219850   3.284  16.438   4.572 -0.3138  0.1500 -0.3160
 1262loPI    C319851   3.039  16.123   4.539 -0.1491 -0.0445  0.2076
 1262loPI   PO419852   2.817  16.558   5.021  0.0411 -0.0858 -0.0367
 1262loPI   GL119853   2.911  16.840   5.424 -0.4291 -0.0120 -0.1086
 1262loPI   GL219854   3.095  17.124   5.495 -0.0902 -0.2772  0.0831
 1262loPI   C1A19855   3.077  16.774   5.835  0.0128 -0.2282 -0.0108
 1262loPI   C2A19856   3.051  16.798   6.340  0.1797  0.1284  0.1015
 1262loPI   C3A19857   2.899  16.850   6.776  0.1019 -0.0937 -0.0275
 1262loPI   C4A19858   2.847  16.870   7.180 -0.1215  0.1232 -0.3171
 1262loPI   C5A19859   3.039  17.050   7.543 -0.0538  0.2705 -0.0010
 1262loPI   C6A19860   3.290  16.947   7.908 -0.1019 -0.2200 -0.0332
 1262loPI   C1B19861   2.928  17.245   5.984  0.1829  0.0247  0.0596
 1262loPI   C2B19862   2.895  17.284   6.403  0.0946  0.0583  0.3234
 1262loPI   C3B19863   2.758  17.415   6.884  0.0235  0.1207  0.0935
 1262loPI   C4B19864   2.804  17.433   7.324 -0.1461  0.3561  0.0484
 1263loPI    C119865   8.002   3.556   5.386  0.1213  0.0304  0.1014
 1263loPI    C219866   7.783   3.388   5.096  0.1889 -0.2415  0.2042
 1263loPI    C319867   7.896   3.771   5.066  0.0026 -0.2019 -0.0179
 1263loPI   PO419868   7.933   3.438   5.632 -0.0114 -0.0351 -0.1526
 1263loPI   GL119869   7.862   3.489   6.016 -0.1057 -0.2607  0.0274
 1263loPI   GL219870   7.589   3.332   6.023  0.1461 -0.1069  0.1965
 1263loPI   C1A19871   8.059   3.654   6.449 -0.1033 -0.1326  0.0482
 1263loPI   C2A19872   8.104   3.641   6.933 -0.1890 -0.3732  0.1064
 1263loPI   C3A19873   8.146   3.758   7.375 -0.1192 -0.1420  0.0313
 1263loPI   C4A19874   8.370   3.896   7.712  0.4791 -0.2851 -0.1093
 1263loPI   C5A19875   8.461   4.028   8.077  0.1004 -0.4387 -0.0308
 1263loPI   C6A19876   8.744   4.297   8.242  0.0003  0.0581  0.0203
 1263loPI   C1B19877   7.613   3.313   6.489  0.0038  0.2576 -0.0394
 1263loPI   C2B19878   7.770   3.305   6.846 -0.1979 -0.0610  0.2716
 1263loPI   C3B19879   7.810   3.376   7.325  0.4009  0.0126 -0.3021
 1263loPI   C4B19880   7.669   3.575   7.692  0.1100 -0.0673 -0.0595
 1264loPI    C119881   9.964  11.344   5.478 -0.2767 -0.0366 -0.3378
 1264loPI    C219882  10.040  10.953   5.442 -0.0682 -0.0267 -0.0347
 1264loPI    C319883  10.323  11.221   5.351 -0.0858  0.0414  0.1086
 1264loPI   PO419884   9.860  11.400   5.727 -0.0575 -0.1622  0.4071
 1264loPI   GL119885  10.061  11.729   6.021 -0.1535  0.2666  0.0543
 1264loPI   GL219886   9.983  12.002   6.026 -0.0203  0.0794 -0.2334
 1264loPI   C1A19887  10.189  11.664   6.448  0.0512  0.0221 -0.1766
 1264loPI   C2A19888  10.166  11.798   6.832  0.0706 -0.2324  0.1364
 1264loPI   C3A19889  10.262  11.838   7.264 -0.0049  0.1002 -0.0893
 1264loPI   C4A19890  10.151  11.777   7.685  0.2255  0.0055  0.0599
 1264loPI   C5A19891   9.827  11.932   7.998  0.0188  0.3064  0.0347
 1264loPI   C6A19892   9.645  11.823   8.393  0.1050  0.1237  0.1088
 1264loPI   C1B19893   9.830  12.118   6.523  0.0301 -0.1193 -0.1751
 1264loPI   C2B19894   9.760  12.218   7.002  0.1953  0.0509 -0.0002
 1264loPI   C3B19895   9.940  12.222   7.454  0.1826 -0.0863  0.1008
 1264loPI   C4B19896  10.151  12.348   7.805  0.0502 -0.3913  0.0364
 1265loPI    C119897   6.500  17.351   5.076  0.0233  0.1255 -0.0145
 1265loPI    C219898   6.239  17.225   4.801 -0.0276 -0.0614  0.1180
 1265loPI    C319899   6.607  17.335   4.690 -0.0727 -0.0608 -0.0343
 1265loPI   PO419900   6.484  17.151   5.253  0.3469 -0.2577  0.1543
 1265loPI   GL119901   6.689  17.141   5.666 -0.0759  0.0797  0.0616
 1265loPI   GL219902   6.869  16.944   5.832  0.1061 -0.2693 -0.1029
 1265loPI   C1A19903   6.335  17.115   5.976  0.0459 -0.0213  0.1000
 1265loPI   C2A19904   6.229  17.059   6.376  0.1411  0.0349 -0.1332
 1265loPI   C3A19905   6.107  16.977   6.787  0.1745  0.0342  0.0193
 1265loPI   C4A19906   6.277  17.036   7.193  0.2832 -0.0326 -0.0155
 1265loPI   C5A19907   6.568  16.969   7.503 -0.1028 -0.0062 -0.0465
 1265loPI   C6A19908   6.891  16.790   7.590  0.1363  0.1702 -0.0182
 1265loPI   C1B19909   6.752  16.968   6.222  0.0404 -0.1709 -0.2258
 1265loPI   C2B19910   6.616  17.306   6.523 -0.1485 -0.0913 -0.2061
 1265loPI   C3B19911   6.498  17.445   6.891 -0.0113  0.2258  0.0390
 1265loPI   C4B19912   6.553  17.411   7.254  0.4040 -0.4363  0.0267
 1266loPI    C119913  16.020   7.054   5.178  0.1298  0.2048 -0.2170
 1266loPI    C219914  15.663   7.204   5.077  0.0714  0.0256 -0.2817
 1266loPI    C319915  15.856   6.959   4.826  0.0849 -0.1469 -0.1056
 1266loPI   PO419916  16.039   7.203   5.398  0.3181 -0.1334 -0.0248
 1266loPI   GL119917  16.157   7.338   5.810  0.0428 -0.3382 -0.2147
 1266loPI   GL219918  15.853   7.407   5.975  0.1971 -0.0040  0.2925
 1266loPI   C1A19919  16.131   7.010   6.077 -0.2120  0.1653  0.0985
 1266loPI   C2A19920  16.091   6.837   6.475 -0.5983  0.1957 -0.0338
 1266loPI   C3A19921  16.156   6.778   6.891 -0.1314  0.2589 -0.0040
 1266loPI   C4A19922  16.136   7.028   7.245  0.1022 -0.0349 -0.5255
 1266loPI   C5A19923  16.071   6.987   7.654 -0.1505  0.0020  0.1628
 1266loPI   C6A19924  15.953   7.150   8.100  0.1889  0.1074 -0.1959
 1266loPI   C1B19925  15.759   7.520   6.355  0.0570  0.0755  0.0746
 1266loPI   C2B19926  15.652   7.547   6.772  0.1227 -0.1358 -0.1934
 1266loPI   C3B19927  15.774   7.550   7.193 -0.0966 -0.0167  0.1483
 1266loPI   C4B19928  15.773   7.469   7.632  0.0299 -0.2006  0.1182
 1267loPI    C119929   9.040   7.875   5.321  0.0522 -0.0479  0.1231
 1267loPI    C219930   9.327   7.749   5.570 -0.1515 -0.3986  0.1880
 1267loPI    C319931   9.269   7.562   5.221 -0.0442 -0.0778 -0.0067
 1267loPI   PO419932   8.886   7.937   5.527  0.4976 -0.0582  0.1162
 1267loPI   GL119933   9.026   8.121   5.789  0.2462 -0.0796 -0.2806
 1267loPI   GL219934   9.332   8.216   5.888 -0.0499  0.1104  0.0596
 1267loPI   C1A19935   8.954   8.150   6.269  0.2133 -0.0044 -0.0243
 1267loPI   C2A19936   8.992   8.097   6.703  0.0642 -0.1179  0.2133
 1267loPI   C3A19937   8.848   8.108   7.149  0.2217  0.1865 -0.1051
 1267loPI   C4A19938   8.843   8.034   7.521 -0.1099  0.2479  0.1532
 1267loPI   C5A19939   9.091   8.186   7.778  0.1113  0.0169  0.1852
 1267loPI   C6A19940   9.449   8.199   8.078 -0.2605  0.1755 -0.1233
 1267loPI   C1B19941   9.490   7.956   6.229 -0.1078  0.1342 -0.0808
 1267loPI   C2B19942   9.677   7.874   6.575 -0.1385 -0.1662 -0.1692
 1267loPI   C3B19943   9.764   7.728   7.056  0.0396 -0.2111  0.2426
 1267loPI   C4B19944   9.865   7.565   7.301 -0.3496 -0.0045 -0.4730
 1268loPI    C119945   5.155   5.072   5.177 -0.0996 -0.1528  0.0352
 1268loPI    C219946   4.995   5.366   4.958  0.1482 -0.0340  0.0109
 1268loPI    C319947   4.774   5.180   5.234  0.0212  0.2530  0.1062
 1268loPI   PO419948   5.403   5.185   5.169  0.1652  0.0654 -0.1674
 1268loPI   GL119949   5.534   5.225   5.620 -0.1391  0.4145  0.1101
 1268loPI   GL219950   5.309   5.016   5.705  0.1000  0.0588 -0.1564
 1268loPI   C1A19951   5.384   5.487   5.898  0.0797 -0.3265 -0.2828
 1268loPI   C2A19952   5.343   5.500   6.302  0.0330  0.2277  0.0569
 1268loPI   C3A19953   5.308   5.506   6.795  0.0036 -0.2364  0.0296
 1268loPI   C4A19954   5.403   5.357   7.244  0.0537 -0.4811 -0.1063
 1268loPI   C5A19955   5.343   5.315   7.628 -0.2869 -0.1067  0.0984
 1268loPI   C6A19956   5.043   5.328   8.019 -0.0284 -0.1396 -0.0814
 1268loPI   C1B19957   5.470   4.938   6.148  0.0181 -0.0180  0.1250
 1268loPI   C2B19958   5.569   4.959   6.598  0.0136 -0.3263  0.3780
 1268loPI   C3B19959   5.549   4.956   6.977  0.0124  0.2123  0.4664
 1268loPI   C4B19960   5.528   4.829   7.418 -0.0036 -0.1163  0.0737
 1269loPI    C119961   3.306   2.118   5.459  0.1320  0.0204  0.1949
 1269loPI    C219962   3.127   2.307   5.155  0.0754 -0.0288  0.1974
 1269loPI    C319963   3.396   2.021   5.081  0.0765 -0.0268  0.1936
 1269loPI   PO419964   2.992   2.179   5.627  0.2451 -0.1386 -0.3749
 1269loPI   GL119965   2.767   2.232   6.013 -0.0272  0.2520 -0.0585
 1269loPI   GL219966   2.563   2.080   5.999 -0.4929  0.0600  0.0984
 1269loPI   C1A19967   3.081   1.942   6.267 -0.1698 -0.0828 -0.0161
 1269loPI   C2A19968   3.173   1.952   6.697 -0.2134  0.0923  0.1486
 1269loPI   C3A19969   3.067   1.848   7.045  0.2873 -0.0113 -0.4826
 1269loPI   C4A19970   3.028   1.954   7.523 -0.0684  0.2675  0.2445
 1269loPI   C5A19971   3.086   1.935   7.914 -0.1260 -0.3211  0.2096
 1269loPI   C6A19972   3.390   1.964   8.190  0.0112  0.1647 -0.0803
 1269loPI   C1B19973   2.530   1.943   6.371 -0.1284 -0.0641  0.2531
 1269loPI   C2B19974   2.591   1.988   6.839  0.1522  0.0022 -0.0131
 1269loPI   C3B19975   2.581   2.042   7.251  0.2560 -0.1474 -0.0246
 1269loPI   C4B19976   2.582   2.069   7.740 -0.1870 -0.0920 -0.4392
 1270loPI    C119977   7.525   9.783   5.535 -0.1508 -0.0148 -0.1710
 1270loPI    C219978   7.874   9.971   5.480 -0.1014 -0.1049 -0.1681
 1270loPI    C319979   7.748   9.701   5.213 -0.1213 -0.1452 -0.1182
 1270loPI   PO419980   7.522   9.705   5.828 -0.2451  0.1279 -0.0290
 1270loPI   GL119981   7.371   9.958   6.169 -0.0868  0.2822  0.2873
 1270loPI   GL219982   7.791   9.981   6.157 -0.0636  0.2555  0.0647
 1270loPI   C1A19983   7.404  10.026   6.588 -0.1824  0.0282 -0.0576
 1270loPI   C2A19984   7.592  10.052   6.988  0.1821 -0.1323  0.0803
 1270loPI   C3A19985   7.612  10.169   7.441  0.0789 -0.3687 -0.1312
 1270loPI   C4A19986   7.738  10.134   7.877  0.1095  0.1830 -0.0327
 1270loPI   C5A19987   7.559  10.094   8.336  0.0742 -0.3195 -0.0337
 1270loPI   C6A19988   7.214  10.311   8.622  0.2587  0.0400  0.0139
 1270loPI   C1B19989   7.889   9.764   6.510  0.1395  0.0178  0.2441
 1270loPI   C2B19990   8.095   9.871   6.856  0.2200 -0.3280  0.0060
 1270loPI   C3B19991   8.137  10.094   7.259 -0.1200  0.1650  0.1676
 1270loPI   C4B19992   8.274  10.119   7.708 -0.2413 -0.2451  0.1257
 1271loPI    C119993   3.537  17.796   4.711 -0.1765 -0.2407  0.1007
 1271loPI    C219994   3.260  18.038   4.555 -0.0663 -0.1458  0.0505
 1271loPI    C319995   3.376  17.713   4.354  0.2500  0.1050 -0.1832
 1271loPI   PO419996   3.475  17.793   4.984 -0.0148 -0.0343 -0.1995
 1271loPI   GL119997   3.576  17.740   5.405  0.1642  0.0321 -0.0155
 1271loPI   GL219998   3.516  17.481   5.534 -0.2724 -0.2329 -0.1124
 1271loPI   C1A19999   3.637  17.949   5.685  0.1630  0.0993  0.0690
 1271loPI   C2A20000   3.565  18.053   6.079  0.2439  0.3074 -0.0586
 1271loPI   C3A20001   3.531  18.078   6.468  0.0460  0.1892 -0.0025
 1271loPI   C4A20002   3.449  18.110   6.926 -0.2483 -0.2465  0.1637
 1271loPI   C5A20003   3.448  18.146   7.302 -0.0020  0.1279 -0.1255
 1271loPI   C6A20004   3.215  18.059   7.690 -0.0238 -0.0299  0.1392
 1271loPI   C1B20005   3.439  17.132   5.871  0.2768 -0.2153 -0.2521
 1271loPI   C2B20006   3.393  17.181   6.278  0.0020  0.0126 -0.2361
 1271loPI   C3B20007   3.281  17.269   6.659 -0.1305 -0.1503 -0.2879
 1271loPI   C4B20008   3.204  17.355   7.102 -0.3162  0.1243  0.4363
 1272loPI    C120009  17.317   0.969   5.518 -0.0525 -0.0782  0.2403
 1272loPI    C220010  17.541   0.695   5.332  0.1748  0.2457  0.0262
 1272loPI    C320011  17.152   0.625   5.396  0.2982 -0.2631  0.2755
 1272loPI   PO420012  17.517   1.060   5.752  0.1174 -0.0629 -0.0293
 1272loPI   GL120013  17.633   1.282   6.113 -0.0924 -0.0387  0.0720
 1272loPI   GL220014  17.700   1.002   6.246  0.1268  0.0431  0.1822
 1272loPI   C1A20015  17.629   1.594   6.459  0.1436 -0.0329  0.4092
 1272loPI   C2A20016  17.681   1.511   6.917 -0.0124  0.1260  0.0434
 1272loPI   C3A20017  17.662   1.548   7.269  0.0225  0.1567  0.0301
 1272loPI   C4A20018  17.600   1.713   7.700 -0.2151  0.0554 -0.1509
 1272loPI   C5A20019  17.415   1.886   8.108  0.1087 -0.1177  0.0239
 1272loPI   C6A20020  17.422   2.097   8.395 -0.0010 -0.0311 -0.4264
 1272loPI   C1B20021  17.733   1.029   6.645 -0.1998  0.0136  0.2926
 1272loPI   C2B20022  17.784   1.062   7.072 -0.0887  0.3614  0.1103
 1272loPI   C3B20023  17.820   1.132   7.518  0.1236  0.1778  0.1251
 1272loPI   C4B20024  17.542   1.189   7.888  0.1084  0.3221 -0.2439
 1273loPI    C120025   5.014  15.399   5.017 -0.0084 -0.0054  0.1440
 1273loPI    C220026   5.258  15.234   4.746  0.0235  0.0112  0.1626
 1273loPI    C320027   5.274  15.627   4.817 -0.1143  0.0371  0.0538
 1273loPI   PO420028   4.900  15.301   5.231  0.0148 -0.1717  0.0306
 1273loPI   GL120029   4.893  15.009   5.572 -0.1328 -0.2377 -0.0106
 1273loPI   GL220030   5.162  15.059   5.691  0.1012  0.0477  0.0905
 1273loPI   C1A20031   4.755  15.109   5.961  0.1764 -0.0257  0.0112
 1273loPI   C2A20032   4.552  15.414   6.167  0.1895 -0.0110 -0.1078
 1273loPI   C3A20033   4.424  15.498   6.589  0.0761 -0.0660  0.2815
 1273loPI   C4A20034   4.229  15.527   7.015  0.0854  0.1113  0.1274
 1273loPI   C5A20035   3.811  15.556   7.216 -0.1894 -0.3844  0.1234
 1273loPI   C6A20036   3.493  15.650   7.486  0.1305 -0.2817 -0.1393
 1273loPI   C1B20037   5.270  15.004   6.067  0.1481 -0.0354 -0.0005
 1273loPI   C2B20038   5.226  14.850   6.506 -0.1838  0.0265  0.2082
 1273loPI   C3B20039   5.075  14.922   6.864 -0.0544  0.1259 -0.0126
 1273loPI   C4B20040   4.875  14.954   7.250 -0.1541  0.1144 -0.2218
 1274loPI    C120041   0.295  16.471   5.489  0.0020  0.0313  0.0505
 1274loPI    C220042   0.110  16.826   5.476 -0.0362  0.0134  0.1051
 1274loPI    C320043   0.087  16.577   5.164 -0.1904 -0.0319  0.1516
 1274loPI   PO420044   0.227  16.366   5.684  0.0025 -0.1020 -0.1837
 1274loPI   GL120045  -0.048  16.544   5.971  0.1126 -0.0665  0.1727
 1274loPI   GL220046   0.127  16.864   5.931 -0.3450 -0.1460  0.0136
 1274loPI   C1A20047  -0.151  16.474   6.392  0.2683 -0.1087  0.0844
 1274loPI   C2A20048  -0.101  16.479   6.849 -0.0723  0.2552  0.2575
 1274loPI   C3A20049  -0.379  16.341   7.244 -0.0306  0.0857 -0.1555
 1274loPI   C4A20050  -0.525  16.609   7.531  0.0315  0.0676 -0.0332
 1274loPI   C5A20051  -0.628  16.643   7.923 -0.0503 -0.0637  0.0706
 1274loPI   C6A20052  -0.960  16.494   8.146 -0.3385  0.0645 -0.1209
 1274loPI   C1B20053   0.225  16.781   6.344 -0.3223 -0.0055 -0.0891
 1274loPI   C2B20054   0.141  16.907   6.836  0.0258  0.1464  0.0283
 1274loPI   C3B20055   0.081  17.196   7.143  0.2950 -0.0327  0.0708
 1274loPI   C4B20056   0.101  17.205   7.643 -0.1180  0.0522 -0.1380
 1275loPI    C120057   1.656   7.100   4.952 -0.0181 -0.0851 -0.0540
 1275loPI    C220058   1.435   6.785   4.842 -0.4064  0.2411 -0.2319
 1275loPI    C320059   1.727   6.918   4.603  0.0163 -0.2092  0.0171
 1275loPI   PO420060   1.617   7.126   5.211  0.1790  0.3033 -0.1571
 1275loPI   GL120061   1.356   7.102   5.558  0.0988 -0.0807 -0.2469
 1275loPI   GL220062   1.031   7.122   5.757 -0.4389 -0.1835  0.1123
 1275loPI   C1A20063   1.496   6.955   5.967  0.1787  0.0390 -0.1585
 1275loPI   C2A20064   1.504   6.941   6.440 -0.0810 -0.0622 -0.1234
 1275loPI   C3A20065   1.522   6.926   6.882 -0.0785 -0.0404  0.0784
 1275loPI   C4A20066   1.480   7.001   7.278 -0.1631 -0.3672 -0.1112
 1275loPI   C5A20067   1.353   7.282   7.647  0.0976  0.0644 -0.2619
 1275loPI   C6A20068   1.598   7.512   7.863 -0.1951  0.1333 -0.5656
 1275loPI   C1B20069   1.027   7.152   6.095  0.0775 -0.3093  0.2126
 1275loPI   C2B20070   0.998   7.317   6.518 -0.0563  0.0508  0.1047
 1275loPI   C3B20071   1.129   7.183   6.796 -0.0880 -0.1060  0.2925
 1275loPI   C4B20072   1.128   7.320   7.219  0.2085 -0.1135  0.0849
 1276loPI    C120073  17.673  13.159   5.217  0.1684 -0.0618 -0.0371
 1276loPI    C220074  17.344  13.344   5.085  0.0888 -0.1552  0.0295
 1276loPI    C320075  17.539  13.089   4.846  0.1322 -0.0746 -0.0216
 1276loPI   PO420076  17.635  13.123   5.500 -0.1954  0.2324 -0.1501
 1276loPI   GL120077  17.841  13.010   5.900  0.3697 -0.3313 -0.1115
 1276loPI   GL220078  17.533  13.266   6.025 -0.3055 -0.1549 -0.1450
 1276loPI   C1A20079  17.888  12.751   6.196  0.0865  0.1993 -0.0020
 1276loPI   C2A20080  17.753  12.634   6.594 -0.0610 -0.0659  0.1906
 1276loPI   C3A20081  17.968  12.334   6.888 -0.1331  0.1250  0.1113
 1276loPI   C4A20082  18.377  12.104   6.786  0.2108 -0.2780 -0.2001
 1276loPI   C5A20083  18.596  11.968   7.131  0.1276 -0.2332  0.0337
 1276loPI   C6A20084  18.620  11.897   7.524  0.2210  0.0370  0.2696
 1276loPI   C1B20085  17.682  13.185   6.469  0.2868  0.2552  0.2100
 1276loPI   C2B20086  17.712  13.071   6.910  0.2355  0.2524  0.0144
 1276loPI   C3B20087  17.840  13.018   7.359 -0.1486  0.0150  0.0580
 1276loPI   C4B20088  17.670  12.970   7.822  0.1844 -0.0026 -0.3494
 1277loPI    C120089  17.742   1.215   5.314 -0.0594  0.0329  0.0241
 1277loPI    C220090  17.930   1.185   4.963  0.1074 -0.0347  0.1180
 1277loPI    C320091  17.536   1.116   4.986  0.1115 -0.1150 -0.0399
 1277loPI   PO420092  17.980   1.169   5.485  0.2244  0.2341 -0.0923
 1277loPI   GL120093  18.070   1.166   5.883  0.3554  0.0108  0.2384
 1277loPI   GL220094  18.225   0.871   6.046  0.0770 -0.1035  0.1463
 1277loPI   C1A20095  18.077   1.352   6.303 -0.2968  0.0485 -0.0443
 1277loPI   C2A20096  18.144   1.401   6.725 -0.2078  0.0492  0.0175
 1277loPI   C3A20097  18.149   1.379   7.177 -0.0127 -0.2076 -0.2701
 1277loPI   C4A20098  18.279   1.262   7.602  0.0883  0.1325 -0.1327
 1277loPI   C5A20099  18.694   1.249   7.780  0.1952  0.2495 -0.2009
 1277loPI   C6A20100  19.049   1.120   7.909  0.0401  0.0406  0.2217
 1277loPI   C1B20101  18.201   0.881   6.459  0.1477 -0.1556 -0.3816
 1277loPI   C2B20102  18.286   0.866   6.903 -0.1933  0.1006  0.0460
 1277loPI   C3B20103  18.197   0.742   7.385  0.3979  0.1938  0.2675
 1277loPI   C4B20104  18.371   0.724   7.793 -0.1804  0.2673  0.1082
 1278loPI    C120105   2.054   0.226   4.636 -0.0306  0.2193  0.0177
 1278loPI    C220106   2.159   0.528   4.397  0.0572  0.0667 -0.1384
 1278loPI    C320107   2.360   0.182   4.383  0.0132  0.0300  0.1013
 1278loPI   PO420108   1.952   0.447   4.910 -0.0254  0.1381  0.1974
 1278loPI   GL120109   1.872   0.533   5.355 -0.1861 -0.3705  0.2378
 1278loPI   GL220110   1.677   0.258   5.360  0.0764 -0.4019  0.1461
 1278loPI   C1A20111   2.051   0.741   5.659 -0.0411  0.0099 -0.0285
 1278loPI   C2A20112   2.084   0.718   6.104  0.2365 -0.0988  0.0106
 1278loPI   C3A20113   1.926   0.830   6.430  0.0854  0.3380  0.1753
 1278loPI   C4A20114   1.849   0.842   6.881  0.1564 -0.2803 -0.0630
 1278loPI   C5A20115   1.844   0.854   7.278  0.0746 -0.1903  0.0556
 1278loPI   C6A20116   1.864   0.901   7.695 -0.2190  0.1123 -0.2828
 1278loPI   C1B20117   1.672   0.416   5.758 -0.1452  0.0300 -0.0052
 1278loPI   C2B20118   1.615   0.420   6.200  0.1808 -0.0655 -0.1123
 1278loPI   C3B20119   1.548   0.472   6.669 -0.1368 -0.0679 -0.0163
 1278loPI   C4B20120   1.499   0.464   7.154  0.2117 -0.3030  0.0240
 1279loPI    C120121   2.180  17.047   4.777  0.1442  0.0912  0.1344
 1279loPI    C220122   2.483  16.798   4.695  0.1099  0.1357 -0.1360
 1279loPI    C320123   2.391  17.093   4.440 -0.0617  0.2200  0.0212
 1279loPI   PO420124   2.270  17.080   5.065  0.6006 -0.1452  0.0791
 1279loPI   GL120125   2.092  17.304   5.480  0.1257 -0.3292 -0.2407
 1279loPI   GL220126   1.705  17.195   5.578  0.0053 -0.2803  0.0683
 1279loPI   C1A20127   2.369  17.419   5.854 -0.0718 -0.0553 -0.1154
 1279loPI   C2A20128   2.469  17.496   6.296  0.3482 -0.0858 -0.2106
 1279loPI   C3A20129   2.281  17.453   6.717 -0.2211  0.1374  0.1450
 1279loPI   C4A20130   2.276  17.496   7.096  0.0381 -0.1630 -0.4580
 1279loPI   C5A20131   2.318  17.568   7.407  0.0098  0.2071 -0.1274
 1279loPI   C6A20132   2.406  17.425   7.803 -0.2491  0.0478 -0.2957
 1279loPI   C1B20133   1.938  17.166   5.928  0.1410  0.1269  0.0931
 1279loPI   C2B20134   1.897  17.126   6.407  0.0451 -0.0275 -0.2546
 1279loPI   C3B20135   1.835  17.173   6.817  0.0115 -0.2543  0.0218
 1279loPI   C4B20136   1.953  17.194   7.266 -0.1248 -0.1954  0.0690
 1280loPI    C120137  12.877   0.735   5.463  0.1131 -0.0758  0.0470
 1280loPI    C220138  12.594   0.672   5.188  0.0229 -0.0693  0.1377
 1280loPI    C320139  12.978   0.688   5.079 -0.0350  0.2435 -0.0349
 1280loPI   PO420140  12.912   0.573   5.623  0.1201  0.0082  0.0605
 1280loPI   GL120141  12.779   0.448   6.007  0.0568 -0.0147 -0.1904
 1280loPI   GL220142  13.105   0.514   6.157 -0.1720  0.2745 -0.0241
 1280loPI   C1A20143  12.509   0.529   6.258 -0.0202  0.2982 -0.0944
 1280loPI   C2A20144  12.392   0.458   6.682 -0.2802  0.0282  0.0342
 1280loPI   C3A20145  12.408   0.436   7.088  0.2837  0.1066 -0.1644
 1280loPI   C4A20146  12.355   0.530   7.479  0.0691  0.0107 -0.0020
 1280loPI   C5A20147  12.455   0.828   7.877 -0.0736  0.0129  0.4441
 1280loPI   C6A20148  12.726   1.268   7.874 -0.2534 -0.0069  0.0552
 1280loPI   C1B20149  12.980   0.311   6.575 -0.0178  0.0511 -0.0075
 1280loPI   C2B20150  12.884   0.336   6.957  0.1002 -0.1368  0.2049
 1280loPI   C3B20151  12.923   0.310   7.398 -0.1378 -0.0734 -0.0067
 1280loPI   C4B20152  12.989   0.394   7.874  0.3364  0.0112  0.1956
 1281loPI    C120153  12.723   7.056   5.022  0.0669 -0.2495 -0.3554
 1281loPI    C220154  12.757   7.453   4.984  0.1520 -0.2178  0.0085
 1281loPI    C320155  12.712   7.224   4.659 -0.3839  0.1306 -0.1774
 1281loPI   PO420156  12.796   7.082   5.291  0.0549 -0.0378  0.0377
 1281loPI   GL120157  12.847   7.160   5.708  0.2805  0.0048  0.1646
 1281loPI   GL220158  13.136   7.364   5.810  0.2335 -0.1131  0.2202
 1281loPI   C1A20159  12.808   6.955   6.088  0.0097 -0.0700  0.0449
 1281loPI   C2A20160  12.761   7.019   6.539 -0.2164  0.2702 -0.0320
 1281loPI   C3A20161  12.787   6.939   6.967  0.0427  0.0349  0.4427
 1281loPI   C4A20162  12.848   6.902   7.368 -0.1322 -0.0331 -0.1818
 1281loPI   C5A20163  12.847   6.614   7.763 -0.0688  0.0058  0.0602
 1281loPI   C6A20164  13.074   6.614   8.134 -0.0454 -0.1683 -0.2277
 1281loPI   C1B20165  12.932   7.429   6.219  0.1448 -0.1240 -0.0752
 1281loPI   C2B20166  13.012   7.469   6.584  0.0516 -0.3606  0.0421
 1281loPI   C3B20167  12.990   7.405   7.005 -0.0024  0.0665  0.3170
 1281loPI   C4B20168  13.023   7.460   7.455 -0.3206  0.0973  0.1930
 1282POPI    C120169   8.950   0.238   5.109  0.0330 -0.1601  0.0656
 1282POPI    C220170   8.680   0.195   4.817  0.0068  0.0447  0.0585
 1282POPI    C320171   8.914  -0.112   4.919 -0.0361 -0.0508 -0.1257
 1282POPI   PO420172   8.877   0.385   5.318  0.0545  0.0514 -0.0615
 1282POPI   GL120173   8.563   0.351   5.628 -0.2749  0.0001  0.0103
 1282POPI   GL220174   8.544   0.111   5.852  0.2526  0.1889 -0.3713
 1282POPI   C1A20175   8.734   0.643   5.906 -0.1471 -0.1235 -0.0403
 1282POPI   D2A20176   9.119   0.554   6.199  0.2470 -0.0836 -0.2148
 1282POPI   C3A20177   9.092   0.684   6.619 -0.4446  0.0775 -0.1333
 1282POPI   C4A20178   8.936   0.645   7.020  0.2785  0.3178 -0.0100
 1282POPI   C1B20179   8.690   0.267   6.264  0.0810  0.0423  0.0579
 1282POPI   C2B20180   8.686   0.377   6.654 -0.4181 -0.1870 -0.0558
 1282POPI   C3B20181   8.629   0.241   7.057 -0.0500  0.2144 -0.0962
 1282POPI   C4B20182   8.618   0.187   7.462 -0.0123 -0.1254  0.1659
 1283POPI    C120183  11.398  13.616   5.240  0.1653 -0.0746  0.1060
 1283POPI    C220184  11.100  13.479   5.468  0.1055  0.0084  0.0782
 1283POPI    C320185  11.116  13.382   5.080  0.1121  0.0075  0.0787
 1283POPI   PO420186  11.596  13.625   5.432  0.1171  0.1851 -0.4790
 1283POPI   GL120187  11.641  13.542   5.881 -0.1541 -0.0975  0.0956
 1283POPI   GL220188  11.819  13.251   5.896  0.0612 -0.0097 -0.2836
 1283POPI   C1A20189  11.796  13.637   6.278  0.2077 -0.1243  0.0774
 1283POPI   D2A20190  11.814  13.612   6.723 -0.3777  0.0902 -0.0517
 1283POPI   C3A20191  11.695  13.567   7.129 -0.0688 -0.2668  0.0233
 1283POPI   C4A20192  11.809  13.510   7.565 -0.0319  0.2591  0.2858
 1283POPI   C1B20193  11.956  13.087   6.284 -0.0092  0.1683 -0.1468
 1283POPI   C2B20194  12.036  13.042   6.697  0.1119  0.2037 -0.4000
 1283POPI   C3B20195  12.027  13.144   7.153 -0.0385  0.1033  0.0358
 1283POPI   C4B20196  12.098  13.144   7.569  0.0898 -0.0111 -0.2949
 1284POPI    C120197   8.442  14.619   5.427  0.1531  0.0276 -0.0086
 1284POPI    C220198   8.277  14.404   5.133  0.1521 -0.2574  0.1972
 1284POPI    C320199   8.395  14.779   5.063 -0.0676 -0.2404 -0.1016
 1284POPI   PO420200   8.292  14.551   5.638 -0.1279 -0.0302 -0.0033
 1284POPI   GL120201   8.225  14.316   5.953  0.1258  0.0876 -0.0811
 1284POPI   GL220202   7.953  14.381   6.126 -0.0448 -0.1274 -0.0608
 1284POPI   C1A20203   8.398  14.234   6.240  0.0559  0.0333  0.0796
 1284POPI   D2A20204   8.486  14.214   6.604 -0.2248  0.1044  0.0248
 1284POPI   C3A20205   8.440  14.276   7.042 -0.0308 -0.1071 -0.0143
 1284POPI   C4A20206   8.528  14.129   7.384  0.3367  0.0354 -0.0549
 1284POPI   C1B20207   7.578  14.400   6.293  0.2678  0.3345 -0.1147
 1284POPI   C2B20208   7.647  14.695   6.816 -0.0041 -0.0466  0.2792
 1284POPI   C3B20209   7.598  14.732   7.241 -0.0123  0.0371 -0.3405
 1284POPI   C4B20210   7.639  14.500   7.716  0.0613 -0.1532  0.0637
 1285POPI    C120211  11.760  15.795   5.208 -0.0476 -0.0936  0.0435
 1285POPI    C220212  12.022  15.963   4.957 -0.0930 -0.0601  0.0183
 1285POPI    C320213  11.879  15.598   4.881  0.0136 -0.1149  0.0785
 1285POPI   PO420214  11.827  15.898   5.412 -0.0462 -0.1673 -0.0784
 1285POPI   GL120215  11.695  15.877   5.865  0.1999 -0.2052  0.2715
 1285POPI   GL220216  12.030  15.923   5.866  0.2072  0.0707 -0.1554
 1285POPI   C1A20217  11.705  15.761   6.311 -0.2098 -0.1194 -0.0274
 1285POPI   D2A20218  11.590  15.725   6.737 -0.2891  0.0852  0.0409
 1285POPI   C3A20219  11.676  15.692   7.168 -0.1636  0.1075  0.1192
 1285POPI   C4A20220  11.646  15.781   7.635 -0.1345  0.1087 -0.0809
 1285POPI   C1B20221  12.026  16.205   6.262 -0.0131 -0.2701 -0.1549
 1285POPI   C2B20222  11.874  16.118   6.582 -0.0686 -0.0789 -0.1775
 1285POPI   C3B20223  11.989  16.111   6.933 -0.2367 -0.0795  0.2124
 1285POPI   C4B20224  11.941  16.105   7.381  0.2060 -0.0449  0.1694
 1286POPI    C120225  17.098   0.077   5.378 -0.1593  0.1363 -0.0215
 1286POPI    C220226  17.199   0.226   5.021 -0.1187  0.2425  0.0338
 1286POPI    C320227  16.836   0.068   5.076  0.0004 -0.1077 -0.1564
 1286POPI   PO420228  17.349  -0.050   5.462 -0.2089  0.0954  0.4896
 1286POPI   GL120229  17.556  -0.033   5.891  0.2129 -0.1194 -0.0700
 1286POPI   GL220230  17.852  -0.201   5.911  0.1181  0.1419  0.3234
 1286POPI   C1A20231  17.653   0.274   6.172  0.2858 -0.2278  0.0993
 1286POPI   D2A20232  17.822   0.560   6.484 -0.1835  0.1075  0.0122
 1286POPI   C3A20233  17.848   0.586   6.950  0.0224  0.0456 -0.2257
 1286POPI   C4A20234  17.823   0.407   7.322  0.1166  0.1457 -0.2031
 1286POPI   C1B20235  18.015   0.018   6.314 -0.1282  0.3908 -0.4425
 1286POPI   C2B20236  18.068   0.029   6.805  0.1540 -0.0931  0.2751
 1286POPI   C3B20237  18.050  -0.033   7.172  0.0291 -0.0306  0.0174
 1286POPI   C4B20238  17.740   0.002   7.573 -0.1615  0.1134  0.2626
 1287POPI    C120239  18.145  10.537   5.275  0.1262 -0.0439  0.0093
 1287POPI    C220240  18.141  10.866   5.047  0.0040 -0.1508 -0.1449
 1287POPI    C320241  18.032  10.514   4.892 -0.0362 -0.2331  0.0673
 1287POPI   PO420242  18.004  10.551   5.455  0.1738 -0.1027  0.0325
 1287POPI   GL120243  18.073  10.715   5.911  0.2090 -0.1235 -0.2064
 1287POPI   GL220244  17.720  10.695   5.824 -0.0869  0.1443 -0.1014
 1287POPI   C1A20245  18.368  10.724   6.162 -0.0094 -0.1210  0.0886
 1287POPI   D2A20246  18.538  10.567   6.503  0.0477  0.1027  0.0016
 1287POPI   C3A20247  18.532  10.543   6.947 -0.1334 -0.1380 -0.2149
 1287POPI   C4A20248  18.435  10.488   7.425 -0.3711 -0.4451  0.0074
 1287POPI   C1B20249  17.619  10.636   6.186 -0.0168  0.3106 -0.0006
 1287POPI   C2B20250  17.651  10.438   6.649 -0.3172 -0.1761 -0.0764
 1287POPI   C3B20251  17.634  10.502   7.049 -0.2228 -0.2450 -0.1058
 1287POPI   C4B20252  17.575  10.607   7.519 -0.0139 -0.0172  0.0429
 1288POPI    C120253  15.253  12.037   5.522  0.1785  0.1184  0.0600
 1288POPI    C220254  15.609  12.159   5.386  0.1593 -0.0023 -0.1017
 1288POPI    C320255  15.360  11.959   5.145  0.0780 -0.1223  0.0792
 1288POPI   PO420256  15.307  12.007   5.717  0.0549  0.2689  0.0690
 1288POPI   GL120257  15.276  11.946   6.046  0.0079  0.0232 -0.0090
 1288POPI   GL220258  15.041  11.918   6.372  0.1246  0.0138  0.2511
 1288POPI   C1A20259  15.524  12.001   6.494  0.2280  0.0691  0.2063
 1288POPI   D2A20260  15.569  11.984   6.940  0.1025 -0.0661  0.1558
 1288POPI   C3A20261  15.912  11.881   7.008 -0.1860  0.0463 -0.0228
 1288POPI   C4A20262  16.145  11.779   7.346  0.1263  0.1619 -0.0476
 1288POPI   C1B20263  15.058  11.989   6.712 -0.1397  0.0831  0.0420
 1288POPI   C2B20264  15.085  11.847   7.067  0.2524 -0.2248 -0.1445
 1288POPI   C3B20265  15.081  11.795   7.474 -0.0927  0.0551  0.1098
 1288POPI   C4B20266  15.190  11.839   7.925  0.0679  0.1325 -0.0248
 1289POPI    C120267   9.377  11.373   5.761 -0.0020 -0.1766 -0.0779
 1289POPI    C220268   9.105  11.262   5.490  0.0128 -0.0750 -0.1350
 1289POPI    C320269   9.483  11.139   5.455 -0.0089 -0.1527 -0.0986
 1289POPI   PO420270   9.345  11.221   5.953  0.1305 -0.0344  0.2584
 1289POPI   GL120271   9.347  11.472   6.291  0.0942 -0.0347 -0.0410
 1289POPI   GL220272   9.552  11.692   6.361  0.1174  0.0048 -0.1909
 1289POPI   C1A20273   9.190  11.529   6.783  0.1426 -0.0627 -0.0273
 1289POPI   D2A20274   8.872  11.472   6.995 -0.2617  0.0295 -0.0525
 1289POPI   C3A20275   8.912  11.417   7.508 -0.2076  0.0102  0.1331
 1289POPI   C4A20276   8.981  11.353   7.900  0.0500 -0.1527 -0.3029
 1289POPI   C1B20277   9.638  11.779   6.840 -0.2159  0.1545 -0.0419
 1289POPI   C2B20278   9.776  11.745   7.212  0.1408  0.0226  0.2679
 1289POPI   C3B20279   9.653  11.738   7.597  0.2460  0.0237 -0.0037
 1289POPI   C4B20280   9.331  11.832   7.843 -0.1267 -0.4560 -0.0172
 1290POPI    C120281   3.241  15.639   4.981 -0.1047 -0.1236  0.2408
 1290POPI    C220282   3.441  15.430   4.705 -0.2709  0.1778 -0.1157
 1290POPI    C320283   3.110  15.278   4.870 -0.0340 -0.1086  0.1071
 1290POPI   PO420284   3.374  15.712   5.160  0.2416  0.0017  0.1422
 1290POPI   GL120285   3.401  15.949   5.505  0.0185 -0.0436 -0.0449
 1290POPI   GL220286   3.732  15.925   5.650 -0.1628  0.0116 -0.3301
 1290POPI   C1A20287   3.285  15.775   5.873 -0.1702  0.0936  0.3764
 1290POPI   D2A20288   3.281  15.783   6.265 -0.0877 -0.0755  0.0807
 1290POPI   C3A20289   2.933  15.712   6.572  0.1018 -0.1201 -0.0103
 1290POPI   C4A20290   2.834  15.471   6.975  0.0219  0.1955  0.1006
 1290POPI   C1B20291   3.669  16.126   6.089 -0.1902 -0.1840  0.3487
 1290POPI   C2B20292   3.477  16.183   6.550 -0.0805  0.3490  0.2083
 1290POPI   C3B20293   3.354  16.314   6.985  0.1229 -0.2204 -0.0647
 1290POPI   C4B20294   3.429  16.535   7.394  0.1662  0.2145  0.1625
 1291POPI    C120295  16.477   1.391   5.705  0.1180 -0.1291 -0.1246
 1291POPI    C220296  16.447   1.667   5.418 -0.0680  0.0054  0.0217
 1291POPI    C320297  16.519   1.286   5.321 -0.0725  0.0589 -0.1987
 1291POPI   PO420298  16.306   1.564   5.933 -0.1619  0.1763  0.1603
 1291POPI   GL120299  16.109   1.382   6.363 -0.2774  0.0481 -0.0038
 1291POPI   GL220300  16.199   1.660   6.487 -0.0623  0.0745  0.1212
 1291POPI   C1A20301  16.065   1.218   6.779 -0.0675  0.0729  0.1923
 1291POPI   D2A20302  16.143   1.109   7.197  0.2752  0.1333 -0.1515
 1291POPI   C3A20303  16.457   1.001   7.473 -0.4200  0.2243 -0.0681
 1291POPI   C4A20304  16.606   0.860   7.837 -0.2227  0.1018 -0.1539
 1291POPI   C1B20305  16.326   1.607   6.918  0.1864  0.1013  0.1642
 1291POPI   C2B20306  16.496   1.528   7.309  0.3601 -0.0846 -0.3037
 1291POPI   C3B20307  16.810   1.363   7.547  0.1058 -0.1700 -0.2426
 1291POPI   C4B20308  17.163   1.469   7.892  0.0441 -0.2969  0.1743
 1292POPI    C120309   2.732  13.329   4.964 -0.1392  0.2564  0.2587
 1292POPI    C220310   3.097  13.487   4.914 -0.0804  0.0768  0.1119
 1292POPI    C320311   2.824  13.517   4.623 -0.1380  0.0905  0.1671
 1292POPI   PO420312   2.750  13.377   5.274 -0.1503  0.0574 -0.0281
 1292POPI   GL120313   2.563  13.465   5.591  0.0760  0.1664  0.1335
 1292POPI   GL220314   2.739  13.750   5.770 -0.0025  0.0211  0.1626
 1292POPI   C1A20315   2.400  13.546   5.999 -0.0329 -0.1592 -0.0298
 1292POPI   D2A20316   2.420  13.305   6.363  0.3903 -0.0795 -0.5067
 1292POPI   C3A20317   2.361  13.307   6.850  0.2070  0.0843 -0.2128
 1292POPI   C4A20318   2.311  13.160   7.340 -0.2587  0.0448 -0.1769
 1292POPI   C1B20319   2.803  13.740   6.226 -0.2576  0.1019  0.3531
 1292POPI   C2B20320   2.736  13.607   6.680  0.1264 -0.0564  0.3093
 1292POPI   C3B20321   2.759  13.504   7.156  0.0506  0.1117 -0.0039
 1292POPI   C4B20322   2.706  13.457   7.588 -0.0679  0.1373 -0.0876
 1293POPI    C120323   4.778   2.345   4.861 -0.0890 -0.1761 -0.0611
 1293POPI    C220324   4.920   2.637   4.627 -0.1025  0.0751  0.2363
 1293POPI    C320325   4.671   2.362   4.476 -0.0137  0.1584 -0.0704
 1293POPI   PO420326   4.845   2.438   5.073 -0.1278 -0.0911 -0.2037
 1293POPI   GL120327   4.829   2.251   5.471 -0.1048 -0.0187 -0.1419
 1293POPI   GL220328   4.824   2.584   5.541 -0.1914  0.0075 -0.0928
 1293POPI   C1A20329   4.838   2.008   5.856 -0.1248 -0.0701 -0.3218
 1293POPI   D2A20330   4.782   1.767   6.306 -0.1951 -0.0058 -0.0914
 1293POPI   C3A20331   4.847   1.927   6.743  0.0674  0.0097  0.0811
 1293POPI   C4A20332   4.804   1.869   7.132 -0.0521 -0.0564  0.0454
 1293POPI   C1B20333   4.998   2.802   5.994  0.2627  0.1787 -0.1075
 1293POPI   C2B20334   5.066   2.726   6.480  0.1671 -0.0957 -0.0638
 1293POPI   C3B20335   5.090   2.778   6.908  0.0634 -0.0977  0.1388
 1293POPI   C4B20336   5.109   2.628   7.421 -0.1876 -0.1790 -0.0213
 1294POPI    C120337   3.196  16.924   5.030 -0.1227  0.1013  0.0103
 1294POPI    C220338   3.030  16.917   4.666 -0.0503  0.0300 -0.0217
 1294POPI    C320339   2.842  17.099   4.968 -0.1965 -0.0681 -0.0525
 1294POPI   PO420340   3.316  16.661   5.057 -0.0036  0.3311 -0.0433
 1294POPI   GL120341   3.407  16.484   5.435  0.2107 -0.0058 -0.0263
 1294POPI   GL220342   3.114  16.430   5.495  0.2626 -0.1867 -0.2742
 1294POPI   C1A20343   3.569  16.547   5.850 -0.2939  0.2900  0.1999
 1294POPI   D2A20344   3.639  16.693   6.226  0.0751 -0.0039 -0.0590
 1294POPI   C3A20345   3.453  16.685   6.611  0.2001  0.0687  0.0546
 1294POPI   C4A20346   3.389  16.832   6.999 -0.3301 -0.0466 -0.1711
 1294POPI   C1B20347   3.088  16.224   5.933  0.2227 -0.3160 -0.2826
 1294POPI   C2B20348   3.075  16.319   6.313  0.0027 -0.2372  0.2036
 1294POPI   C3B20349   2.990  16.348   6.669  0.0072 -0.2060  0.0601
 1294POPI   C4B20350   2.887  16.381   7.177 -0.3770 -0.1868 -0.0437
 1295POPI    C120351   3.136   6.791   5.087 -0.2311  0.2164 -0.0371
 1295POPI    C220352   3.230   6.783   4.698  0.2692  0.2029  0.0781
 1295POPI    C320353   3.113   7.126   4.869  0.0460  0.2085 -0.0813
 1295POPI   PO420354   3.299   6.629   5.169 -0.2868  0.1763  0.1804
 1295POPI   GL120355   3.332   6.317   5.466 -0.3303  0.3069 -0.4851
 1295POPI   GL220356   3.533   6.626   5.622 -0.1945 -0.0473  0.0666
 1295POPI   C1A20357   3.559   6.042   5.793 -0.1757 -0.0621  0.2889
 1295POPI   D2A20358   3.880   5.914   6.090  0.0656  0.1251  0.3145
 1295POPI   C3A20359   3.896   5.986   6.592  0.2955 -0.0809 -0.1068
 1295POPI   C4A20360   3.892   5.852   7.003  0.5309 -0.1532  0.0864
 1295POPI   C1B20361   3.697   6.461   6.030 -0.2145 -0.1217 -0.0293
 1295POPI   C2B20362   3.783   6.491   6.439 -0.0778 -0.0243  0.0639
 1295POPI   C3B20363   3.785   6.437   6.842  0.0233 -0.4097  0.3595
 1295POPI   C4B20364   3.783   6.381   7.298 -0.3143 -0.1507 -0.2443
 1296POPI    C120365   1.283  10.112   5.323  0.0181  0.1189 -0.0411
 1296POPI    C220366   0.970  10.019   5.093 -0.0643 -0.0895  0.1513
 1296POPI    C320367   1.061  10.403   5.161 -0.1214 -0.0268 -0.1133
 1296POPI   PO420368   1.228  10.014   5.563  0.2878 -0.0059  0.1027
 1296POPI   GL120369   1.445   9.829   5.896  0.1644  0.0800  0.0755
 1296POPI   GL220370   0.981   9.803   6.016 -0.0856  0.0690  0.1739
 1296POPI   C1A20371   1.331   9.700   6.269  0.0479  0.1383 -0.0912
 1296POPI   D2A20372   1.419   9.629   6.721 -0.0365  0.1765 -0.0649
 1296POPI   C3A20373   1.570   9.382   7.096  0.1279 -0.2549 -0.1938
 1296POPI   C4A20374   1.727   9.266   7.453 -0.0840 -0.0045 -0.2459
 1296POPI   C1B20375   0.872   9.947   6.442 -0.2214 -0.0562  0.1124
 1296POPI   C2B20376   0.978   9.911   6.773 -0.1973 -0.0260  0.0234
 1296POPI   C3B20377   1.168   9.831   7.225  0.0261 -0.1438  0.1712
 1296POPI   C4B20378   1.169   9.477   7.483  0.2772  0.1631 -0.0661
 1297POPI    C120379  17.782  16.372   5.075 -0.2197  0.0445  0.0092
 1297POPI    C220380  17.902  16.081   4.828  0.0571  0.1966 -0.0392
 1297POPI    C320381  18.079  16.128   5.183 -0.3399 -0.0219  0.1955
 1297POPI   PO420382  17.555  16.381   5.224  0.0955 -0.0497  0.0455
 1297POPI   GL120383  17.550  16.224   5.739 -0.0184  0.0124  0.0835
 1297POPI   GL220384  17.867  16.127   5.924  0.1154 -0.1321  0.2821
 1297POPI   C1A20385  17.379  16.145   6.131  0.1777 -0.0291 -0.1102
 1297POPI   D2A20386  17.308  15.844   6.415 -0.2745  0.5113  0.1413
 1297POPI   C3A20387  17.196  15.816   6.863 -0.1689 -0.1351  0.4440
 1297POPI   C4A20388  17.301  15.735   7.230 -0.1002  0.0084  0.1944
 1297POPI   C1B20389  17.893  15.992   6.406  0.0531 -0.0051  0.0874
 1297POPI   C2B20390  18.117  15.940   6.751 -0.3115  0.0310  0.1610
 1297POPI   C3B20391  18.149  15.981   7.203 -0.1892  0.0391  0.1265
 1297POPI   C4B20392  17.760  15.879   7.423 -0.0411  0.1363  0.0890
 1298DPPI    C120393  12.879  17.046   5.716 -0.1536 -0.1171 -0.1228
 1298DPPI    C220394  12.697  17.058   5.360  0.0064 -0.1936 -0.2078
 1298DPPI    C320395  12.980  16.784   5.431  0.1772  0.0030 -0.1201
 1298DPPI   PO420396  12.739  17.038   5.869  0.0270  0.3273  0.0123
 1298DPPI   GL120397  12.812  17.142   6.240 -0.1385 -0.0866 -0.0406
 1298DPPI   GL220398  12.484  17.325   6.238  0.1504  0.1602  0.1154
 1298DPPI   C1A20399  12.846  16.895   6.619  0.0798 -0.2019 -0.1452
 1298DPPI   C2A20400  12.708  16.893   7.065 -0.0432 -0.0387  0.1023
 1298DPPI   C3A20401  12.545  16.919   7.432  0.3749 -0.1043 -0.1627
 1298DPPI   C4A20402  12.507  16.965   7.798 -0.1739  0.1488  0.3219
 1298DPPI   C1B20403  12.476  17.230   6.738  0.0747  0.0138  0.0219
 1298DPPI   C2B20404  12.326  17.310   7.213  0.2402  0.1054  0.2175
 1298DPPI   C3B20405  12.350  17.368   7.631  0.3071  0.0577  0.2339
 1298DPPI   C4B20406  12.162  17.386   8.045  0.2236 -0.0502 -0.1592
 1299DPPI    C120407   6.738  17.854   4.932  0.0864  0.0216  0.1627
 1299DPPI    C220408   6.588  18.004   4.593 -0.0139  0.0579  0.2225
 1299DPPI    C320409   6.968  17.879   4.606 -0.0401 -0.0417  0.0675
 1299DPPI   PO420410   6.715  17.947   5.108 -0.4111 -0.1679  0.4299
 1299DPPI   GL120411   6.655  18.004   5.553  0.0914  0.1449 -0.1547
 1299DPPI   GL220412   6.899  18.211   5.508  0.0089  0.1695  0.1353
 1299DPPI   C1A20413   6.607  17.944   6.031  0.3099 -0.2159  0.2513
 1299DPPI   C2A20414   6.538  17.861   6.551  0.2646 -0.1298  0.1251
 1299DPPI   C3A20415   6.369  17.851   7.023  0.0052  0.1389  0.0430
 1299DPPI   C4A20416   6.281  17.776   7.502 -0.1997 -0.0772  0.1334
 1299DPPI   C1B20417   7.000  18.208   5.935 -0.2366  0.0210 -0.0011
 1299DPPI   C2B20418   6.987  17.925   6.302 -0.0527  0.1120  0.3779
 1299DPPI   C3B20419   7.002  17.773   6.662 -0.0126  0.1342  0.2024
 1299DPPI   C4B20420   6.835  17.790   7.094 -0.0682 -0.0826  0.0347
 1300DPPI    C120421  10.903   0.859   5.119 -0.1313  0.1329 -0.0744
 1300DPPI    C220422  10.734   0.527   4.972 -0.0495  0.0692 -0.0257
 1300DPPI    C320423  10.867   0.811   4.723  0.0891 -0.0386 -0.0760
 1300DPPI   PO420424  10.821   0.871   5.343  0.1466  0.1117 -0.1752
 1300DPPI   GL120425  10.642   0.683   5.754  0.0467 -0.1189  0.0188
 1300DPPI   GL220426  10.698   0.376   5.996  0.0316 -0.1217  0.1843
 1300DPPI   C1A20427  10.445   0.839   6.141 -0.0087  0.0453  0.2498
 1300DPPI   C2A20428  10.475   0.810   6.589  0.1685 -0.2256  0.1339
 1300DPPI   C3A20429  10.365   0.827   7.078 -0.0254 -0.0918  0.0219
 1300DPPI   C4A20430  10.207   0.807   7.429 -0.2467 -0.2127  0.1874
 1300DPPI   C1B20431  10.589   0.333   6.437 -0.0348  0.0497  0.1867
 1300DPPI   C2B20432  10.567   0.345   6.810 -0.0051  0.1522  0.1686
 1300DPPI   C3B20433  10.477   0.359   7.215  0.0441 -0.2673 -0.0568
 1300DPPI   C4B20434  10.381   0.287   7.611  0.2063 -0.1584 -0.1390
 1301DPPI    C120435   9.725   8.067   5.518 -0.3513  0.1210 -0.0372
 1301DPPI    C220436   9.890   8.227   5.191 -0.0564  0.1452  0.1208
 1301DPPI    C320437   9.593   7.962   5.155  0.0959  0.0099 -0.1736
 1301DPPI   PO420438   9.810   8.302   5.683  0.0942  0.0769  0.0615
 1301DPPI   GL120439  10.041   8.402   5.997 -0.0621 -0.0929  0.0993
 1301DPPI   GL220440  10.357   8.361   6.195 -0.0447  0.3982 -0.0662
 1301DPPI   C1A20441   9.882   8.309   6.416  0.1969  0.0887  0.3325
 1301DPPI   C2A20442   9.913   8.175   6.858  0.0854 -0.1043 -0.1013
 1301DPPI   C3A20443   9.812   8.136   7.363  0.1445 -0.0247  0.1754
 1301DPPI   C4A20444   9.674   7.815   7.695 -0.3892  0.0216  0.0586
 1301DPPI   C1B20445  10.317   8.343   6.651  0.0745  0.0294  0.0001
 1301DPPI   C2B20446  10.311   8.433   7.089 -0.3337  0.2017  0.3262
 1301DPPI   C3B20447  10.152   8.550   7.516  0.1687 -0.0455 -0.0285
 1301DPPI   C4B20448   9.849   8.451   7.797 -0.0812  0.2560  0.3288
 1302DPPI    C120449   9.521  17.986   5.086 -0.0717 -0.0700 -0.0251
 1302DPPI    C220450   9.528  17.979   4.687 -0.2446 -0.0906 -0.0284
 1302DPPI    C320451   9.626  18.314   4.883  0.4653 -0.2585 -0.0687
 1302DPPI   PO420452   9.325  17.961   5.176  0.2345  0.0147 -0.5382
 1302DPPI   GL120453   9.229  17.950   5.582  0.3109 -0.1207 -0.2503
 1302DPPI   GL220454   8.954  18.094   5.687  0.1048  0.1803  0.3356
 1302DPPI   C1A20455   9.470  17.732   5.952  0.0545 -0.1734  0.1294
 1302DPPI   C2A20456   9.470  17.860   6.251 -0.0195  0.1286 -0.1254
 1302DPPI   C3A20457   9.320  17.953   6.663  0.2918 -0.2177 -0.0750
 1302DPPI   C4A20458   9.312  17.806   7.111  0.1253  0.0038 -0.3080
 1302DPPI   C1B20459   8.878  17.998   6.156  0.1167  0.0008 -0.0245
 1302DPPI   C2B20460   8.777  18.084   6.580 -0.0238 -0.0973  0.0676
 1302DPPI   C3B20461   8.794  17.921   6.983 -0.1631  0.2750 -0.1856
 1302DPPI   C4B20462   8.901  17.844   7.396  0.0306  0.4512  0.0465
 1303DPPI    C120463  10.343   3.436   5.298 -0.0796  0.1873 -0.0534
 1303DPPI    C220464  10.707   3.600   5.272 -0.0783  0.2114  0.1022
 1303DPPI    C320465  10.467   3.592   4.952  0.0621  0.1872 -0.0033
 1303DPPI   PO420466  10.372   3.484   5.575  0.1668  0.1252 -0.0073
 1303DPPI   GL120467  10.175   3.561   5.980 -0.0492 -0.0036 -0.0810
 1303DPPI   GL220468   9.963   3.232   5.960  0.0230  0.0411 -0.0501
 1303DPPI   C1A20469  10.248   3.725   6.388 -0.1759  0.2555  0.1827
 1303DPPI   C2A20470  10.047   3.733   6.880 -0.0432 -0.1625  0.0611
 1303DPPI   C3A20471   9.923   3.649   7.280 -0.1215  0.2144 -0.1995
 1303DPPI   C4A20472   9.995   3.667   7.697  0.2342 -0.2527 -0.1292
 1303DPPI   C1B20473  10.000   3.182   6.374  0.2457  0.1214 -0.0839
 1303DPPI   C2B20474  10.139   3.243   6.677 -0.0116  0.1529 -0.1450
 1303DPPI   C3B20475  10.117   3.226   7.144  0.0729 -0.2702 -0.0070
 1303DPPI   C4B20476  10.020   3.076   7.593  0.0806  0.2006 -0.3227
 1304DPPI    C120477  16.569   5.854   5.567  0.0874 -0.3075 -0.2034
 1304DPPI    C220478  16.237   5.819   5.347 -0.1394  0.2209  0.0362
 1304DPPI    C320479  16.529   6.067   5.231  0.0231  0.0192  0.0067
 1304DPPI   PO420480  16.669   5.607   5.650 -0.1011  0.1712 -0.1822
 1304DPPI   GL120481  16.722   5.557   6.073  0.0869  0.0420  0.0576
 1304DPPI   GL220482  16.973   5.750   6.000 -0.0672 -0.0753 -0.0301
 1304DPPI   C1A20483  16.619   5.500   6.511  0.0636  0.0442  0.1384
 1304DPPI   C2A20484  16.687   5.475   6.926 -0.2263 -0.1662 -0.2213
 1304DPPI   C3A20485  16.609   5.473   7.418 -0.0414  0.0296 -0.0450
 1304DPPI   C4A20486  16.398   5.485   7.798 -0.2238 -0.2081  0.2910
 1304DPPI   C1B20487  17.077   5.765   6.461 -0.0830  0.2131 -0.0421
 1304DPPI   C2B20488  17.204   5.737   6.886 -0.3012  0.1053  0.2943
 1304DPPI   C3B20489  17.033   5.716   7.311 -0.3126 -0.1599 -0.0284
 1304DPPI   C4B20490  17.038   5.474   7.694 -0.0516 -0.2127 -0.0268
 1305DPPI    C120491   6.823  15.466   5.280  0.0694 -0.0874 -0.0310
 1305DPPI    C220492   6.767  15.437   4.885  0.0608  0.1911 -0.0524
 1305DPPI    C320493   6.531  15.233   5.136  0.1365 -0.0735 -0.1918
 1305DPPI   PO420494   6.801  15.796   5.411  0.1929  0.1330  0.1555
 1305DPPI   GL120495   6.414  15.925   5.619  0.0027 -0.1237 -0.0961
 1305DPPI   GL220496   6.440  15.632   5.716  0.1389  0.0956 -0.3519
 1305DPPI   C1A20497   6.222  16.161   5.964  0.3160  0.1874 -0.2363
 1305DPPI   C2A20498   6.000  16.134   6.423 -0.1717 -0.1603 -0.0461
 1305DPPI   C3A20499   5.846  16.131   6.842 -0.0352  0.0046 -0.2613
 1305DPPI   C4A20500   5.868  16.191   7.214  0.2146  0.2007  0.0853
 1305DPPI   C1B20501   6.251  15.703   6.152 -0.0768  0.1233 -0.0996
 1305DPPI   C2B20502   6.235  15.664   6.610 -0.0928  0.3808  0.2937
 1305DPPI   C3B20503   6.151  15.746   7.041 -0.2140  0.1688  0.4086
 1305DPPI   C4B20504   6.067  15.759   7.483 -0.1007  0.0772 -0.0744
 1306DPPI    C120505   7.911  11.562   5.647 -0.2002  0.0565  0.1050
 1306DPPI    C220506   7.793  11.184   5.595 -0.1567  0.0331  0.1757
 1306DPPI    C320507   8.109  11.324   5.394 -0.1775  0.0341  0.1437
 1306DPPI   PO420508   7.947  11.559   5.888 -0.1300  0.0232 -0.1796
 1306DPPI   GL120509   7.813  11.583   6.275 -0.0658 -0.1375  0.0900
 1306DPPI   GL220510   7.865  11.865   6.282 -0.0750  0.0770  0.0205
 1306DPPI   C1A20511   7.422  11.557   6.462  0.1881 -0.0698 -0.0750
 1306DPPI   C2A20512   7.210  11.523   6.795  0.0239  0.1381  0.0385
 1306DPPI   C3A20513   7.194  11.437   7.278  0.2122 -0.1087  0.0172
 1306DPPI   C4A20514   7.228  11.454   7.767 -0.1259  0.2139  0.2205
 1306DPPI   C1B20515   7.988  12.003   6.686  0.0430  0.0731 -0.0560
 1306DPPI   C2B20516   8.002  11.857   7.081  0.1596  0.1386 -0.2722
 1306DPPI   C3B20517   7.860  11.605   7.402 -0.0020  0.0073 -0.4076
 1306DPPI   C4B20518   7.699  11.189   7.571  0.2926  0.3741  0.1141
 1307DPPI    C120519  12.695   3.780   5.531  0.0667  0.0512 -0.0529
 1307DPPI    C220520  13.085   3.747   5.611  0.0855  0.0011 -0.1633
 1307DPPI    C320521  12.935   4.097   5.490  0.0839  0.0378 -0.0561
 1307DPPI   PO420522  12.604   3.604   5.706  0.0659  0.1609  0.3664
 1307DPPI   GL120523  12.481   3.631   6.115 -0.0300 -0.0954  0.0437
 1307DPPI   GL220524  12.864   3.541   6.130 -0.0784 -0.2073 -0.2880
 1307DPPI   C1A20525  12.340   3.675   6.574  0.1584  0.0553  0.2977
 1307DPPI   C2A20526  12.104   3.636   6.903 -0.2315  0.2033  0.1022
 1307DPPI   C3A20527  11.937   3.609   7.256 -0.1948  0.1581  0.0544
 1307DPPI   C4A20528  11.812   3.616   7.744 -0.2092  0.1503 -0.1214
 1307DPPI   C1B20529  12.852   3.630   6.581  0.1863  0.1054 -0.0621
 1307DPPI   C2B20530  12.680   3.521   7.000  0.2136  0.1115 -0.0414
 1307DPPI   C3B20531  12.707   3.542   7.407 -0.3539  0.1025 -0.1280
 1307DPPI   C4B20532  12.565   3.593   7.719 -0.1244  0.1515 -0.0771
 1308PYPI    C120533   7.523   6.435   4.976  0.0541  0.0375 -0.1614
 1308PYPI    C220534   7.519   6.120   5.223  0.0175  0.0489 -0.1473
 1308PYPI    C320535   7.589   6.067   4.832  0.1607  0.0405 -0.1213
 1308PYPI   PO420536   7.510   6.654   5.176  0.0362  0.3507  0.0388
 1308PYPI   GL120537   7.430   6.581   5.694 -0.0481 -0.0709  0.0652
 1308PYPI   GL220538   7.259   6.265   5.645 -0.2596  0.2491 -0.0824
 1308PYPI   C1A20539   7.509   6.680   6.092  0.2186  0.1536  0.0970
 1308PYPI   C2A20540   7.457   6.800   6.550 -0.1678  0.0768 -0.5373
 1308PYPI   D3A20541   7.290   6.766   7.006  0.0655  0.1512 -0.4116
 1308PYPI   C4A20542   7.292   6.687   7.438  0.0879  0.1034  0.1681
 1308PYPI   C1B20543   7.096   6.370   6.117 -0.0100 -0.0813  0.3478
 1308PYPI   C2B20544   6.950   6.420   6.548 -0.1268  0.1772  0.2313
 1308PYPI   C3B20545   6.988   6.312   6.936  0.0514 -0.2670  0.0557
 1308PYPI   C4B20546   6.865   6.355   7.274  0.0824  0.1022  0.0465
 1309PYPI    C120547   9.361  10.629   5.803  0.1515 -0.2045 -0.2117
 1309PYPI    C220548   8.986  10.489   5.805 -0.0868  0.3948  0.2304
 1309PYPI    C320549   9.114  10.715   5.501 -0.0107  0.0290 -0.0165
 1309PYPI   PO420550   9.389  10.669   6.037  0.2200 -0.1253  0.0930
 1309PYPI   GL120551   9.278  10.670   6.387 -0.1364 -0.0265  0.0342
 1309PYPI   GL220552   9.194  11.007   6.418  0.1751 -0.2106 -0.0273
 1309PYPI   C1A20553   9.498  10.530   6.809  0.1519 -0.1352 -0.1716
 1309PYPI   C2A20554   9.433  10.535   7.239  0.0415  0.0375 -0.2449
 1309PYPI   D3A20555   9.618  10.404   7.633 -0.1041  0.1033 -0.2451
 1309PYPI   C4A20556   9.580  10.200   8.067 -0.4131 -0.0797 -0.2318
 1309PYPI   C1B20557   9.209  10.953   6.806 -0.1541 -0.0772 -0.2800
 1309PYPI   C2B20558   9.110  11.041   7.196 -0.0254 -0.2628  0.0476
 1309PYPI   C3B20559   9.022  10.963   7.576  0.1410 -0.1811 -0.1202
 1309PYPI   C4B20560   9.385  10.796   7.846 -0.0963 -0.2078  0.1222
 1310PYPI    C120561  12.507  16.673   5.582  0.1028  0.1527 -0.0257
 1310PYPI    C220562  12.657  16.429   5.302  0.0606  0.1476 -0.0439
 1310PYPI    C320563  12.395  16.714   5.200 -0.1010  0.0231  0.0182
 1310PYPI   PO420564  12.361  16.564   5.767 -0.2414  0.1047 -0.1281
 1310PYPI   GL120565  12.395  16.574   6.262  0.0080  0.1643 -0.1357
 1310PYPI   GL220566  12.712  16.643   6.184  0.0659  0.1025  0.0135
 1310PYPI   C1A20567  12.434  16.512   6.747  0.3728 -0.0469 -0.0366
 1310PYPI   C2A20568  12.306  16.530   7.152  0.2421 -0.1764 -0.3466
 1310PYPI   D3A20569  12.143  16.445   7.652 -0.2112 -0.0478  0.1632
 1310PYPI   C4A20570  12.228  16.611   8.097  0.2194  0.0702 -0.3528
 1310PYPI   C1B20571  12.859  16.415   6.505  0.0030 -0.0802  0.0960
 1310PYPI   C2B20572  12.950  16.434   6.916  0.3742 -0.2551 -0.1629
 1310PYPI   C3B20573  12.810  16.469   7.357  0.0602 -0.1501  0.0199
 1310PYPI   C4B20574  12.903  16.648   7.678  0.0175 -0.0994  0.0564
 1311PYPI    C120575   5.077  14.561   5.120  0.0186 -0.0411 -0.1776
 1311PYPI    C220576   4.845  14.869   5.014  0.0646  0.0218 -0.0968
 1311PYPI    C320577   4.800  14.514   4.835 -0.2120 -0.0138  0.0381
 1311PYPI   PO420578   5.048  14.564   5.406 -0.0412 -0.0787  0.1191
 1311PYPI   GL120579   4.875  14.510   5.705  0.3325  0.1223  0.0063
 1311PYPI   GL220580   4.833  14.203   5.734  0.1350 -0.2242  0.2340
 1311PYPI   C1A20581   4.887  14.636   6.165  0.3820 -0.1430  0.2179
 1311PYPI   C2A20582   4.851  14.541   6.524 -0.0393  0.0273 -0.0254
 1311PYPI   D3A20583   4.671  14.513   6.912  0.2044 -0.2292 -0.2081
 1311PYPI   C4A20584   4.877  14.434   7.324  0.1075  0.2193  0.2502
 1311PYPI   C1B20585   4.567  14.257   6.140  0.0854 -0.1132  0.1764
 1311PYPI   C2B20586   4.467  14.143   6.537 -0.0586  0.1480 -0.1314
 1311PYPI   C3B20587   4.435  14.072   6.949  0.1685  0.0519  0.0649
 1311PYPI   C4B20588   4.411  14.060   7.351 -0.0569 -0.2394  0.0012
 1312PYPI    C120589  13.489   3.935   5.360  0.0782 -0.3617 -0.0962
 1312PYPI    C220590  13.742   4.243   5.392 -0.1702 -0.1774  0.1494
 1312PYPI    C320591  13.701   4.054   5.042  0.0596  0.0020  0.0219
 1312PYPI   PO420592  13.563   3.755   5.668 -0.0558  0.1682  0.2247
 1312PYPI   GL120593  13.325   3.748   6.083 -0.0892 -0.0568 -0.1987
 1312PYPI   GL220594  13.183   3.986   6.329  0.2129  0.0106 -0.0939
 1312PYPI   C1A20595  13.411   3.335   6.239  0.1953  0.1304  0.0424
 1312PYPI   C2A20596  13.437   3.148   6.638 -0.1935  0.1687  0.0065
 1312PYPI   D3A20597  13.644   3.194   7.071 -0.1179 -0.1514  0.0183
 1312PYPI   C4A20598  13.728   2.727   6.960 -0.2631 -0.5306 -0.0600
 1312PYPI   C1B20599  12.915   4.115   6.677  0.2099  0.1437  0.1878
 1312PYPI   C2B20600  12.570   4.024   6.905  0.1934  0.0176 -0.0331
 1312PYPI   C3B20601  12.381   3.975   7.260  0.1834 -0.2112  0.1705
 1312PYPI   C4B20602  12.227   3.976   7.669  0.3377  0.0438 -0.3689
 1313PYPI    C120603  15.303   8.315   5.530 -0.0592  0.1076 -0.0078
 1313PYPI    C220604  15.049   8.021   5.625 -0.0138  0.0573 -0.0417
 1313PYPI    C320605  15.416   7.933   5.493  0.0337  0.1302  0.0404
 1313PYPI   PO420606  15.226   8.506   5.643 -0.2590  0.0500 -0.1184
 1313PYPI   GL120607  15.153   8.635   6.080  0.0639 -0.3077 -0.2111
 1313PYPI   GL220608  15.224   8.298   6.144  0.0890 -0.0879  0.1245
 1313PYPI   C1A20609  14.982   8.723   6.492  0.0840  0.4088  0.0897
 1313PYPI   C2A20610  14.796   8.680   6.876  0.2150  0.0256  0.2054
 1313PYPI   D3A20611  14.832   8.554   7.385  0.0249  0.0115 -0.0834
 1313PYPI   C4A20612  15.126   8.660   7.648  0.2866  0.0788  0.0543
 1313PYPI   C1B20613  15.252   8.332   6.557 -0.0258  0.0251 -0.1369
 1313PYPI   C2B20614  15.160   8.344   6.988 -0.5020 -0.2610 -0.2730
 1313PYPI   C3B20615  15.240   8.200   7.357  0.1609  0.1324 -0.1962
 1313PYPI   C4B20616  14.991   8.111   7.699 -0.0647  0.2982  0.1392
 1314ERGO   ROH20617  13.105  10.589   5.872  0.0884  0.0136  0.0455
 1314ERGO    R120618  13.199  10.530   6.132  0.0443  0.0947  0.0796
 1314ERGO    R220619  13.102  10.657   6.358 -0.0973  0.0601  0.0350
 1314ERGO    R320620  13.056  10.403   6.442  0.0266  0.0422  0.0512
 1314ERGO    R420621  13.045  10.564   6.686  0.0299  0.0502  0.0549
 1314ERGO    R520622  13.169  10.388   6.652  0.0936  0.0949  0.0231
 1314ERGO    C120623  12.970  10.271   6.956  0.2203  0.0277  0.0817
 1314ERGO    C220624  12.916  10.205   7.293  0.2722  0.0413  0.0107
 1315ERGO   ROH20625   8.760   1.477   5.817  0.0419  0.0430  0.0433
 1315ERGO    R120626   8.755   1.632   6.053  0.1499  0.0004  0.0756
 1315ERGO    R220627   8.528   1.659   6.210  0.1531  0.1546  0.0672
 1315ERGO    R320628   8.694   1.573   6.407  0.0721 -0.0263  0.0558
 1315ERGO    R420629   8.466   1.690   6.548  0.2244  0.2306  0.0727
 1315ERGO    R520630   8.676   1.740   6.578  0.2784 -0.0063  0.0534
 1315ERGO    C120631   8.586   1.626   6.931  0.1898  0.1049  0.0652
 1315ERGO    C220632   8.657   1.628   7.310 -0.0273  0.1327  0.0732
 1316ERGO   ROH20633  13.333  13.544   6.186 -0.0031  0.1724  0.0220
 1316ERGO    R120634  13.392  13.674   6.430 -0.0566  0.2249  0.0074
 1316ERGO    R220635  13.196  13.752   6.609 -0.0839  0.0524  0.0572
 1316ERGO    R320636  13.344  13.606   6.785  0.0903  0.1790  0.0186
 1316ERGO    R420637  13.204  13.803   6.950 -0.2347 -0.1069  0.0862
 1316ERGO    R520638  13.419  13.766   6.946 -0.1781  0.2086  0.1154
 1316ERGO    C120639  13.347  13.697   7.314 -0.1589 -0.0808  0.0669
 1316ERGO    C220640  13.509  13.770   7.639  0.1793 -0.1942  0.0019
 1317ERGO   ROH20641  13.185  17.466   6.382 -0.1387  0.0398 -0.0575
 1317ERGO    R120642  12.981  17.498   6.576 -0.0685 -0.0838  0.0379
 1317ERGO    R220643  12.969  17.346   6.806  0.1901 -0.0223  0.0948
 1317ERGO    R320644  12.963  17.589   6.928  0.0330  0.0128  0.0188
 1317ERGO    R420645  12.797  17.416   7.097  0.2538 -0.0753  0.1461
 1317ERGO    R520646  12.739  17.608   7.011  0.0513 -0.1527  0.1083
 1317ERGO    C120647  12.690  17.685   7.381  0.1434 -0.0731  0.1046
 1317ERGO    C220648  12.582  17.828   7.611 -0.1873  0.0515  0.0310
 1318ERGO   ROH20649  13.319   1.048   6.192 -0.2063 -0.0557 -0.1529
 1318ERGO    R120650  13.326   1.140   6.459  0.0365 -0.2631 -0.0827
 1318ERGO    R220651  13.155   1.336   6.554  0.5027  0.0916  0.0728
 1318ERGO    R320652  13.096   1.149   6.742  0.0665  0.0797 -0.0669
 1318ERGO    R420653  13.080   1.405   6.884  0.6674  0.0213  0.1255
 1318ERGO    R520654  13.198   1.232   6.942  0.2674 -0.3073 -0.0031
 1318ERGO    C120655  12.980   1.270   7.252  0.3537 -0.0309  0.0251
 1318ERGO    C220656  12.854   1.490   7.454  0.2182 -0.3443  0.0430
 1319ERGO   ROH20657  16.642   4.577   6.123  0.0906  0.0300  0.1946
 1319ERGO    R120658  16.451   4.700   6.291 -0.0376 -0.0620  0.1187
 1319ERGO    R220659  16.232   4.565   6.391  0.1028 -0.2302  0.2051
 1319ERGO    R320660  16.328   4.653   6.630  0.0170  0.0212  0.1505
 1319ERGO    R420661  16.089   4.497   6.698  0.2277 -0.2649  0.2560
 1319ERGO    R520662  16.132   4.702   6.759 -0.0369 -0.1732  0.1460
 1319ERGO    C120663  16.096   4.539   7.102  0.2197 -0.0491  0.2343
 1319ERGO    C220664  16.140   4.627   7.364  0.3177 -0.0866 -0.1951
 1320ERGO   ROH20665   7.420  12.941   6.498  0.0346  0.0339 -0.0847
 1320ERGO    R120666   7.600  12.907   6.714  0.0619  0.0669 -0.1032
 1320ERGO    R220667   7.610  13.080   6.928 -0.0042  0.0223 -0.0682
 1320ERGO    R320668   7.576  12.852   7.073  0.1087 -0.0244 -0.1127
 1320ERGO    R420669   7.707  13.040   7.258 -0.2672  0.1200  0.0242
 1320ERGO    R520670   7.774  12.838   7.208  0.0045  0.1904  0.0742
 1320ERGO    C120671   7.731  12.802   7.585 -0.3144  0.1330  0.0363
 1320ERGO    C220672   7.691  12.976   7.907  0.1952 -0.0219 -0.0208
 1321ERGO   ROH20673  17.705   4.636   6.143 -0.0339  0.0339  0.0345
 1321ERGO    R120674  17.663   4.451   6.353 -0.0369  0.0000  0.0055
 1321ERGO    R220675  17.870   4.350   6.506 -0.0222 -0.1277 -0.0910
 1321ERGO    R320676  17.719   4.443   6.713  0.0912 -0.1096 -0.0173
 1321ERGO    R420677  17.922   4.273   6.839  0.1002 -0.1700 -0.1206
 1321ERGO    R520678  17.706   4.258   6.864  0.1097 -0.1176 -0.0286
 1321ERGO    C120679  17.812   4.314   7.227  0.2779 -0.1776 -0.0686
 1321ERGO    C220680  17.896   4.118   7.524  0.2118  0.0507  0.0515
 1322ERGO   ROH20681   9.084   3.700   5.812  0.1073 -0.3031 -0.0442
 1322ERGO    R120682   9.176   3.568   6.045  0.1437 -0.1753  0.0154
 1322ERGO    R220683   9.238   3.702   6.278 -0.1212 -0.0782  0.0331
 1322ERGO    R320684   9.062   3.526   6.388  0.0203 -0.2652 -0.0357
 1322ERGO    R420685   9.231   3.612   6.612 -0.1310 -0.1134  0.0233
 1322ERGO    R520686   9.191   3.406   6.550  0.0929 -0.1502 -0.0072
 1322ERGO    C120687   9.062   3.394   6.909 -0.0038 -0.3095 -0.0470
 1322ERGO    C220688   9.121   3.493   7.205 -0.2526  0.2963  0.0949
 1323ERGO   ROH20689   9.445  12.120   6.173 -0.0480 -0.1277  0.0972
 1323ERGO    R120690   9.286  12.189   6.397  0.0085  0.0928  0.0725
 1323ERGO    R220691   9.281  12.037   6.628 -0.2473  0.0891  0.0726
 1323ERGO    R320692   9.345  12.273   6.746  0.0734  0.0002  0.0823
 1323ERGO    R420693   9.302  12.089   6.969 -0.1706  0.0597  0.0721
 1323ERGO    R520694   9.207  12.282   6.941  0.0920  0.1862  0.0822
 1323ERGO    C120695   9.375  12.340   7.279  0.1751 -0.0410  0.0809
 1323ERGO    C220696   9.446  12.227   7.570 -0.5267 -0.4742  0.2955
 1324ERGO   ROH20697   0.709   0.457   5.529 -0.1304  0.3006 -0.0010
 1324ERGO    R120698   0.687   0.629   5.752 -0.1331  0.2150  0.0638
 1324ERGO    R220699   0.478   0.615   5.931 -0.0745  0.0768  0.1115
 1324ERGO    R320700   0.677   0.593   6.115 -0.0216  0.0915  0.0579
 1324ERGO    R420701   0.441   0.678   6.269 -0.0098  0.0553  0.1235
 1324ERGO    R520702   0.637   0.775   6.266 -0.0150  0.0853  0.0775
 1324ERGO    C120703   0.607   0.695   6.638  0.0776  0.0566  0.0801
 1324ERGO    C220704   0.586   0.734   6.951 -0.2661 -0.1189 -0.2338
 1325ERGO   ROH20705   3.701   1.994   5.865  0.3850  0.0251  0.0406
 1325ERGO    R120706   3.785   2.102   6.113  0.1416  0.1389  0.0772
 1325ERGO    R220707   3.607   2.175   6.312 -0.0520  0.1235 -0.0806
 1325ERGO    R320708   3.760   2.010   6.464 -0.0978  0.2336  0.0854
 1325ERGO    R420709   3.682   2.226   6.645 -0.0684  0.4074 -0.1190
 1325ERGO    R520710   3.885   2.158   6.605 -0.0828  0.3334 -0.0371
 1325ERGO    C120711   3.869   2.101   6.982 -0.1209  0.6761  0.0145
 1325ERGO    C220712   3.898   2.149   7.326 -0.0130 -0.1695 -0.1734
 1326ERGO   ROH20713   0.170  15.260   6.020  0.0596 -0.3006 -0.2156
 1326ERGO    R120714   0.358  15.142   6.195 -0.0085 -0.2116 -0.0812
 1326ERGO    R220715   0.536  15.291   6.345 -0.0572 -0.1360 -0.1014
 1326ERGO    R320716   0.429  15.151   6.552 -0.1356 -0.0163 -0.0588
 1326ERGO    R420717   0.620  15.334   6.678  0.1435 -0.2400 -0.1373
 1326ERGO    R520718   0.612  15.117   6.702 -0.1029 -0.2369 -0.1408
 1326ERGO    C120719   0.569  15.227   7.065  0.1868 -0.1882 -0.1182
 1326ERGO    C220720   0.483  15.237   7.419 -0.0134 -0.3319 -0.2228
 1327ERGO   ROH20721   7.235   7.776   5.639  0.0414  0.0380 -0.1027
 1327ERGO    R120722   7.245   7.891   5.898  0.0561  0.0660 -0.1160
 1327ERGO    R220723   7.029   7.887   6.070  0.1085 -0.0335 -0.0538
 1327ERGO    R320724   7.207   7.773   6.241  0.2184  0.0770 -0.0933
 1327ERGO    R420725   6.977   7.842   6.409  0.1680 -0.1545 -0.0604
 1327ERGO    R520726   7.185   7.899   6.443  0.1251  0.0137 -0.0623
 1327ERGO    C120727   7.115   7.708   6.766  0.3057 -0.1213 -0.1013
 1327ERGO    C220728   7.166   7.690   7.081  0.2525 -0.0683  0.3098
 1328ERGO   ROH20729   7.754  15.778   5.801  0.0162  0.1543  0.0511
 1328ERGO    R120730   7.808  15.855   6.068 -0.2160  0.2157  0.0823
 1328ERGO    R220731   7.614  15.853   6.265 -0.2869 -0.1823  0.0198
 1328ERGO    R320732   7.794  15.698   6.396 -0.0295  0.1314  0.0505
 1328ERGO    R420733   7.621  15.805   6.607 -0.3280 -0.2560  0.0104
 1328ERGO    R520734   7.839  15.816   6.599 -0.3404  0.1708  0.0993
 1328ERGO    C120735   7.795  15.630   6.929 -0.1103 -0.0043  0.0336
 1328ERGO    C220736   7.674  15.699   7.180  0.1803  0.0213  0.0853
 1329ERGO   ROH20737   3.417   3.535   5.679 -0.0175 -0.0886 -0.0931
 1329ERGO    R120738   3.428   3.675   5.924 -0.0945 -0.0910 -0.0893
 1329ERGO    R220739   3.266   3.612   6.139  0.0487 -0.2881 -0.0446
 1329ERGO    R320740   3.503   3.595   6.271  0.1123 -0.0262 -0.1162
 1329ERGO    R420741   3.305   3.645   6.481  0.0815 -0.4038 -0.0354
 1329ERGO    R520742   3.487   3.759   6.444 -0.0780 -0.1274 -0.0292
 1329ERGO    C120743   3.549   3.649   6.804  0.1603 -0.2255 -0.0973
 1329ERGO    C220744   3.556   3.694   7.167  0.1265  0.0993  0.1531
 1330ERGO   ROH20745   4.087  11.973   5.683 -0.0108  0.0575 -0.1576
 1330ERGO    R120746   4.127  12.020   5.960  0.1143 -0.0181 -0.1615
 1330ERGO    R220747   3.918  12.062   6.135  0.2013  0.1681 -0.0943
 1330ERGO    R320748   4.033  11.857   6.271  0.0382  0.0312 -0.1598
 1330ERGO    R420749   3.939  12.041   6.479  0.1815  0.0273 -0.1016
 1330ERGO    R520750   4.141  11.962   6.457  0.1172 -0.1221 -0.1219
 1330ERGO    C120751   4.059  11.836   6.808  0.0168 -0.1832 -0.1674
 1330ERGO    C220752   4.100  11.795   7.139 -0.0020  0.0383  0.0655
 1331ERGO   ROH20753   2.839   4.806   5.766 -0.1111 -0.0781 -0.0925
 1331ERGO    R120754   2.877   4.913   6.025 -0.3402  0.1477 -0.1487
 1331ERGO    R220755   2.665   4.986   6.188 -0.5046 -0.1906 -0.2007
 1331ERGO    R320756   2.788   4.820   6.365 -0.1663  0.1502 -0.1019
 1331ERGO    R420757   2.611   4.986   6.530 -0.5316 -0.1248 -0.2052
 1331ERGO    R520758   2.825   4.956   6.559 -0.4624  0.3345 -0.1691
 1331ERGO    C120759   2.694   4.830   6.894 -0.2298  0.2334 -0.1151
 1331ERGO    C220760   2.643   4.851   7.102  0.0606  0.1876 -0.1053
 1332ERGO   ROH20761  10.910  10.451   6.247  0.3200 -0.2473 -0.0318
 1332ERGO    R120762  11.023  10.420   6.505  0.1519 -0.1785  0.0514
 1332ERGO    R220763  10.899  10.512   6.734 -0.0357 -0.1891 -0.0469
 1332ERGO    R320764  10.932  10.255   6.816 -0.0100 -0.1676  0.0116
 1332ERGO    R420765  10.963  10.416   7.059 -0.3116 -0.1212  0.0302
 1332ERGO    R520766  11.103  10.268   6.983 -0.1728 -0.0751  0.1794
 1332ERGO    C120767  11.031  10.119   7.326 -0.4483 -0.0614  0.1299
 1332ERGO    C220768  11.045  10.200   7.591  0.1263 -0.0359 -0.0506
 1333ERGO   ROH20769   4.398  14.537   5.747 -0.0873 -0.0910  0.0060
 1333ERGO    R120770   4.455  14.719   5.957 -0.1962  0.0479 -0.0846
 1333ERGO    R220771   4.258  14.826   6.119 -0.2233 -0.3180  0.1232
 1333ERGO    R320772   4.413  14.727   6.319  0.2066  0.0098 -0.0311
 1333ERGO    R420773   4.331  14.992   6.413 -0.6034 -0.2820  0.2031
 1333ERGO    R520774   4.535  14.917   6.399 -0.3438  0.3634  0.0368
 1333ERGO    C120775   4.519  14.996   6.772 -0.4211  0.0468  0.1047
 1333ERGO    C220776   4.383  15.091   7.057 -0.0987 -0.2261 -0.0492
 1334ERGO   ROH20777   1.318   7.538   5.777 -0.1547  0.0595 -0.0136
 1334ERGO    R120778   1.427   7.454   6.024 -0.1538 -0.0964 -0.0651
 1334ERGO    R220779   1.591   7.616   6.178  0.0744 -0.2902 -0.0924
 1334ERGO    R320780   1.409   7.562   6.371  0.0807 -0.1301 -0.0417
 1334ERGO    R420781   1.665   7.564   6.511  0.0686  0.0554 -0.0336
 1334ERGO    R520782   1.517   7.404   6.514  0.1007  0.0334  0.1219
 1334ERGO    C120783   1.537   7.482   6.887  0.0711  0.4068  0.0484
 1334ERGO    C220784   1.639   7.543   7.191  0.0837 -0.1058  0.0480
 1335ERGO   ROH20785   6.698   5.586   5.695  0.0229  0.3057 -0.0049
 1335ERGO    R120786   6.686   5.469   5.953  0.1395  0.1142 -0.0846
 1335ERGO    R220787   6.891   5.493   6.136  0.1007  0.2274 -0.0589
 1335ERGO    R320788   6.693   5.587   6.297 -0.0221 -0.1112 -0.0008
 1335ERGO    R420789   6.888   5.465   6.480  0.3144  0.3196 -0.0472
 1335ERGO    R520790   6.674   5.422   6.470  0.3827 -0.1085  0.0602
 1335ERGO    C120791   6.700   5.537   6.832  0.3235  0.0555  0.0141
 1335ERGO    C220792   6.777   5.449   7.160 -0.1537 -0.0670  0.0714
 1336ERGO   ROH20793   4.222  15.868   5.898  0.0939 -0.1079 -0.0764
 1336ERGO    R120794   4.267  15.864   6.178  0.0502 -0.2336 -0.0706
 1336ERGO    R220795   4.205  16.079   6.341  0.1563 -0.2531 -0.0049
 1336ERGO    R320796   4.063  15.892   6.478  0.0214 -0.2160 -0.0916
 1336ERGO    R420797   4.012  16.144   6.620  0.2729 -0.2577  0.0776
 1336ERGO    R520798   4.085  15.958   6.708  0.1293 -0.3784 -0.0540
 1336ERGO    C120799   3.767  16.006   6.912  0.2142 -0.2258  0.0443
 1336ERGO    C220800   3.705  16.069   7.384 -0.2599  0.0142  0.2794
 1337ERGO   ROH20801   4.908   8.056   5.720  0.0841 -0.1679 -0.0923
 1337ERGO    R120802   5.071   7.925   5.911  0.1680 -0.0850 -0.1060
 1337ERGO    R220803   5.211   8.063   6.105  0.0331 -0.0186 -0.0515
 1337ERGO    R320804   5.080   7.894   6.274  0.1466 -0.1705 -0.1131
 1337ERGO    R420805   5.328   7.963   6.415  0.0793 -0.0254 -0.0713
 1337ERGO    R520806   5.254   7.762   6.373  0.2368 -0.0686 -0.1377
 1337ERGO    C120807   5.273   7.747   6.754  0.2128 -0.1721 -0.1407
 1337ERGO    C220808   5.324   7.870   7.140 -0.1122  0.0583 -0.1446
 1338ERGO   ROH20809  16.670   1.528   6.256  0.0439 -0.1623 -0.1425
 1338ERGO    R120810  16.676   1.466   6.532  0.1601 -0.0513 -0.1205
 1338ERGO    R220811  16.551   1.244   6.638  0.0320  0.1037  0.0474
 1338ERGO    R320812  16.798   1.193   6.739  0.0508 -0.0707 -0.0786
 1338ERGO    R420813  16.612   1.089   6.941  0.0678  0.0943  0.0362
 1338ERGO    R520814  16.775   1.230   6.975  0.1986 -0.0199 -0.0670
 1338ERGO    C120815  16.880   0.951   7.212  0.1065 -0.0749 -0.0887
 1338ERGO    C220816  16.819   0.682   7.406 -0.4494 -0.2173 -0.0363
 1339ERGO   ROH20817   8.959   9.045   6.290  0.0875 -0.1509  0.0538
 1339ERGO    R120818   8.969   9.065   6.572  0.0345 -0.1130  0.0542
 1339ERGO    R220819   8.870   9.283   6.710 -0.0003 -0.0946  0.0099
 1339ERGO    R320820   8.729   9.094   6.844 -0.0186 -0.0846  0.0028
 1339ERGO    R420821   8.770   9.309   7.039  0.1128 -0.1598  0.0493
 1339ERGO    R520822   8.820   9.099   7.066  0.0508 -0.1798 -0.0267
 1339ERGO    C120823   8.579   9.146   7.357  0.1613 -0.1883  0.0654
 1339ERGO    C220824   8.483   9.005   7.648 -0.0042  0.2196 -0.0694
 1340ERGO   ROH20825  13.474   4.516   6.259 -0.1890  0.0515  0.0782
 1340ERGO    R120826  13.475   4.464   6.537 -0.2361 -0.1721  0.0377
 1340ERGO    R220827  13.483   4.207   6.640  0.3167 -0.2493 -0.1706
 1340ERGO    R320828  13.699   4.303   6.775  0.0148  0.1682  0.0396
 1340ERGO    R420829  13.601   4.081   6.939  0.2997 -0.0596 -0.0821
 1340ERGO    R520830  13.638   4.286   7.006 -0.1650  0.0153 -0.0151
 1340ERGO    C120831  13.873   4.098   7.240  0.0064  0.4429  0.1668
 1340ERGO    C220832  14.031   3.849   7.442  0.2429  0.0147  0.5181
 1341ERGO   ROH20833  10.253  14.940   5.510  0.0459  0.1190 -0.0193
 1341ERGO    R120834  10.122  15.022   5.747  0.0443  0.1679 -0.0358
 1341ERGO    R220835  10.003  14.843   5.920 -0.2226  0.2237 -0.1498
 1341ERGO    R320836  10.162  14.965   6.104 -0.1517 -0.0245 -0.0436
 1341ERGO    R420837   9.948  14.842   6.262 -0.1769 -0.0957 -0.1414
 1341ERGO    R520838  10.009  15.050   6.267 -0.0932 -0.1273  0.0623
 1341ERGO    C120839  10.065  14.956   6.632 -0.0837 -0.5147 -0.0369
 1341ERGO    C220840  10.165  14.977   6.990  0.2667 -0.3049 -0.2739
 1342ERGO   ROH20841  13.924   9.009   5.833 -0.0561  0.1444  0.1240
 1342ERGO    R120842  13.841   8.958   6.099  0.0776  0.1605  0.1691
 1342ERGO    R220843  13.817   8.703   6.202 -0.1402  0.1542  0.1080
 1342ERGO    R320844  13.983   8.799   6.394  0.1130 -0.0899  0.0188
 1342ERGO    R420845  13.830   8.587   6.527 -0.1303  0.1400  0.1030
 1342ERGO    R520846  13.852   8.793   6.594  0.2147  0.1103  0.0921
 1342ERGO    C120847  13.993   8.610   6.897  0.1132 -0.0973  0.0165
 1342ERGO    C220848  13.868   8.571   7.222  0.0404 -0.1064  0.1352
 1343ERGO   ROH20849  11.514   5.490   6.141 -0.0626  0.1900  0.0298
 1343ERGO    R120850  11.589   5.526   6.411  0.0349  0.0365  0.0243
 1343ERGO    R220851  11.485   5.726   6.570  0.1856  0.0248  0.1399
 1343ERGO    R320852  11.423   5.520   6.735  0.1256 -0.0128  0.0709
 1343ERGO    R420853  11.425   5.756   6.909  0.0254 -0.0403  0.1179
 1343ERGO    R520854  11.537   5.571   6.939  0.0281 -0.0391  0.1346
 1343ERGO    C120855  11.332   5.579   7.261 -0.1241 -0.1134  0.0404
 1343ERGO    C220856  11.192   5.761   7.558  0.1902 -0.0554 -0.1795
 1344ERGO   ROH20857   1.404   8.501   5.968  0.0882  0.1670 -0.0823
 1344ERGO    R120858   1.559   8.595   6.186 -0.0734  0.1586  0.0384
 1344ERGO    R220859   1.475   8.575   6.448 -0.1284 -0.1462  0.0009
 1344ERGO    R320860   1.715   8.451   6.481 -0.0020  0.0825 -0.0356
 1344ERGO    R420861   1.626   8.517   6.753 -0.1501 -0.2287 -0.0039
 1344ERGO    R520862   1.818   8.569   6.663 -0.1781  0.0504  0.0876
 1344ERGO    C120863   1.939   8.366   6.963 -0.0441 -0.0622 -0.0410
 1344ERGO    C220864   1.990   8.355   7.327  0.0684  0.0884  0.1127
 1345ERGO   ROH20865  14.768  13.421   6.461 -0.0330 -0.4527  0.0239
 1345ERGO    R120866  14.703  13.370   6.732 -0.0201 -0.2016  0.0768
 1345ERGO    R220867  14.896  13.326   6.925 -0.0101 -0.0079  0.1139
 1345ERGO    R320868  14.767  13.528   7.053 -0.0178  0.1073 -0.0721
 1345ERGO    R420869  14.937  13.406   7.259 -0.0301  0.2886  0.0476
 1345ERGO    R520870  14.723  13.441   7.272 -0.0308  0.3008  0.0039
 1345ERGO    C120871  14.841  13.643   7.573 -0.0491  0.5697 -0.1657
 1345ERGO    C220872  14.955  13.911   7.810  0.2832  0.0158  0.1633
 1346ERGO   ROH20873   1.147   5.639   5.833  0.0568  0.2213  0.0832
 1346ERGO    R120874   1.234   5.583   6.096  0.0094  0.2086  0.0969
 1346ERGO    R220875   1.364   5.770   6.252  0.0595  0.1747  0.0990
 1346ERGO    R320876   1.167   5.712   6.430  0.0189  0.2565  0.0802
 1346ERGO    R420877   1.406   5.749   6.595  0.0591 -0.0159  0.0877
 1346ERGO    R520878   1.274   5.576   6.596 -0.0845  0.0920  0.0140
 1346ERGO    C120879   1.245   5.682   6.961  0.0208 -0.0502  0.0635
 1346ERGO    C220880   1.160   5.704   7.343  0.0363  0.1442  0.1517
 1347W        W20881  17.665   5.468  13.001  0.2182  0.2449  0.1783
 1348W        W20882   9.260   2.264  14.853 -0.1423  0.1264 -0.0844
 1349W        W20883  12.203   5.967   3.020  0.0706  0.1355  0.3110
 1350W        W20884  12.961  18.049  13.244 -0.0258  0.2161 -0.0491
 1351W        W20885   1.937   6.283   2.652  0.0048 -0.1431 -0.0290
 1352W        W20886   2.556  11.931   3.307  0.0274  0.2525 -0.1238
 1353W        W20887   0.384  14.483  10.764  0.1130 -0.0453 -0.1911
 1354W        W20888  10.707  17.703   2.264  0.0101  0.3087 -0.0320
 1355W        W20889   0.488   1.800   0.889  0.0847 -0.3589 -0.3661
 1356W        W20890   4.893   5.596  15.695 -0.0590 -0.1920 -0.0699
 1357W        W20891   8.921  12.805  13.690 -0.0175  0.0994 -0.1880
 1358W        W20892   3.080  12.512  13.721 -0.0053 -0.0811  0.1000
 1359W        W20893  12.473   8.884  12.570  0.1078 -0.2994 -0.0151
 1360W        W20894  14.298  14.126   0.119 -0.2750  0.0525 -0.1075
 1361W        W20895  15.682  13.795   5.028  0.1248  0.0394  0.2103
 1362W        W20896   5.321   8.286   2.727  0.0348 -0.0005  0.0138
 1363W        W20897   9.916   4.612  13.346  0.2012  0.3600  0.1474
 1364W        W20898   2.135   9.861   0.545  0.0912  0.1160  0.0721
 1365W        W20899  18.140   3.071   2.235 -0.0120  0.1730  0.1099
 1366W        W20900   5.481   5.039   3.833 -0.0475  0.1707 -0.1400
 1367W        W20901  16.177  13.791  14.417  0.1223 -0.1590 -0.3412
 1368W        W20902  16.880   0.763  10.855  0.1398 -0.0671  0.0360
 1369W        W20903   4.085  14.346   1.504 -0.0366  0.2012 -0.2320
 1370W        W20904  13.540   8.692  12.948 -0.0291 -0.1127  0.1331
 1371W        W20905  15.470   3.044   0.171  0.2917  0.0041 -0.0869
 1372W        W20906  18.129   6.329   3.266  0.2355  0.0888 -0.2601
 1373W        W20907   2.869   3.636  10.872 -0.1438  0.3485 -0.0731
 1374W        W20908   7.926  15.771   0.958 -0.1049 -0.2219 -0.4216
 1375W        W20909   3.924   7.171   0.915  0.2165 -0.1723  0.2932
 1376W        W20910  12.697   6.704   0.604 -0.2522 -0.0742  0.0439
 1377W        W20911   3.771   1.911  15.005  0.1539  0.0613  0.2828
 1378W        W20912   8.261   1.425   2.424 -0.1627  0.1403 -0.0384
 1379W        W20913  13.240   1.670  15.094 -0.4252 -0.1957  0.2783
 1380W        W20914   3.358  12.510   3.764 -0.0577 -0.2148 -0.0587
 1381W        W20915   4.941  16.539   3.422 -0.0658  0.3108 -0.1318
 1382W        W20916   9.735  11.197  15.807  0.0268  0.0093  0.1622
 1383W        W20917   6.693  12.906   5.118 -0.3319 -0.3275 -0.1001
 1384W        W20918  11.201   8.452  12.746 -0.0670  0.1289 -0.0379
 1385W        W20919  15.891  16.062  11.646 -0.2479  0.1812  0.0372
 1386W        W20920   5.040   0.149  12.639  0.0941  0.0800 -0.1990
 1387W        W20921   2.288  10.193   4.217 -0.2062  0.0572  0.1260
 1388W        W20922   7.649   8.528  15.229 -0.1847  0.0735  0.1140
 1389W        W20923   8.530   9.218  13.805 -0.0185  0.2944  0.0145
 1390W        W20924  13.337  11.684  14.670  0.0138 -0.1786  0.1124
 1391W        W20925   6.511  12.916   4.655  0.0459 -0.2870 -0.0369
 1392W        W20926   0.659   9.702  14.131 -0.4786 -0.1413  0.2717
 1393W        W20927   1.449   4.201   0.088 -0.0443  0.2081 -0.1238
 1394W        W20928   6.148   7.465   0.371 -0.2031 -0.2952 -0.1353
 1395W        W20929   1.073   5.176  12.075 -0.1556  0.2962 -0.1098
 1396W        W20930   2.383  11.501   4.212 -0.0646  0.0565  0.1083
 1397W        W20931   4.088   7.568  12.285 -0.0212  0.1007  0.0137
 1398W        W20932   3.375   3.413   3.231 -0.0729 -0.2825  0.0983
 1399W        W20933   7.696  13.510  14.886  0.0378  0.2348 -0.2083
 1400W        W20934  13.373   5.186  14.115 -0.1853  0.3405 -0.1757
 1401W        W20935   9.427   5.986  15.319 -0.0667 -0.1455 -0.0333
 1402W        W20936   5.420  12.356  12.728  0.2409 -0.0135 -0.2887
 1403W        W20937   8.684   5.157   2.096 -0.1327 -0.2941 -0.0452
 1404W        W20938  13.739  14.826   0.294  0.2752 -0.0685 -0.3958
 1405W        W20939  15.387   3.975   3.613  0.1264  0.0430 -0.0467
 1406W        W20940  17.016  10.525  15.850 -0.1209  0.1517 -0.1763
 1407W        W20941  11.093  16.019   0.581  0.1452 -0.1599 -0.0822
 1408W        W20942  16.663   8.835  15.594 -0.0094 -0.1377 -0.1548
 1409W        W20943   2.623   5.189   2.057  0.2585 -0.1976  0.0986
 1410W        W20944   6.636   8.950   4.063 -0.0984 -0.1613 -0.0854
 1411W        W20945   6.446   1.823  14.588  0.1492 -0.2101 -0.2763
 1412W        W20946  11.155   3.679  14.967 -0.2074  0.1035 -0.3413
 1413W        W20947   2.254  13.677   2.772 -0.0608  0.0138  0.2023
 1414W        W20948   7.382  10.137  14.838  0.0839  0.0362  0.1081
 1415W        W20949   7.401  17.958  15.554  0.1811 -0.1063 -0.2771
 1416W        W20950  15.499   4.522   2.322 -0.0037  0.1973  0.1710
 1417W        W20951   9.572   3.129   0.107 -0.0351 -0.2266 -0.0449
 1418W        W20952   5.524  13.803  11.130 -0.2451 -0.0002 -0.2243
 1419W        W20953  10.870  13.344  13.893  0.1594  0.1593 -0.0282
 1420W        W20954  16.111  15.028   3.088  0.3233 -0.1759 -0.1335
 1421W        W20955   6.971  10.047  11.156 -0.1907 -0.1266  0.1529
 1422W        W20956   4.062   5.230   1.794  0.1221  0.0871  0.0638
 1423W        W20957  15.672  14.055  15.155 -0.1963  0.1353 -0.3295
 1424W        W20958   3.944  10.619  11.279 -0.1130  0.2177  0.1210
 1425W        W20959  12.256  18.088  13.868 -0.1425 -0.2222  0.1349
 1426W        W20960  16.294   5.630  12.186  0.3202 -0.0516 -0.1014
 1427W        W20961   4.432   6.672   2.299  0.0566  0.1070  0.2182
 1428W        W20962   6.741  15.184   1.997 -0.2508 -0.0261 -0.2742
 1429W        W20963  11.702   2.841  13.554  0.2003 -0.2828  0.1552
 1430W        W20964   0.914   7.862   0.977  0.1261  0.1485 -0.0940
 1431W        W20965  11.613   2.065  13.289 -0.0005  0.0503 -0.0745
 1432W        W20966  14.159  12.905  14.903 -0.0052  0.0946  0.0539
 1433W        W20967  16.592   1.013   4.734  0.3077  0.0686 -0.0412
 1434W        W20968  14.370   4.970  12.504 -0.4285  0.2759  0.0354
 1435W        W20969  16.561  12.570   2.593  0.1136 -0.1637  0.3800
 1436W        W20970  11.267   2.599   0.525  0.1649 -0.2622 -0.0144
 1437W        W20971   3.320   7.318  14.947  0.0093 -0.0823  0.1689
 1438W        W20972   4.444   5.900   0.680  0.0150 -0.0400 -0.2517
 1439W        W20973  14.252   7.578  11.716 -0.1400 -0.2992  0.1113
 1440W        W20974  15.222  13.789   6.155  0.1238  0.0113  0.2472
 1441W        W20975   5.074   0.035   0.690  0.0976  0.0693  0.1840
 1442W        W20976   1.132  10.070  15.879 -0.1648 -0.1546 -0.0479
 1443W        W20977  17.669   6.320   4.435 -0.2319  0.0597 -0.1117
 1444W        W20978  15.633  14.904   2.962  0.1675 -0.0217 -0.2190
 1445W        W20979   5.404  14.184   2.870  0.1418  0.1893  0.0782
 1446W        W20980  12.784   0.831   4.309 -0.5217 -0.2535 -0.0129
 1447W        W20981   3.445  10.543  11.219 -0.2209 -0.0644 -0.0416
 1448W        W20982   0.484   8.016  11.391  0.1221 -0.0793 -0.1196
 1449W        W20983   2.066   4.458   1.913  0.1126  0.2376 -0.0678
 1450W        W20984   7.998  10.420  14.067 -0.0595  0.0632 -0.1561
 1451W        W20985  13.403   2.862  12.105 -0.1895 -0.1038  0.0162
 1452W        W20986   7.439  15.423   2.705 -0.0566 -0.0294  0.2179
 1453W        W20987   9.967  13.480  12.110 -0.0405  0.3396 -0.0364
 1454W        W20988   9.538   6.278   4.525 -0.1219 -0.0210 -0.1668
 1455W        W20989  14.986   0.630   3.827  0.1034  0.4016  0.0385
 1456W        W20990  15.210   8.032  13.520  0.2776 -0.0715  0.0341
 1457W        W20991  12.644  15.268   3.306 -0.1274  0.1419 -0.0260
 1458W        W20992   1.988  12.239  10.934 -0.0993  0.0212  0.1596
 1459W        W20993  13.734   6.209  12.867  0.1184  0.2900 -0.0243
 1460W        W20994  11.380   0.662   1.710 -0.0532 -0.2997 -0.3338
 1461W        W20995  17.834  18.031  15.908  0.1915  0.3358  0.1139
 1462W        W20996   3.732   5.815  15.089  0.0685  0.0082  0.0682
 1463W        W20997   9.679  15.543  15.064 -0.2002  0.2481 -0.1838
 1464W        W20998  11.930   5.190   0.972  0.1068 -0.0981 -0.0435
 1465W        W20999  16.056  10.413  13.911  0.2583 -0.1774  0.1469
 1466W        W21000  12.746  15.110   4.857 -0.1262  0.3527 -0.2916
 1467W        W21001   8.815   6.405   0.574  0.0025 -0.3699 -0.0523
 1468W        W21002   8.119  10.144  13.204 -0.1648 -0.1948  0.2328
 1469W        W21003   2.072   6.754  13.956  0.1321  0.1710 -0.1341
 1470W        W21004  17.404   5.895  15.382  0.0672 -0.0902 -0.1882
 1471W        W21005  11.791   0.782  12.523 -0.1255 -0.0029  0.2642
 1472W        W21006  10.847   8.453   3.792  0.1942  0.2050  0.6494
 1473W        W21007   9.001   5.895  15.537  0.2565  0.0203  0.1313
 1474W        W21008   1.153  17.743   0.484  0.2700 -0.0507  0.4348
 1475W        W21009   0.166  16.568  15.663 -0.2581  0.0575  0.0179
 1476W        W21010   1.930   9.743   1.767 -0.1665  0.1467  0.0177
 1477W        W21011   2.687   8.383  14.622 -0.0427 -0.0097 -0.2213
 1478W        W21012   2.654   0.733  12.352 -0.2422  0.4138  0.0922
 1479W        W21013  14.179  12.159   0.418 -0.0023 -0.1335 -0.0360
 1480W        W21014  14.453  17.856  14.602  0.0650  0.1835  0.1050
 1481W        W21015   8.046  12.171  15.496  0.1294 -0.2984 -0.0191
 1482W        W21016  18.040   9.516  15.535  0.0459  0.1131 -0.0415
 1483W        W21017  14.930   7.237   3.657  0.0704 -0.2915 -0.0684
 1484W        W21018  13.784   6.064   0.442 -0.0632  0.0604 -0.2199
 1485W        W21019  14.068   4.797  12.063 -0.2918 -0.1094 -0.0526
 1486W        W21020  17.571   4.510   1.908 -0.0787 -0.0091 -0.0262
 1487W        W21021   1.475   1.367  15.147 -0.5016  0.0867 -0.0107
 1488W        W21022   6.348  14.354  12.190  0.3359  0.0794  0.2207
 1489W        W21023  12.309  17.699  14.940 -0.0404 -0.1993  0.0682
 1490W        W21024  10.077   0.906   4.446 -0.0099 -0.2119  0.0103
 1491W        W21025  13.222  13.869   4.800  0.3185  0.0349 -0.0006
 1492W        W21026   1.722  16.985  14.504 -0.1115 -0.0523  0.0231
 1493W        W21027   0.609  16.602  11.740 -0.0025 -0.1346  0.1817
 1494W        W21028  16.121   2.206  13.818  0.0845 -0.1034 -0.1039
 1495W        W21029  13.445   8.331  16.030 -0.1243  0.1171 -0.1867
 1496W        W21030  10.883   8.851   2.193 -0.0695 -0.1205 -0.1041
 1497W        W21031   6.810   8.672   0.650  0.0555 -0.0236 -0.2021
 1498W        W21032   1.893   0.133   4.175  0.2594 -0.0276  0.1494
 1499W        W21033   8.654   8.680   0.670 -0.3222 -0.4357  0.0886
 1500W        W21034   4.011  16.864   3.312 -0.3255 -0.1415 -0.0646
 1501W        W21035   3.002  11.072  13.719 -0.0702  0.3202  0.1322
 1502W        W21036   0.834  18.019  14.752  0.0482  0.0648 -0.0667
 1503W        W21037  13.188  10.289  12.941 -0.1837 -0.2593  0.1037
 1504W        W21038   9.779  14.663   0.050  0.0986  0.1806 -0.0933
 1505W        W21039  13.580   2.635   2.049  0.0459 -0.0316 -0.2666
 1506W        W21040   9.825  10.133  15.113 -0.0508 -0.1666 -0.0472
 1507W        W21041  10.184  17.082   4.448  0.0382 -0.4499  0.0687
 1508W        W21042  16.375   4.014   4.268  0.0392  0.2729  0.1845
 1509W        W21043   4.417   3.570   2.656  0.0487 -0.3756  0.2708
 1510W        W21044   8.481  12.004   2.565  0.1270  0.2587 -0.2222
 1511W        W21045  13.057   7.398  16.057 -0.0386 -0.0087  0.2532
 1512W        W21046  13.374  12.632   4.140  0.3958 -0.0951 -0.0089
 1513W        W21047   9.621   3.141  14.230 -0.0312 -0.1409  0.0903
 1514W        W21048   9.995   2.864   2.739  0.0772 -0.0952  0.1809
 1515W        W21049  16.258   4.714  15.923 -0.3003 -0.1981 -0.0537
 1516W        W21050   9.624  15.053   0.381  0.1942  0.0544  0.0402
 1517W        W21051   1.752  10.773  13.355 -0.0441 -0.0263 -0.0773
 1518W        W21052   6.129   9.304  12.893  0.1370  0.0149  0.1103
 1519W        W21053   7.903   6.715  12.828  0.1101  0.2425  0.1646
 1520W        W21054   1.808   7.489   1.924 -0.3555 -0.1478 -0.1625
 1521W        W21055  17.165  13.497  14.180 -0.1448 -0.1062 -0.1727
 1522W        W21056   4.231   1.398   4.398 -0.0557  0.1122  0.0121
 1523W        W21057  14.791   5.319   2.269 -0.0126 -0.0771 -0.0112
 1524W        W21058   0.744   7.552   4.176  0.0707 -0.3805 -0.0013
 1525W        W21059   4.027   5.044   0.519  0.2558  0.2804 -0.0863
 1526W        W21060   5.272   8.513   1.874 -0.0687 -0.1536 -0.0470
 1527W        W21061  12.750   8.385   0.715 -0.3153 -0.1975 -0.1102
 1528W        W21062   1.414  15.779  14.509  0.2141 -0.0870 -0.0696
 1529W        W21063  14.281  17.938   3.840 -0.1188  0.2234  0.2807
 1530W        W21064   5.022   1.908  11.314  0.1848 -0.2254  0.1830
 1531W        W21065   4.152   0.826  12.608 -0.1084  0.0184 -0.1862
 1532W        W21066   3.856   4.405  14.692 -0.0928 -0.1945  0.0652
 1533W        W21067  10.340   6.672   4.622 -0.2339  0.1410 -0.0995
 1534W        W21068   6.025  13.014   3.419 -0.1766  0.0321 -0.2894
 1535W        W21069  16.422   8.207   0.726 -0.0359 -0.1259  0.3793
 1536W        W21070   2.029   6.330  13.657 -0.1668  0.0900  0.1634
 1537W        W21071   6.180  18.069   3.119  0.0105  0.1360  0.0831
 1538W        W21072  10.023  16.061   2.923  0.1841  0.0390  0.2017
 1539W        W21073  16.695  16.665  10.958  0.0862 -0.0881  0.2427
 1540W        W21074  13.147   9.078   2.827 -0.1029 -0.2683 -0.0147
 1541W        W21075   2.462  12.071   0.017  0.2461  0.2240 -0.2868
 1542W        W21076   1.237   2.382  12.390 -0.0656 -0.1880  0.1602
 1543W        W21077   1.721   0.759   2.645 -0.2303 -0.2150 -0.0108
 1544W        W21078  10.923  11.785   2.679  0.1946 -0.0391  0.0509
 1545W        W21079  15.906   5.931  14.161  0.3221 -0.0357 -0.0587
 1546W        W21080  10.936   7.629  12.353  0.1113  0.1000 -0.2459
 1547W        W21081  13.060  17.241  13.473  0.0508  0.0970 -0.0297
 1548W        W21082   6.632   9.209  14.194 -0.0970  0.0153 -0.0889
 1549W        W21083   3.765   4.417   4.218  0.2236 -0.1814 -0.0944
 1550W        W21084   3.176   4.597  11.078  0.0916 -0.1056  0.0184
 1551W        W21085  11.214   1.605   4.645  0.0601  0.2003 -0.1149
 1552W        W21086  15.686   1.599  13.961  0.0234  0.0507  0.1788
 1553W        W21087   0.397  13.097   4.055 -0.0735 -0.5725  0.1168
 1554W        W21088   0.877  17.209   2.339  0.2118  0.4062 -0.1288
 1555W        W21089   3.504  15.622  14.092 -0.0714 -0.0971 -0.1349
 1556W        W21090   6.943   9.406   3.525  0.2266  0.2838  0.1841
 1557W        W21091  10.973   2.873  14.721 -0.1892  0.0973  0.1049
 1558W        W21092   0.425  12.798   3.433 -0.1538 -0.0669  0.2553
 1559W        W21093  15.450   8.039   3.835  0.0964  0.2372 -0.1744
 1560W        W21094  15.055   8.260   2.479 -0.0319  0.2049 -0.1251
 1561W        W21095  17.989   6.501   0.840  0.2031 -0.0032  0.2019
 1562W        W21096  17.632   1.515  15.782 -0.1993 -0.0299  0.0609
 1563W        W21097   0.585   6.490   4.454  0.2032 -0.3754  0.0545
 1564W        W21098   4.318   4.066   4.280 -0.0966  0.0332  0.2119
 1565W        W21099   8.531   5.933  12.155  0.2904 -0.0729 -0.0541
 1566W        W21100   6.266  17.532   2.727 -0.0396  0.0218  0.1358
 1567W        W21101   0.699  17.712  13.601  0.3148  0.1342  0.1117
 1568W        W21102   1.548   6.091   4.209 -0.1639 -0.1768 -0.2034
 1569W        W21103   2.859   3.690  15.112 -0.1291  0.0338 -0.1266
 1570W        W21104   3.092  12.330   5.508  0.0340  0.2170 -0.0627
 1571W        W21105   7.645  11.866   2.111 -0.1930  0.0156  0.0789
 1572W        W21106  15.717   6.239   1.770 -0.0057 -0.0406 -0.1965
 1573W        W21107  11.310   0.323   0.008  0.4350 -0.1908 -0.4753
 1574W        W21108   1.829  15.300   0.898 -0.0872 -0.0029 -0.0215
 1575W        W21109   2.001   3.466   3.199  0.3133  0.0300  0.2657
 1576W        W21110   0.309   8.958   2.581  0.3264 -0.1640  0.1242
 1577W        W21111  11.390   0.063   2.920 -0.0536 -0.1981  0.1262
 1578W        W21112   6.377  15.931   4.157  0.1245  0.2275 -0.1236
 1579W        W21113  11.484   4.161  13.310 -0.0682 -0.1950 -0.2037
 1580W        W21114  13.344  10.963   3.316 -0.2143 -0.0758 -0.1108
 1581W        W21115   0.517   4.758   5.191 -0.2611  0.1027  0.0968
 1582W        W21116   6.860  11.851  15.325  0.1486 -0.0933 -0.1059
 1583W        W21117  18.137   9.196   4.808 -0.1009  0.1248  0.0128
 1584W        W21118   8.506   2.367   3.568 -0.2400  0.0584 -0.1009
 1585W        W21119   6.474   6.644   1.333  0.1590  0.0206  0.1502
 1586W        W21120  11.256   0.011   0.845  0.1618  0.0441 -0.2633
 1587W        W21121   4.115  13.703   4.543  0.0505 -0.1813  0.4979
 1588W        W21122   6.874  13.556  12.757  0.0289 -0.2157 -0.3879
 1589W        W21123  17.123   5.171   4.333  0.0661 -0.1225  0.1447
 1590W        W21124   9.309   1.079   0.808  0.1049  0.0102 -0.1233
 1591W        W21125  15.047   3.781   2.240  0.0008  0.2083 -0.2148
 1592W        W21126   0.997   2.365   3.521 -0.1620 -0.1097  0.0116
 1593W        W21127  14.805   4.367   3.823  0.1164  0.0427 -0.3522
 1594W        W21128   4.803  10.870  13.715 -0.0149 -0.0756 -0.1872
 1595W        W21129   2.752  14.948   0.923 -0.0691  0.0771 -0.1371
 1596W        W21130   5.605   6.863  14.221 -0.0622 -0.1390  0.1757
 1597W        W21131   8.320   9.230  15.446  0.1501 -0.3000  0.2148
 1598W        W21132   8.697  17.412  12.714  0.2771 -0.1276  0.1560
 1599W        W21133   8.078   0.239  15.111 -0.1713 -0.3689  0.2214
 1600W        W21134  14.824  11.203   3.242 -0.1816 -0.0787  0.1545
 1601W        W21135  15.258   5.005   3.071  0.0047  0.0362  0.2216
 1602W        W21136   7.605   7.591   3.724 -0.3256 -0.0497 -0.1187
 1603W        W21137   8.184  11.024   2.509  0.1923  0.0275 -0.0090
 1604W        W21138  15.065  13.202  14.820  0.3750  0.0645 -0.1160
 1605W        W21139   4.424   3.854  15.732 -0.3170 -0.0822  0.2279
 1606W        W21140   3.632  13.957  11.960  0.1069  0.1507  0.0083
 1607W        W21141  10.275   1.782   2.020  0.1347 -0.0639  0.1042
 1608W        W21142   4.027  12.012  14.649 -0.0948  0.2221  0.0838
 1609W        W21143   9.113   5.470  11.711  0.0744 -0.1371 -0.3001
 1610W        W21144   2.799  15.884  11.725  0.0550  0.0255 -0.0440
 1611W        W21145   8.931   4.099  14.709 -0.0473  0.2179  0.1759
 1612W        W21146  16.098  15.483  15.851 -0.1327  0.0844  0.0560
 1613W        W21147  10.043  16.729   3.550 -0.0989  0.3034  0.1514
 1614W        W21148   6.702   4.850  13.368  0.3103 -0.1170  0.0154
 1615W        W21149   3.294   6.182  15.861 -0.0990  0.1653 -0.0981
 1616W        W21150  11.433   3.731  13.945 -0.0229  0.0058  0.4242
 1617W        W21151   6.077   3.521   4.380 -0.1282 -0.0117 -0.3383
 1618W        W21152  15.905  15.078  12.930  0.0720  0.0301  0.5833
 1619W        W21153   1.439  14.119   4.636  0.3538 -0.1350 -0.1456
 1620W        W21154   7.626   4.078  14.773 -0.0399  0.1764 -0.0318
 1621W        W21155  10.953  17.634  14.883  0.1033  0.1410  0.0907
 1622W        W21156   9.948  12.776   4.018  0.1760 -0.2497 -0.1805
 1623W        W21157   0.847   6.702   0.785  0.0973 -0.2209  0.2312
 1624W        W21158  16.170  11.069   1.105  0.0500 -0.0651  0.1898
 1625W        W21159  15.025  12.591  13.546  0.1099  0.3484 -0.1133
 1626W        W21160   3.987   0.655   0.640 -0.0269  0.1190  0.0031
 1627W        W21161   8.133   0.568  11.668 -0.1523 -0.1223 -0.1274
 1628W        W21162  10.810  13.357   0.149  0.0320 -0.1691  0.0588
 1629W        W21163   2.476  17.858   0.178 -0.0273  0.2048 -0.1682
 1630W        W21164  11.628   7.807   4.729  0.2645 -0.0172 -0.0012
 1631W        W21165  13.313   2.754   2.819  0.4209  0.3626 -0.0192
 1632W        W21166  10.319   0.797  11.224 -0.1149 -0.1873  0.1588
 1633W        W21167   5.025  13.007  13.194 -0.1297  0.0782 -0.1060
 1634W        W21168   3.570   6.537   3.897  0.0658 -0.2635 -0.2200
 1635W        W21169   8.080   0.713  15.286  0.3400 -0.1825 -0.1023
 1636W        W21170   5.507   0.857  13.113  0.1010 -0.2765  0.0314
 1637W        W21171   7.532  12.989   4.430 -0.1380  0.0635 -0.2063
 1638W        W21172   7.431  17.968   2.677  0.0214 -0.0783  0.6575
 1639W        W21173  17.794   2.250   2.704 -0.1547 -0.0719  0.1267
 1640W        W21174   8.425  11.871  15.232  0.3532  0.1923  0.0568
 1641W        W21175  14.021   2.250  14.974 -0.3497 -0.0684  0.2345
 1642W        W21176   0.921  10.312   3.109 -0.0579  0.3231 -0.0300
 1643W        W21177  13.347  17.416  13.874 -0.2895 -0.1186  0.1711
 1644W        W21178  16.556   0.560   0.876  0.0680 -0.1234 -0.1653
 1645W        W21179   3.423  12.066   3.907  0.0589  0.0142 -0.2759
 1646W        W21180  14.506   9.567   3.502 -0.4025 -0.1835 -0.1669
 1647W        W21181   8.926   2.274   1.754  0.0454 -0.0716 -0.2211
 1648W        W21182  15.007   0.261   2.913 -0.0569 -0.2761  0.2223
 1649W        W21183  13.419   7.476  14.507 -0.1462  0.2865 -0.1890
 1650W        W21184  13.355   0.439   0.051 -0.0553  0.1794 -0.0668
 1651W        W21185   8.861  14.167   1.044  0.0419 -0.0859 -0.0313
 1652W        W21186   0.007  10.870   1.041 -0.1574  0.5095 -0.2308
 1653W        W21187  13.922   8.845   4.507  0.0510  0.0190  0.1634
 1654W        W21188   0.251  11.620   3.274  0.1102 -0.0929 -0.0214
 1655W        W21189   1.508   3.718   3.138 -0.2055 -0.1862  0.2845
 1656W        W21190   2.577   8.093   2.973  0.2889 -0.0946 -0.0890
 1657W        W21191   2.285  18.179  12.120  0.2436  0.1807  0.0147
 1658W        W21192   7.058   0.642  12.479  0.1110 -0.0659 -0.1864
 1659W        W21193   4.685   8.136   0.729 -0.1637  0.0030 -0.0283
 1660W        W21194   4.571  12.813  15.696 -0.2811 -0.1286  0.0210
 1661W        W21195   8.779  12.125  15.544 -0.3122 -0.1221  0.3131
 1662W        W21196  10.845  16.191  13.245  0.1719 -0.0480  0.0605
 1663W        W21197   5.461  13.952  12.527 -0.1112 -0.1753 -0.1201
 1664W        W21198   0.896   2.584  14.188 -0.2245 -0.2577 -0.0111
 1665W        W21199  17.376   8.277   2.372 -0.0832 -0.0426 -0.1774
 1666W        W21200  17.577   5.694   1.417 -0.0266  0.0560  0.0321
 1667W        W21201  14.345  15.786  13.374  0.1252  0.1141 -0.0457
 1668W        W21202  10.238   7.807   3.210 -0.0248 -0.0649 -0.0317
 1669W        W21203  16.149   8.198   2.521  0.0071  0.1370 -0.0502
 1670W        W21204   4.201  13.929  12.631 -0.0142  0.3198  0.0712
 1671W        W21205   0.037  15.519  12.995  0.1747  0.1621  0.1093
 1672W        W21206   8.075  12.718   4.204  0.1013  0.0388 -0.0693
 1673W        W21207   4.586  17.989   3.776 -0.2473  0.0828  0.0800
 1674W        W21208  16.046   7.709   0.188  0.1121 -0.1461 -0.1692
 1675W        W21209   7.321   8.525  13.930 -0.0213 -0.1158  0.0390
 1676W        W21210   5.497  17.994   4.341  0.0274 -0.3062  0.0359
 1677W        W21211   7.236  13.496  15.157 -0.1387  0.0184 -0.1499
 1678W        W21212   2.319   5.945  11.664 -0.2090  0.1982  0.1592
 1679W        W21213   9.057   5.150  12.973  0.0073 -0.2792  0.1236
 1680W        W21214  16.487  10.528   3.089  0.0264  0.1915  0.1264
 1681W        W21215   5.541  15.827  12.762 -0.1920 -0.1833 -0.0079
 1682W        W21216   3.921  15.726   1.082 -0.1672  0.0796  0.0984
 1683W        W21217  12.556   7.840  15.414 -0.3211 -0.2056 -0.1207
 1684W        W21218   0.685   4.125  13.885 -0.0494  0.2127 -0.3276
 1685W        W21219  14.602  13.179   4.981  0.0814 -0.1322 -0.1239
 1686W        W21220   1.910   7.830   1.504  0.1471 -0.1686 -0.1374
 1687W        W21221  14.369  14.485  15.307  0.4045 -0.3743 -0.1723
 1688W        W21222   6.339   6.026   0.365  0.1097  0.2428 -0.0130
 1689W        W21223  10.794  13.728   2.054  0.1790 -0.0472 -0.0161
 1690W        W21224   5.105  17.705   1.848 -0.1911  0.1255  0.1624
 1691W        W21225  13.493   4.668  15.433  0.0040 -0.1081  0.1416
 1692W        W21226   9.756   8.509  11.661  0.1913  0.0950 -0.2029
 1693W        W21227   8.364   8.362  12.989  0.1208 -0.1164 -0.2678
 1694W        W21228  12.150  15.384  13.410  0.2968  0.4212 -0.0185
 1695W        W21229   2.135   8.795  13.110  0.0258 -0.0617  0.3086
 1696W        W21230   1.144   3.803  11.385 -0.2489 -0.1823  0.1601
 1697W        W21231   8.681   9.988   0.941  0.0484 -0.2121 -0.1934
 1698W        W21232   6.838   7.139  11.902 -0.1848  0.2993 -0.0543
 1699W        W21233  12.593  18.050   4.066 -0.0313  0.1647 -0.1031
 1700W        W21234   0.022  17.374  15.567  0.2844  0.2590  0.0343
 1701W        W21235   1.279   9.840   1.146 -0.1365  0.1765 -0.2225
 1702W        W21236  11.645  15.688   2.805 -0.1361 -0.1064 -0.0470
 1703W        W21237   4.469  14.602   2.754 -0.1533 -0.2656  0.0431
 1704W        W21238   5.265   8.737   4.089  0.0803 -0.1406 -0.0853
 1705W        W21239   2.384  10.716  13.310  0.0562 -0.1490  0.0919
 1706W        W21240  10.966  11.648  14.117  0.1104 -0.1772  0.1946
 1707W        W21241   7.012  14.336   1.404  0.0532 -0.1625 -0.0510
 1708W        W21242   3.511  17.349  11.960 -0.1025  0.0251  0.1410
 1709W        W21243  16.375  17.340   2.372  0.0200  0.0975  0.1637
 1710W        W21244   1.595   3.324  15.649 -0.2468 -0.0291  0.0455
 1711W        W21245  10.684   0.737   2.320  0.0185  0.0129 -0.3632
 1712W        W21246   0.922   1.140  15.941 -0.0223  0.1067  0.4501
 1713W        W21247   2.243  14.442  11.870 -0.1633 -0.1358 -0.1786
 1714W        W21248   6.180  12.541   3.268  0.2376 -0.0280  0.1974
 1715W        W21249   8.082   7.128   1.870  0.1360 -0.0134  0.2449
 1716W        W21250   3.780   3.983   1.129  0.0736 -0.1727 -0.0639
 1717W        W21251   3.095   4.448   4.592  0.0316  0.2357  0.0737
 1718W        W21252   0.306   0.476   2.944  0.1858 -0.2599  0.1218
 1719W        W21253  15.272   9.221   3.428  0.1785 -0.1077  0.1846
 1720W        W21254  12.703   3.819   3.406  0.0217 -0.2404 -0.0455
 1721W        W21255   7.442   9.251  12.741 -0.0258  0.1901 -0.0394
 1722W        W21256   6.940   0.838  11.931  0.2935 -0.0916  0.3556
 1723W        W21257  13.688   1.162  11.845 -0.0946 -0.0001  0.1960
 1724W        W21258   5.583   6.135  14.508 -0.2035  0.0204  0.2138
 1725W        W21259   0.711  15.872  12.506 -0.0632  0.1643  0.0516
 1726W        W21260   3.270  10.036  12.196  0.1326  0.1518  0.2138
 1727W        W21261  15.991  17.124  13.754  0.3100  0.0424  0.4040
 1728W        W21262  16.013  17.271   3.223  0.0328 -0.0016  0.0175
 1729W        W21263  17.422   0.622  14.474 -0.0970  0.0375 -0.0439
 1730W        W21264   2.305   5.519  12.234 -0.0492 -0.3652 -0.2709
 1731W        W21265  17.390  12.161  13.176  0.2852 -0.0259 -0.1752
 1732W        W21266  10.470   7.903   2.757 -0.0506 -0.0364  0.3503
 1733W        W21267   3.994   5.819  13.445 -0.0944 -0.0200 -0.0177
 1734W        W21268  11.379   7.354   4.616 -0.2012  0.4169 -0.2670
 1735W        W21269   8.386   0.437   2.943  0.0981  0.0196 -0.0607
 1736W        W21270  13.773   0.964  11.332 -0.0549  0.0021  0.2882
 1737W        W21271   9.500   4.076   2.491 -0.0363 -0.0455  0.0571
 1738W        W21272  15.596   1.933   5.394  0.1816  0.2297 -0.0752
 1739W        W21273  11.837   0.397   1.724 -0.2490 -0.2842 -0.1152
 1740W        W21274  14.007   0.323   0.607  0.0661 -0.2076 -0.0223
 1741W        W21275  15.132  10.184   1.336  0.1600 -0.0049  0.4020
 1742W        W21276  14.794  12.245   2.971 -0.0190 -0.1974 -0.0274
 1743W        W21277  11.114   0.885  13.075  0.1046  0.1269  0.2055
 1744W        W21278   8.922   7.982   2.891 -0.1361  0.2501  0.1093
 1745W        W21279  11.945  15.979  14.706 -0.0441 -0.2233 -0.1864
 1746W        W21280  16.889   1.979   3.556  0.1625 -0.0640  0.0272
 1747W        W21281   9.491  11.672   1.641 -0.1162 -0.1194 -0.1738
 1748W        W21282   7.284  13.606  11.574 -0.0866 -0.0210  0.0432
 1749W        W21283  12.094  11.752   2.106 -0.4748 -0.5174 -0.1186
 1750W        W21284  16.984   7.239   1.362 -0.1866 -0.0114  0.2896
 1751W        W21285   2.749   7.161   3.167 -0.2285  0.5004  0.0408
 1752W        W21286   7.815   2.176  14.754 -0.1596  0.2492 -0.3841
 1753W        W21287   8.111  10.512  11.540  0.1316 -0.1054  0.0682
 1754W        W21288  17.560   1.663   1.249  0.2513  0.0520 -0.1870
 1755W        W21289   3.594   0.880   3.317  0.0695  0.0132 -0.0043
 1756W        W21290   2.880  11.931   0.311 -0.2200  0.1732  0.0971
 1757W        W21291   1.367   2.615   3.206  0.3350  0.0131 -0.3155
 1758W        W21292  14.771  16.119   1.678 -0.2151 -0.0753  0.1104
 1759W        W21293  17.919   3.281  13.678 -0.0229 -0.0249  0.1420
 1760W        W21294   2.170  14.468  15.806 -0.2411  0.0589  0.0327
 1761W        W21295   5.524   2.608   2.569 -0.0960  0.1024  0.2508
 1762W        W21296   6.452  16.272   4.594 -0.1050  0.2568  0.0107
 1763W        W21297  15.131  18.126  14.942 -0.0626  0.2085 -0.1518
 1764W        W21298  12.837   3.867  13.691 -0.1039  0.1235 -0.2226
 1765W        W21299   3.521   5.010  11.080 -0.0672 -0.0744 -0.2907
 1766W        W21300  15.360   2.372  13.930  0.0961 -0.1473 -0.0974
 1767W        W21301   9.661   5.484  12.315 -0.3205 -0.0304 -0.0062
 1768W        W21302   8.289   5.173   1.684 -0.3102 -0.1707  0.0613
 1769W        W21303  11.496   7.513  12.251  0.0532 -0.3161  0.0441
 1770W        W21304  18.043   1.356  12.336 -0.1121 -0.1018  0.0679
 1771W        W21305   9.954   7.097   5.589  0.2300  0.3435  0.2971
 1772W        W21306  10.571   9.877   1.173  0.0261 -0.0407 -0.0853
 1773W        W21307  14.056  12.355  15.803  0.0670  0.2088 -0.0519
 1774W        W21308   9.080  10.396   2.013 -0.2067  0.3005  0.0771
 1775W        W21309  12.394  14.228  14.352 -0.1193 -0.1859 -0.0460
 1776W        W21310   9.074   8.262  14.670  0.1075  0.1280  0.1403
 1777W        W21311   5.263   5.634  11.801 -0.0343  0.3354 -0.2464
 1778W        W21312  11.782   2.007   3.821  0.2266 -0.1474 -0.3041
 1779W        W21313  16.828  10.468  14.280 -0.0062  0.2478 -0.0114
 1780W        W21314  11.242  12.523   3.529  0.1669  0.2058 -0.0018
 1781W        W21315  18.032   6.373  11.037  0.0609 -0.0073 -0.0356
 1782W        W21316  16.141  11.939   3.195 -0.1400 -0.0912 -0.1656
 1783W        W21317  18.080  18.151   3.669 -0.0777  0.1381  0.0421
 1784W        W21318  10.515   2.256  14.986  0.0247  0.0383  0.0018
 1785W        W21319   3.672   4.970   0.206 -0.0037 -0.0505  0.0286
 1786W        W21320   5.858   8.088  11.501 -0.0982 -0.3401 -0.1223
 1787W        W21321  15.249   6.444   3.054  0.1577  0.0597  0.1330
 1788W        W21322   4.713   2.514  15.973  0.3186 -0.0145 -0.0119
 1789W        W21323  15.133   7.036  13.708  0.2986  0.1748 -0.0887
 1790W        W21324   1.916   3.869  15.106  0.1695 -0.0139  0.0314
 1791W        W21325  16.773   1.284   2.415  0.1750 -0.0870  0.0673
 1792W        W21326  16.793   0.946  15.494  0.0533  0.1010  0.0298
 1793W        W21327   4.520   6.163  13.433 -0.0075 -0.4452 -0.1483
 1794W        W21328   4.587  13.258   3.875 -0.3318  0.0435 -0.0841
 1795W        W21329  12.239  13.006  10.781  0.1546 -0.0919 -0.1741
 1796W        W21330  11.864  13.698   4.084 -0.1034  0.0987  0.1963
 1797W        W21331  13.579   5.892   1.885  0.1455  0.0856 -0.1857
 1798W        W21332   6.160   0.734   4.098 -0.4300  0.2674  0.0413
 1799W        W21333   3.723   9.804  13.947  0.0659 -0.0390  0.0812
 1800W        W21334  11.947   1.123   0.397 -0.0032 -0.1445  0.0937
 1801W        W21335  14.498  11.837   3.616 -0.0732  0.1056 -0.0519
 1802W        W21336  14.420   8.878   0.675  0.2928  0.0348  0.0114
 1803W        W21337   7.254   5.449  10.904  0.0200 -0.0842  0.0956
 1804W        W21338   6.986   7.757  12.941  0.4988 -0.1376 -0.0316
 1805W        W21339  12.196  10.859   0.894 -0.0262  0.0831 -0.1498
 1806W        W21340  15.117  11.844  12.753 -0.1475 -0.0155 -0.2175
 1807W        W21341  17.378   3.504  12.428 -0.0074 -0.0442 -0.2082
 1808W        W21342   1.006  12.273   2.175 -0.0754 -0.0389  0.0428
 1809W        W21343   9.051   5.928   4.621 -0.2646  0.2116  0.0778
 1810W        W21344  14.612   3.266  13.294  0.0699 -0.0185 -0.1414
 1811W        W21345   1.608   9.887  13.909 -0.0768  0.0162  0.1193
 1812W        W21346  17.761   3.431   0.717 -0.0890  0.3945 -0.1421
 1813W        W21347  17.241   7.053   4.727 -0.0267  0.1075  0.0496
 1814W        W21348   2.479  13.566  12.376  0.1275  0.0400 -0.0468
 1815W        W21349   8.681   1.573   3.674 -0.0638  0.1761 -0.0341
 1816W        W21350   7.612   4.642  11.988 -0.0235 -0.0372 -0.0668
 1817W        W21351   4.856   0.838  15.427  0.0905  0.0038 -0.0332
 1818W        W21352  16.438   3.473  14.715 -0.0959  0.0228 -0.2154
 1819W        W21353   6.306   8.046  15.148  0.0224 -0.0200  0.1265
 1820W        W21354  15.505   6.554   2.183 -0.2570 -0.0655  0.1204
 1821W        W21355   4.948  12.879   3.826 -0.0472 -0.0332 -0.0856
 1822W        W21356   0.422   8.668   2.180 -0.2664  0.1152  0.0080
 1823W        W21357   1.161  14.905  13.505  0.2124 -0.2653 -0.0684
 1824W        W21358  14.856  11.840   1.340  0.0548  0.1802 -0.1237
 1825W        W21359   0.661  14.727   2.578  0.0812  0.0015 -0.3524
 1826W        W21360  11.569  17.895   0.482 -0.0038  0.0344  0.0984
 1827W        W21361  18.080  17.822   2.242  0.3840  0.1623  0.1451
 1828W        W21362   5.828  13.854  11.611 -0.2757  0.0073 -0.2818
 1829W        W21363   2.161   9.819   2.263  0.1206  0.1547 -0.2477
 1830W        W21364  14.211   0.544  14.973  0.0942 -0.0425  0.2571
 1831W        W21365   7.073   2.339  13.241 -0.5589  0.1816  0.1988
 1832W        W21366   9.402  11.413  13.145  0.0370 -0.0688 -0.1586
 1833W        W21367   0.072  11.508  14.347 -0.0095 -0.2902  0.0557
 1834W        W21368  14.915   7.394  14.212 -0.0107 -0.3134  0.0938
 1835W        W21369   6.496   1.303  14.698  0.4175  0.0593  0.1115
 1836W        W21370  14.945   5.833   5.397 -0.2065  0.1782 -0.0922
 1837W        W21371  11.175  14.947  14.555  0.0060 -0.0839 -0.1764
 1838W        W21372   4.046   5.964  15.505 -0.1547 -0.1321  0.1026
 1839W        W21373   0.342  10.139  14.938 -0.1891 -0.1813 -0.0273
 1840W        W21374   1.837   5.901   2.297  0.1364  0.1945  0.1531
 1841W        W21375   4.570   6.204  12.107 -0.1302 -0.0085 -0.0591
 1842W        W21376   3.174   3.991  11.383  0.1388  0.0724 -0.1340
 1843W        W21377   8.339  16.788   2.694  0.1288 -0.1585 -0.1450
 1844W        W21378  11.931   9.782  15.287  0.0286  0.1689  0.0277
 1845W        W21379   7.969  11.850   5.173 -0.0950 -0.1442 -0.0495
 1846W        W21380  15.537   9.164   1.834  0.0097  0.0304  0.1424
 1847W        W21381   7.704   2.426   4.298  0.2029  0.1804  0.0159
 1848W        W21382  17.779  11.190   4.161 -0.1615 -0.1024  0.1207
 1849W        W21383  17.416  16.322   3.944 -0.0030 -0.2352  0.0604
 1850W        W21384   8.753  15.204   4.486  0.3582  0.0204  0.0542
 1851W        W21385  16.346  11.261   4.178  0.1330  0.2129 -0.3425
 1852W        W21386   2.609   5.711   4.536 -0.2902 -0.1628 -0.0936
 1853W        W21387   5.859   6.097   4.035 -0.0357 -0.0097 -0.1090
 1854W        W21388   4.848   4.370  12.711 -0.1993 -0.2586  0.0192
 1855W        W21389   4.405  12.214   4.318 -0.2910 -0.0156 -0.0062
 1856W        W21390  13.463   4.483   3.403  0.1547 -0.0717  0.0772
 1857W        W21391   3.161  12.019  14.960 -0.0591 -0.0090  0.1079
 1858W        W21392   5.148  14.193  14.157  0.2871 -0.0981 -0.3262
 1859W        W21393   3.021   6.818  15.261  0.2005 -0.2556  0.0870
 1860W        W21394   8.826  17.100  11.481 -0.0612 -0.2022  0.1865
 1861W        W21395   6.945  11.081   4.191  0.0913  0.1742  0.2111
 1862W        W21396   3.323   5.894  11.575 -0.1263 -0.2305  0.0032
 1863W        W21397  10.948   3.099   2.321 -0.1070 -0.1329 -0.4854
 1864W        W21398   0.787  12.151   0.687 -0.4025 -0.2105  0.0200
 1865W        W21399  11.008  14.514   4.393  0.0168  0.0933 -0.0323
 1866W        W21400  16.590   4.826   4.865 -0.1489 -0.5233 -0.2116
 1867W        W21401  11.124   2.165   0.389 -0.0431 -0.0437 -0.0404
 1868W        W21402   0.165   1.107   1.698 -0.4132 -0.0672 -0.4468
 1869W        W21403  12.488   5.665   3.306  0.0017  0.0800  0.0251
 1870W        W21404   2.219   6.890   4.738  0.1110 -0.0215 -0.3522
 1871W        W21405   4.507   8.034   0.179  0.0232 -0.3991  0.0885
 1872W        W21406  14.393   3.527   4.502  0.1057 -0.0968  0.0847
 1873W        W21407   6.581   4.100   1.472  0.2979 -0.1906 -0.0792
 1874W        W21408   7.578  13.918   5.442 -0.0742  0.4926 -0.0562
 1875W        W21409  13.212  15.401  12.962 -0.0427 -0.2477  0.1093
 1876W        W21410  16.209   3.979   0.793  0.1267  0.0431 -0.0862
 1877W        W21411   9.411   0.089  14.286 -0.2616  0.0465  0.0264
 1878W        W21412  12.779   5.932  13.799 -0.2698  0.0622  0.2641
 1879W        W21413   4.079   8.411  11.616  0.1348 -0.0264 -0.1244
 1880W        W21414   8.378  14.547   1.844  0.2290  0.0658 -0.1085
 1881W        W21415  16.398  12.454  14.006 -0.1611 -0.1590 -0.1855
 1882W        W21416   2.530  16.172   0.045 -0.4448  0.1731  0.1117
 1883W        W21417   1.055   6.448   4.604  0.2990 -0.0081  0.0692
 1884W        W21418  11.533   4.964   4.417 -0.2232  0.3710 -0.1099
 1885W        W21419  15.828   6.567  13.045 -0.0554 -0.0182  0.2280
 1886W        W21420   7.766   0.598  13.897 -0.2306  0.1575 -0.0242
 1887W        W21421   3.404   4.794   4.371 -0.2201  0.2548  0.1917
 1888W        W21422   1.540   0.694  14.732 -0.1584 -0.0681 -0.1314
 1889W        W21423  12.764   3.304   1.213  0.1418  0.3797 -0.1226
 1890W        W21424  14.607   7.973  13.322  0.0033  0.1780 -0.2243
 1891W        W21425  10.118  14.187   3.934 -0.1321  0.0936  0.0261
 1892W        W21426   8.911   7.309   0.296 -0.0202  0.2415  0.3392
 1893W        W21427   7.160  13.340   4.393  0.1442  0.1371  0.3709
 1894W        W21428   2.267   5.795  14.179  0.3545 -0.0575 -0.0073
 1895W        W21429   1.344   5.156  14.249  0.1475  0.3305 -0.0399
 1896W        W21430   5.846  14.353   2.965 -0.2068  0.1841  0.2135
 1897W        W21431  13.576   3.344  15.303  0.1079  0.1525  0.0586
 1898W        W21432   4.865   2.438  13.074  0.1137 -0.3315  0.1167
 1899W        W21433  18.014  16.504  15.261 -0.2536  0.0105 -0.0616
 1900W        W21434   8.481   8.145   5.715 -0.0336  0.1333  0.1655
 1901W        W21435   1.256   9.154   0.267  0.0934  0.0364  0.0414
 1902W        W21436  14.540  12.141   4.068  0.2490 -0.0295  0.1748
 1903W        W21437  15.499  12.393   0.677  0.1461  0.0673  0.1379
 1904W        W21438   3.983  12.955  15.783  0.2154 -0.1374  0.2221
 1905W        W21439  12.544  17.621  11.621  0.0334  0.2056  0.0912
 1906W        W21440  17.254   4.649  14.751 -0.1239  0.0905 -0.1976
 1907W        W21441  18.080  16.950  13.948 -0.0676 -0.2339 -0.4178
 1908W        W21442  13.126   2.633   2.353 -0.0088 -0.1614  0.0372
 1909W        W21443  14.728   5.017   3.162 -0.0495 -0.1257 -0.1282
 1910W        W21444   4.701  14.475  14.781  0.0790  0.1205  0.0123
 1911W        W21445  16.658   4.113   2.897  0.2387  0.2069 -0.0290
 1912W        W21446   8.385   1.077   0.941 -0.1856 -0.2882 -0.1830
 1913W        W21447  15.313   4.394   0.582  0.1537 -0.1730  0.0150
 1914W        W21448   7.990   4.260  15.694 -0.1501 -0.0836 -0.0087
 1915W        W21449  11.027   9.948   5.176  0.0652 -0.0180 -0.1336
 1916W        W21450   8.598   7.711  15.078 -0.0315  0.0895 -0.1625
 1917W        W21451   7.264   7.081   0.319 -0.1687  0.0816 -0.1326
 1918W        W21452   9.691  14.122   1.631 -0.0545 -0.0690  0.0188
 1919W        W21453   9.433   8.731   3.971 -0.2431  0.2513  0.1118
 1920W        W21454   2.177   1.655  13.073  0.0840 -0.3475  0.3031
 1921W        W21455   9.675   0.921   2.835 -0.1997 -0.2316  0.1822
 1922W        W21456   5.298  13.888   4.176  0.2087  0.1052 -0.0766
 1923W        W21457  10.586   7.967   1.280 -0.2156 -0.0826 -0.0248
 1924W        W21458   4.308   8.814  11.359  0.1223  0.0025  0.1279
 1925W        W21459   9.104   7.100  11.611 -0.1021  0.0608 -0.0192
 1926W        W21460  15.075  11.344  14.194 -0.0505 -0.0137  0.2001
 1927W        W21461   3.051   4.923   3.388  0.2629 -0.2059  0.0417
 1928W        W21462  12.964   8.050   3.724 -0.0924  0.0964 -0.0811
 1929W        W21463   0.515   5.857   1.017 -0.1837  0.0282  0.1124
 1930W        W21464   8.868   9.775  15.003 -0.1496 -0.0610  0.0150
 1931W        W21465   1.695  15.687   0.057 -0.1337  0.0079 -0.0424
 1932W        W21466   2.228   1.464   4.455 -0.0392 -0.2770  0.2658
 1933W        W21467  16.609   5.917   1.658 -0.1081  0.2240  0.2385
 1934W        W21468   5.339   6.559  14.536  0.0180 -0.0994 -0.0866
 1935W        W21469   6.746  18.163  11.258  0.0147  0.0673 -0.0691
 1936W        W21470   7.940  14.688  11.614 -0.0389  0.1938  0.1293
 1937W        W21471   1.555   5.463   2.012 -0.1520 -0.2522  0.1788
 1938W        W21472  14.040   8.402   4.250  0.2388 -0.1833  0.0595
 1939W        W21473  17.613   1.563  14.398  0.0162 -0.3673  0.0490
 1940W        W21474   4.850  14.698  12.952  0.0535  0.0101  0.0788
 1941W        W21475   0.129   5.946  14.874  0.1062  0.0087  0.1230
 1942W        W21476  11.714   0.053   1.350 -0.0444 -0.1228  0.3794
 1943W        W21477   0.308  12.194  12.099  0.0259 -0.1252 -0.1384
 1944W        W21478  16.351   9.926   4.379  0.1887  0.1963  0.0019
 1945W        W21479   6.959   0.480   5.330 -0.0838 -0.2347  0.0896
 1946W        W21480   7.194   2.693   2.788  0.0599 -0.1679  0.2759
 1947W        W21481  15.022   3.160  12.553 -0.1320 -0.0392  0.3150
 1948W        W21482  13.093   7.098   1.141 -0.1860  0.2297  0.1491
 1949W        W21483   4.623   3.652   1.771  0.0565  0.3004 -0.1261
 1950W        W21484  16.453   7.822  14.169 -0.0184  0.2260 -0.0761
 1951W        W21485  12.933   4.943  13.878 -0.1983 -0.2749 -0.1252
 1952W        W21486  10.516   5.631  13.370 -0.0584 -0.0541  0.2580
 1953W        W21487   0.785   2.222  12.643 -0.0486 -0.3419  0.0255
 1954W        W21488  13.809  17.274  11.773 -0.0662 -0.2842 -0.0277
 1955W        W21489  11.342   4.730   2.348  0.3282  0.2933 -0.1753
 1956W        W21490  11.191  13.495  15.842 -0.1347  0.1047 -0.1737
 1957W        W21491  12.817   4.556   4.122 -0.2895  0.2576 -0.0802
 1958W        W21492   0.200  14.801  11.810 -0.2634 -0.1145  0.0576
 1959W        W21493   5.472  12.997   3.958 -0.1290  0.0045 -0.1650
 1960W        W21494   7.639  12.397  13.187  0.1846 -0.0167 -0.0684
 1961W        W21495   2.069   5.590  13.060 -0.1964  0.0735  0.1147
 1962W        W21496  15.257   2.547   2.772  0.1590 -0.0374  0.0054
 1963W        W21497   5.127   9.492  12.819 -0.1054  0.0499 -0.2543
 1964W        W21498  11.950   6.563  14.501  0.5016 -0.1263 -0.1438
 1965W        W21499  14.844   5.882  15.515 -0.0274  0.1036  0.0346
 1966W        W21500   9.578   6.989  14.161 -0.2747 -0.0363  0.2006
 1967W        W21501  15.340  14.172  13.195 -0.1296  0.2173  0.0384
 1968W        W21502   1.282  11.743   3.225  0.1326 -0.3195  0.2143
 1969W        W21503   8.141   3.226  12.932  0.0509  0.1064 -0.1021
 1970W        W21504   6.680   2.275  11.601  0.0655  0.2328  0.1941
 1971W        W21505   0.238  16.602   4.041  0.0999  0.0354  0.0259
 1972W        W21506  10.124  13.160   2.635 -0.2459  0.4348 -0.0163
 1973W        W21507   7.617  16.636  12.876 -0.0727  0.0312  0.1199
 1974W        W21508  15.566   6.991  12.822  0.0609 -0.0970 -0.1030
 1975W        W21509  14.380   6.502  12.488  0.0279  0.0459 -0.0077
 1976W        W21510   4.465  12.906  14.239 -0.4248  0.1690  0.2530
 1977W        W21511   5.157   0.777  14.232 -0.1658 -0.0668 -0.0380
 1978W        W21512  14.564  17.962  12.530  0.2128  0.0792 -0.3360
 1979W        W21513   6.740  15.958  15.468  0.3110  0.3674 -0.1020
 1980W        W21514   5.324   8.862   4.571 -0.3113  0.1022 -0.1848
 1981W        W21515  17.502  12.885   2.847 -0.3843  0.0167  0.3497
 1982W        W21516  13.732   4.046   4.028 -0.0218 -0.0322  0.0117
 1983W        W21517  17.869   8.346  12.105  0.0004 -0.4401 -0.0534
 1984W        W21518   0.296   4.451  15.478 -0.0516 -0.0309 -0.2040
 1985W        W21519  17.532   1.948  14.011  0.0066  0.4375  0.0101
 1986W        W21520  12.872   7.108   3.288  0.3160 -0.2024 -0.2116
 1987W        W21521  11.384   3.922   1.302  0.2031  0.1221 -0.1327
 1988W        W21522  14.382   5.834  13.937 -0.2146  0.0976  0.1883
 1989W        W21523   0.287   0.351  13.183 -0.0676 -0.2034  0.0854
 1990W        W21524   6.382   1.374   4.180  0.1180 -0.1321  0.0993
 1991W        W21525   0.296  12.693  14.546  0.3206 -0.2015  0.0766
 1992W        W21526  12.946   0.025   4.462 -0.0695  0.1239  0.0238
 1993W        W21527   1.875   1.224   1.416  0.1507  0.4233  0.1292
 1994W        W21528   6.510  16.796  13.550 -0.2139 -0.2910  0.0155
 1995W        W21529  10.685   5.948  15.745  0.2996  0.0297 -0.0956
 1996W        W21530   5.313   4.389   0.882  0.2717  0.1528  0.0459
 1997W        W21531   6.206   8.771   0.866 -0.0333  0.0130 -0.0940
 1998W        W21532  10.393   1.086   2.640  0.1819  0.0229  0.0565
 1999W        W21533   6.966   7.240   0.792  0.1311  0.1557  0.1768
 2000W        W21534   9.842  13.614   1.484 -0.0452  0.2524 -0.2572
 2001W        W21535   2.596  12.813   0.285  0.1127 -0.0623 -0.1936
 2002W        W21536  17.047   9.635  13.812 -0.2792 -0.1751  0.1792
 2003W        W21537   1.377  15.884  12.761  0.0175 -0.0294 -0.2106
 2004W        W21538   4.214   6.123  15.949 -0.2097 -0.2883 -0.0797
 2005W        W21539  17.806  10.290   2.876 -0.0671  0.0946  0.0296
 2006W        W21540  17.555   3.304  13.321  0.1246  0.1047 -0.0225
 2007W        W21541  17.689   7.493  15.838 -0.1243  0.3863 -0.0482
 2008W        W21542   2.651   2.497   3.789 -0.1712  0.0951  0.0440
 2009W        W21543   9.796   2.972  13.735  0.1973 -0.0904  0.0986
 2010W        W21544  11.220   8.731  13.181 -0.1914  0.0949  0.0367
 2011W        W21545   8.572   7.033   1.244  0.1070  0.3018 -0.1110
 2012W        W21546  14.332   4.324  15.594  0.3267 -0.2653  0.0969
 2013W        W21547  16.986  13.969  11.939 -0.0145 -0.1580 -0.1466
 2014W        W21548   2.854  10.004  13.209  0.1810 -0.1289  0.0688
 2015W        W21549  14.408  10.006  14.597 -0.1292  0.1613 -0.2684
 2016W        W21550   8.813  15.755  15.937 -0.0290 -0.0226 -0.0862
 2017W        W21551   9.764  13.924  11.239 -0.0709  0.0966  0.0179
 2018W        W21552  14.658  13.312   4.366 -0.1064 -0.3198  0.3368
 2019W        W21553   6.276  17.290  11.987  0.2405 -0.1743 -0.1680
 2020W        W21554   6.967   5.062  14.422 -0.0752  0.2938 -0.0135
 2021W        W21555   3.301   5.039   2.890  0.1683 -0.0441 -0.0130
 2022W        W21556   5.974   0.495   0.043 -0.2564  0.0317 -0.1888
 2023W        W21557  15.538  14.512  12.860  0.0332 -0.2284 -0.1701
 2024W        W21558  10.802  14.235   2.145 -0.0107  0.2103 -0.2132
 2025W        W21559  11.567   0.548  14.253  0.1328 -0.2120  0.0830
 2026W        W21560   9.162   0.865   2.595 -0.1424  0.0920 -0.2625
 2027W        W21561   7.005   3.972  12.468 -0.2685  0.0560 -0.5381
 2028W        W21562  17.482  16.035  12.865  0.0011  0.0699 -0.2441
 2029W        W21563  12.329   1.457   0.321 -0.0868  0.1300 -0.3587
 2030W        W21564  11.464   8.207   3.609 -0.3367  0.0501 -0.0423
 2031W        W21565   1.667   5.951   1.836  0.0094  0.1602  0.1721
 2032W        W21566   0.936   0.493   1.164  0.0486  0.0933  0.1246
 2033W        W21567   2.666  17.541  12.812 -0.1854 -0.2638 -0.0015
 2034W        W21568  16.020  14.685   2.603  0.3586  0.3144 -0.0149
 2035W        W21569  15.989  12.476   3.182  0.1364  0.0027  0.2001
 2036W        W21570   2.078   9.506  11.152 -0.0395  0.0502 -0.0590
 2037W        W21571   8.987  12.711  12.374 -0.1471 -0.0241  0.2142
 2038W        W21572  16.054   1.179   5.416 -0.0716 -0.3188  0.1143
 2039W        W21573  17.044   1.191   4.758 -0.3327 -0.1175  0.1998
 2040W        W21574   6.440  16.378   0.323 -0.0705  0.1626  0.1293
 2041W        W21575   0.370   3.464  15.598 -0.0279  0.1322  0.0212
 2042W        W21576  13.132  11.007   0.429  0.2331 -0.1607  0.1950
 2043W        W21577   4.950   7.038   4.592  0.0253 -0.3258  0.0484
 2044W        W21578   5.983  15.082   0.918 -0.0216  0.2914  0.0335
 2045W        W21579   2.904  12.533   2.055  0.0374  0.0276  0.0676
 2046W        W21580  17.908  16.660   4.161  0.0867 -0.0590 -0.1905
 2047W        W21581   5.677   4.317   3.188 -0.0454 -0.1749  0.1510
 2048W        W21582  14.767   8.803   0.178 -0.2628 -0.2255 -0.4964
 2049W        W21583  15.682   8.009   3.305  0.0508 -0.0201 -0.0470
 2050W        W21584  17.239   8.776  15.902  0.0061  0.1000  0.1496
 2051W        W21585   7.478   9.251  15.810 -0.0823  0.0662  0.1732
 2052W        W21586  16.168  12.034   1.125  0.0039 -0.0714  0.2574
 2053W        W21587   0.521  11.408  15.131 -0.0022 -0.1416 -0.1848
 2054W        W21588   2.507  10.256  13.481  0.0308 -0.0896  0.0533
 2055W        W21589  14.320  18.042  13.004 -0.1596 -0.1254 -0.2992
 2056W        W21590   6.812   1.415   1.709 -0.0922 -0.0624 -0.1749
 2057W        W21591  11.579  10.732   3.486 -0.0815 -0.0027  0.1498
 2058W        W21592   9.985   0.379   4.440 -0.0117 -0.0426 -0.3195
 2059W        W21593  10.197  15.610  11.709 -0.1870 -0.0886  0.1462
 2060W        W21594   5.313   2.502  15.950  0.2069 -0.1410  0.0216
 2061W        W21595   3.392   9.094  13.709 -0.0345 -0.2563 -0.4360
 2062W        W21596   5.943   1.799   3.273  0.0939 -0.2135 -0.1647
 2063W        W21597   4.334   6.406   3.355 -0.1626 -0.2260  0.1437
 2064W        W21598   4.833  15.985  15.107 -0.1486  0.2042 -0.0053
 2065W        W21599  15.217   8.466  15.037 -0.0877 -0.0433 -0.4305
 2066W        W21600  12.934   9.822   0.738 -0.0389 -0.2725 -0.2267
 2067W        W21601   2.517   1.660   4.112 -0.1844  0.3513 -0.2169
 2068W        W21602  16.122  10.850   3.997  0.2500  0.0802  0.0026
 2069W        W21603   2.145   4.723  15.525 -0.0239  0.1194  0.1128
 2070W        W21604  12.282  15.655  13.949 -0.0106  0.2567 -0.2878
 2071W        W21605  18.040  13.344  15.305  0.1802  0.0524  0.1683
 2072W        W21606  12.623  13.031  12.405  0.1237  0.1262  0.2686
 2073W        W21607  17.740  12.382  13.434  0.0310 -0.0837  0.0238
 2074W        W21608   8.622   7.307  11.754 -0.0470  0.0777 -0.3497
 2075W        W21609   7.046   4.416   4.454  0.1145 -0.0110  0.1647
 2076W        W21610  14.820  17.910   4.323 -0.0542  0.2301  0.0153
 2077W        W21611  11.701   8.912  15.180  0.2950  0.0222  0.0246
 2078W        W21612   9.515   1.189   2.367 -0.0029 -0.0588  0.0451
 2079W        W21613   1.433  16.136  16.026 -0.1824 -0.1057  0.0619
 2080W        W21614   1.699   0.482   0.184 -0.1337  0.1080 -0.0475
 2081W        W21615   7.063  13.944  11.990  0.2048 -0.0994  0.3507
 2082W        W21616  13.708   3.006   2.952 -0.0066 -0.0335 -0.1587
 2083W        W21617  11.658  10.071  12.636  0.0043  0.0856 -0.3125
 2084W        W21618   8.697  17.804  13.713 -0.2469  0.0010  0.0299
 2085W        W21619  16.763  17.117   0.769 -0.0198 -0.0111 -0.1278
 2086W        W21620   2.839   6.171   3.497  0.1085  0.0783 -0.0736
 2087W        W21621  16.870  10.721   0.204  0.1082  0.0361  0.1734
 2088W        W21622  17.782   5.095  13.930 -0.0734  0.0449 -0.2046
 2089W        W21623   8.150   6.402  11.490  0.0429 -0.1667 -0.0379
 2090W        W21624   0.935   3.113  14.223 -0.0543  0.2571  0.0428
 2091W        W21625   1.138   6.735   3.446  0.0305  0.2871  0.2088
 2092W        W21626  16.806   5.558  12.876 -0.2654 -0.0530 -0.0602
 2093W        W21627   0.876  14.384   0.208 -0.0170  0.2059 -0.0511
 2094W        W21628   8.940   8.076  11.338 -0.0382  0.2489  0.1402
 2095W        W21629  12.680  10.039  14.951 -0.1044  0.3045 -0.3146
 2096W        W21630   6.724   1.428  12.322 -0.2626  0.1429 -0.0066
 2097W        W21631  12.253   8.904  12.098  0.0506 -0.1017 -0.1237
 2098W        W21632   6.806   1.796  12.778  0.4154  0.2616  0.0124
 2099W        W21633   2.438  17.967  13.496 -0.1811 -0.3804 -0.1512
 2100W        W21634   0.296  14.449   0.214 -0.4388 -0.0836 -0.2404
 2101W        W21635  17.054  12.893  12.834  0.4058  0.0227  0.3268
 2102W        W21636   9.557  10.580   4.305  0.1279 -0.0106  0.1871
 2103W        W21637   6.115   4.252   1.320 -0.1834  0.1485  0.0336
 2104W        W21638  16.253  15.489   2.815  0.2463  0.0447 -0.1223
 2105W        W21639   4.041   2.367   0.670  0.0089  0.2545 -0.1928
 2106W        W21640  16.931   3.841  12.596 -0.0283  0.2134  0.0075
 2107W        W21641   7.957  16.782  11.547 -0.0809  0.2897 -0.0401
 2108W        W21642   3.208   7.268  12.562  0.0901 -0.0997 -0.2145
 2109W        W21643   1.123  11.851   0.442  0.0309 -0.1602  0.3148
 2110W        W21644   2.091   9.894  13.624 -0.3526  0.2243 -0.0235
 2111W        W21645   9.988  10.810  12.855  0.0651 -0.1267  0.2185
 2112W        W21646  17.951   3.361  14.687  0.3566 -0.0736 -0.1377
 2113W        W21647  16.431  10.025   2.943 -0.1310 -0.0098  0.0200
 2114W        W21648  16.909  15.212   3.992  0.1297  0.1334  0.2155
 2115W        W21649  14.765  16.475   4.725  0.0184 -0.2082  0.1973
 2116W        W21650  12.619  11.065   1.176  0.0348 -0.1237  0.0548
 2117W        W21651  11.195   1.530   4.039  0.0029  0.1164  0.3115
 2118W        W21652   5.709  14.332   0.002  0.0557  0.0168 -0.3771
 2119W        W21653  12.000  13.420  14.526  0.1118  0.2983  0.0203
 2120W        W21654  10.124  13.228  14.967 -0.0979 -0.1916 -0.0147
 2121W        W21655  10.833   1.903   3.107 -0.0677  0.0195  0.1752
 2122W        W21656   1.497   1.140   3.391  0.5326 -0.0538 -0.0909
 2123W        W21657   9.938   9.182   4.339 -0.0720  0.0878  0.1196
 2124W        W21658   6.470   4.625   1.465  0.0568  0.0279  0.1187
 2125W        W21659   9.516  12.041   0.564  0.2270 -0.2358  0.0273
 2126W        W21660   1.425   5.916  15.347 -0.1038  0.0332 -0.2493
 2127W        W21661   9.566   8.416   3.219 -0.0851  0.1146 -0.0189
 2128W        W21662  11.031  12.271   2.477  0.3432  0.0884  0.1383
 2129W        W21663   1.863  10.201   4.501  0.1703  0.2530  0.0788
 2130W        W21664  10.090  13.194   1.392 -0.0962 -0.1611  0.0635
 2131W        W21665  10.412   2.889  14.812 -0.3983  0.1749  0.0764
 2132W        W21666   1.932   5.611   3.779  0.0349 -0.0824 -0.2093
 2133W        W21667  14.764  13.608  14.759  0.1120  0.2862  0.1398
 2134W        W21668   9.102  10.591   0.184 -0.2450 -0.0513  0.6067
 2135W        W21669  14.625  17.916   4.870  0.1177 -0.0801  0.0144
 2136W        W21670   3.893  15.212  12.554 -0.0762  0.0315 -0.1035
 2137W        W21671  10.148   1.394  12.845 -0.2579 -0.4186  0.3036
 2138W        W21672  15.826   4.882  12.810  0.0955  0.0216  0.2231
 2139W        W21673   7.545  14.141  15.044  0.1187 -0.3717 -0.4695
 2140W        W21674   3.949  15.847   3.010  0.1687 -0.1762  0.0612
 2141W        W21675   8.322   0.180  11.899  0.1530  0.2136  0.0132
 2142W        W21676   0.208  12.327  13.995  0.0121  0.1252 -0.1057
 2143W        W21677  17.220  14.822   3.726  0.0044  0.2099  0.0736
 2144W        W21678  12.181   6.494  13.013 -0.3323  0.0352 -0.0249
 2145W        W21679   8.871   8.616  15.837 -0.1104  0.1661 -0.2873
 2146W        W21680  14.098  10.719  11.887  0.1138  0.3243 -0.0407
 2147W        W21681   7.921  17.334   2.763 -0.1639  0.1474 -0.1901
 2148W        W21682   4.138   2.507   3.813  0.0228  0.0316  0.1022
 2149W        W21683  14.711  12.313  14.186  0.1173  0.2084 -0.2547
 2150W        W21684   3.011  13.947  14.984  0.1029  0.2023  0.1208
 2151W        W21685   7.935   0.711   1.036 -0.0491 -0.0236  0.2256
 2152W        W21686  17.872  12.897  14.308 -0.0222  0.0359 -0.2761
 2153W        W21687   0.414   9.042  12.060 -0.1246 -0.3092  0.2358
 2154W        W21688  11.561  13.904  12.660  0.0653  0.3699  0.2079
 2155W        W21689   5.247   1.050   2.745 -0.5156  0.1937  0.1327
 2156W        W21690  15.665   8.883  13.689 -0.2994  0.1125 -0.1710
 2157W        W21691  17.651  15.530  11.799  0.0717 -0.1894 -0.4063
 2158W        W21692  13.135   6.728   4.535  0.1946 -0.0703 -0.2548
 2159W        W21693  10.010   8.482  11.231 -0.1491  0.5983 -0.0314
 2160W        W21694   4.826   5.533  14.369  0.1264 -0.1685 -0.1026
 2161W        W21695  18.063  10.349  13.595  0.0422 -0.0109  0.3514
 2162W        W21696   3.057   0.891  15.971  0.1568 -0.1420 -0.1676
 2163W        W21697   3.532  18.108   2.636  0.2262  0.0372 -0.0459
 2164W        W21698   2.050  17.936   4.588 -0.1143  0.3535  0.1446
 2165W        W21699  15.460  12.348  13.654  0.0654  0.0841 -0.0183
 2166W        W21700   7.860   1.097   0.731  0.1063 -0.3806 -0.1414
 2167W        W21701  17.696   9.684   2.106 -0.1160  0.0819 -0.0200
 2168W        W21702   9.280   7.740   0.725 -0.0041 -0.1596 -0.2115
 2169W        W21703  17.304   1.781  11.806  0.2223 -0.0287 -0.0893
 2170W        W21704  17.123  15.809  15.387 -0.1431 -0.1417  0.1404
 2171W        W21705   0.225  13.192  12.227 -0.1618  0.1250 -0.2463
 2172W        W21706   8.785  15.437  14.915  0.1075  0.2688 -0.0574
 2173W        W21707  17.733   1.341   2.509  0.0958  0.1796 -0.1524
 2174W        W21708   0.766   8.655  12.922  0.3031 -0.0972 -0.1148
 2175W        W21709   9.101   4.926   3.935 -0.0299 -0.0461 -0.0932
 2176W        W21710   3.655  15.628  12.783 -0.1722  0.0265  0.1843
 2177W        W21711  13.013   0.400  15.649 -0.0596  0.0081 -0.1484
 2178W        W21712   5.426   4.440   0.241  0.0162 -0.2818  0.4594
 2179W        W21713  14.210  10.567  14.089 -0.0211 -0.0002 -0.1988
 2180W        W21714   6.161   8.539  13.700  0.0567 -0.1152 -0.1406
 2181W        W21715   3.002   3.697   0.770 -0.0975 -0.0826  0.0480
 2182W        W21716   3.349   0.733   1.550  0.2444  0.2069  0.1100
 2183W        W21717   0.017  10.484  15.312 -0.0500 -0.1458 -0.1208
 2184W        W21718   8.516   8.325   0.338  0.0746  0.1969  0.0921
 2185W        W21719  16.099   2.959   1.103  0.1578 -0.0957  0.0774
 2186W        W21720   0.018  10.482  11.602 -0.1724 -0.0967 -0.4433
 2187W        W21721  16.537  15.155   3.257 -0.1090 -0.0014  0.1426
 2188W        W21722   7.464   8.237   1.136  0.0999 -0.6544  0.0861
 2189W        W21723   7.114   8.294  13.008  0.1875  0.1272 -0.2184
 2190W        W21724   2.774  14.976  13.926  0.0485  0.0433  0.0131
 2191W        W21725   0.661   7.405  13.491 -0.0903 -0.2995  0.3552
 2192W        W21726  16.787   2.720  12.996 -0.0181  0.1018  0.2064
 2193W        W21727  11.218  14.319  13.341 -0.2491  0.0454  0.1525
 2194W        W21728   9.173   2.143  13.251  0.2135 -0.0433 -0.0570
 2195W        W21729   7.744   5.340  11.484 -0.2750 -0.4126 -0.0322
 2196W        W21730   0.730   5.223  15.193  0.1897  0.1247 -0.2050
 2197W        W21731   5.395   2.359   2.136 -0.3856 -0.0615  0.1918
 2198W        W21732   3.745   5.510   0.244  0.2724 -0.1908  0.5234
 2199W        W21733   9.157  13.367   4.274  0.0160 -0.0786 -0.0920
 2200W        W21734   7.527  17.966  13.808 -0.0828 -0.1083 -0.1595
 2201W        W21735  14.688  11.378  11.494 -0.1288  0.2963  0.0365
 2202W        W21736  10.873  16.141  13.851 -0.0834  0.1258  0.0144
 2203W        W21737   9.824  17.817  14.491 -0.0604 -0.0176 -0.4312
 2204W        W21738   5.740   1.235  15.086  0.1149 -0.1295  0.0589
 2205W        W21739  15.852   9.367  15.761  0.0887  0.3170  0.3576
 2206W        W21740  14.789  12.216  14.690 -0.1334 -0.3415 -0.0337
 2207W        W21741   3.600   5.333  15.087  0.0047 -0.3715 -0.1144
 2208W        W21742  13.555  12.110  15.117  0.2520  0.0563 -0.0862
 2209W        W21743   7.992   8.065   2.727  0.0498 -0.2222 -0.2828
 2210W        W21744  16.910  12.932   0.994 -0.0540  0.2833 -0.1904
 2211W        W21745   9.585  11.850  12.335  0.0252 -0.1249  0.4285
 2212W        W21746   1.935   5.014  13.904  0.4122  0.0185 -0.1708
 2213W        W21747   5.570  18.160   0.267 -0.1256 -0.2700 -0.0770
 2214W        W21748   9.202   4.273  14.311 -0.1399  0.0956 -0.3938
 2215W        W21749  17.605  14.554  15.190 -0.4023 -0.1022  0.0896
 2216W        W21750  17.264  16.050   1.467  0.0598  0.2240 -0.2426
 2217W        W21751   5.347  15.995  15.196  0.2225 -0.1328 -0.1766
 2218W        W21752  11.552   6.491   3.682  0.0510 -0.2068 -0.3445
 2219W        W21753  11.683   4.175  15.118  0.0960 -0.0420  0.1567
 2220W        W21754   6.982   7.195  13.641 -0.4841  0.3722 -0.1083
 2221W        W21755  17.754   2.914  15.545  0.3802 -0.1149  0.1463
 2222W        W21756  14.431  10.264  12.650  0.0452  0.0556  0.0711
 2223W        W21757  12.838  10.562  13.744 -0.0579  0.0248  0.0955
 2224W        W21758  17.909   0.177   1.469  0.0117  0.2368  0.4111
 2225W        W21759   1.518  12.521  13.054  0.2736 -0.0018  0.1144
 2226W        W21760  17.579  12.850  14.762  0.1884 -0.0339 -0.0700
 2227W        W21761   2.965   8.940   4.043 -0.0489 -0.0631  0.1058
 2228W        W21762  17.450  16.006  15.775  0.2684  0.1534  0.3242
 2229W        W21763   2.332   9.100   3.060 -0.3034 -0.0250  0.4871
 2230W        W21764   7.734   9.181   1.397 -0.0138  0.0486  0.0185
 2231W        W21765  14.747   4.171  15.794  0.2522 -0.2339 -0.1264
 2232W        W21766  11.551  14.086  14.619  0.1432  0.3338  0.0158
 2233W        W21767  11.976   8.946   3.431  0.0665 -0.1162  0.1217
 2234W        W21768  14.915  14.311   0.633  0.0072 -0.1855 -0.0702
 2235W        W21769   7.113   8.686  11.834 -0.1945  0.0979 -0.0426
 2236W        W21770   3.086   8.805  14.568 -0.1555  0.1538  0.0687
 2237W        W21771   0.992   3.824   3.159  0.0159  0.3212  0.1923
 2238W        W21772  11.902  11.354  15.861 -0.2068  0.2932 -0.0923
 2239W        W21773   7.206   2.371   3.860 -0.1333  0.0749 -0.0017
 2240W        W21774   8.739   7.888   4.595 -0.1972  0.0078  0.0398
 2241W        W21775   8.695   9.733  11.953  0.1382  0.1113 -0.1330
 2242W        W21776  14.188  10.369  15.461  0.0534 -0.1160 -0.2226
 2243W        W21777   6.441   2.390   3.783 -0.2324  0.2230  0.3311
 2244W        W21778   5.061  12.013  12.798 -0.1281 -0.1916  0.2531
 2245W        W21779  12.824  15.970   1.537 -0.0473  0.0230 -0.0646
 2246W        W21780   2.388  13.514   4.376 -0.0674 -0.1512 -0.1391
 2247W        W21781  17.854  11.774  13.253  0.2405 -0.1563 -0.2127
 2248W        W21782   3.160   0.896   5.359  0.0955  0.1453 -0.2972
 2249W        W21783   8.057  13.820   1.424 -0.2999  0.1480  0.2552
 2250W        W21784  14.038  12.602  12.625 -0.2083 -0.0027  0.0324
 2251W        W21785   2.779  16.178   0.922  0.0262  0.0319  0.0560
 2252W        W21786   7.019  11.245   0.450  0.0587 -0.1189 -0.3510
 2253W        W21787  14.885   5.845   1.454 -0.1644  0.2013 -0.1334
 2254W        W21788   5.112  11.306  12.272  0.0074 -0.2450 -0.2046
 2255W        W21789  15.882   4.942  13.919 -0.2535 -0.0175  0.1580
 2256W        W21790  17.622  11.928   5.915 -0.0055 -0.1494 -0.0482
 2257W        W21791   7.193  10.463   3.521  0.2011 -0.0881  0.1545
 2258W        W21792   8.605  11.947   1.088  0.1594 -0.2713 -0.1373
 2259W        W21793  10.575   6.823  15.535  0.0397  0.3224 -0.2408
 2260W        W21794  16.121   9.892  13.929  0.2606 -0.1718  0.1508
 2261W        W21795  15.839   6.818  11.660  0.1272 -0.0924  0.3338
 2262W        W21796   8.063   8.814  11.756 -0.2109  0.0227 -0.3003
 2263W        W21797   6.316   2.287   1.863  0.0774  0.0469 -0.0515
 2264W        W21798   7.710  17.207  12.962  0.1007  0.2200  0.1778
 2265W        W21799  13.662  16.102   3.805  0.1025 -0.0856 -0.0074
 2266W        W21800   5.296  12.548   3.907 -0.1654  0.1085 -0.3177
 2267W        W21801   3.353  16.004   3.371 -0.0990  0.1058 -0.0070
 2268W        W21802  17.769  10.510   2.412  0.0852 -0.1628 -0.0692
 2269W        W21803  13.441   3.810  12.083  0.0464  0.1558  0.2152
 2270W        W21804   9.024  10.982   2.979  0.0417 -0.2108 -0.0457
 2271W        W21805  16.559  10.897  12.963  0.1027  0.1863 -0.2239
 2272W        W21806   2.605  17.373   0.628  0.1596 -0.1347  0.1156
 2273W        W21807   6.883  16.950   3.133 -0.1500 -0.0529 -0.1262
 2274W        W21808  12.762  11.300  13.469 -0.1592  0.0741  0.0291
 2275W        W21809   3.196   3.122   2.854  0.0506  0.0394 -0.0239
 2276W        W21810  13.719   4.858  12.966  0.0767 -0.0303  0.0773
 2277W        W21811  14.991  11.035  13.536 -0.0216 -0.2373 -0.0577
 2278W        W21812   3.032   8.260   0.973  0.1681 -0.3704  0.2357
 2279W        W21813  17.817   4.364  11.489  0.1004 -0.3449 -0.1575
 2280W        W21814   5.972  12.919   0.374 -0.3001  0.1976 -0.0837
 2281W        W21815   3.077  14.119   0.123  0.0615 -0.2491  0.1493
 2282W        W21816   5.650   0.880   2.305  0.1813  0.0125 -0.0269
 2283W        W21817  13.607   3.562   4.226  0.1047 -0.2539  0.0241
 2284W        W21818  10.067  10.447   4.505 -0.2677  0.2858 -0.0731
 2285W        W21819   7.929  10.125   4.126 -0.0409  0.3884  0.2817
 2286W        W21820   3.534  15.979  12.305 -0.1167  0.0573 -0.0680
 2287W        W21821   7.340   1.695   2.491  0.2977  0.0319  0.1510
 2288W        W21822   6.858   1.046  14.375 -0.0848 -0.0455  0.0754
 2289W        W21823   2.596   9.648  10.965 -0.0634  0.0610  0.1641
 2290W        W21824   8.251  15.450   2.938  0.0389  0.0749 -0.1521
 2291W        W21825   4.299   7.322   2.769 -0.2250 -0.1157  0.1305
 2292W        W21826  12.769   5.668  15.290  0.1067  0.0659 -0.1487
 2293W        W21827   1.461   8.326  12.992  0.1399  0.2643  0.2220
 2294W        W21828   7.746   7.423   4.433 -0.2670  0.0438  0.1044
 2295W        W21829   0.198  15.967  12.577 -0.0029  0.2805  0.1459
 2296W        W21830   9.843  13.827   3.769 -0.0069  0.2817  0.1064
 2297W        W21831  18.157   1.117   0.867 -0.1705 -0.2206 -0.1823
 2298W        W21832  10.043  18.011   4.754 -0.1836 -0.0113 -0.1987
 2299W        W21833  14.252  14.040   1.414 -0.0878 -0.0573 -0.1496
 2300W        W21834   2.614   6.989  15.581 -0.2141 -0.0089 -0.1532
 2301W        W21835   2.283   9.840  15.270  0.0577  0.0057  0.0111
 2302W        W21836   0.347  13.378   1.063 -0.0512  0.1253 -0.0653
 2303W        W21837   5.859  11.880   0.187  0.0935 -0.1973 -0.0563
 2304W        W21838  11.142   3.489  13.292 -0.0114  0.0270  0.3099
 2305W        W21839  17.170   7.595   5.408 -0.0481 -0.0474  0.0224
 2306W        W21840   4.877  17.349   4.271  0.1505  0.0900 -0.0368
 2307W        W21841   8.740  13.714  14.020 -0.2684  0.3041  0.0138
 2308W        W21842   5.231  16.911  13.162  0.1505  0.1253  0.0405
 2309W        W21843   7.530  15.363   4.300  0.2109  0.0690 -0.1122
 2310W        W21844   4.266  16.086  14.278  0.0760 -0.0131 -0.1690
 2311W        W21845   5.115   1.175  15.162 -0.0413 -0.1933 -0.0321
 2312W        W21846   4.838  14.319   2.553 -0.0530 -0.1673  0.0008
 2313W        W21847   0.487  11.880   3.723  0.0118  0.1598  0.1722
 2314W        W21848  14.247  15.806   5.035  0.1449 -0.2640 -0.0762
 2315W        W21849  10.996   9.899   3.257  0.0160  0.3273  0.0788
 2316W        W21850  13.026   7.082  14.848 -0.0602  0.6485  0.3280
 2317W        W21851   9.196  15.968  13.661  0.3391  0.0139  0.2018
 2318W        W21852   4.018  11.741   4.327 -0.0017  0.0770 -0.1180
 2319W        W21853   4.534  17.426   1.109 -0.0385 -0.0281 -0.2245
 2320W        W21854   3.749   8.051  12.876  0.2935 -0.3224  0.0564
 2321W        W21855  13.785   7.382   0.810 -0.2079  0.0338  0.1440
 2322W        W21856  14.230   0.591   1.616  0.0658 -0.2237 -0.0484
 2323W        W21857   5.313  11.092   1.592  0.0341 -0.2933  0.0080
 2324W        W21858   3.632   4.163   3.759 -0.0786 -0.0940  0.0828
 2325W        W21859   7.281  15.359  14.421  0.0461 -0.1115 -0.0683
 2326W        W21860   7.014   1.138   1.130  0.2151  0.2915 -0.1461
 2327W        W21861  16.554  13.011   2.856 -0.0754 -0.3464 -0.1239
 2328W        W21862   8.592  11.104   4.104  0.1573 -0.3240 -0.0572
 2329W        W21863   4.744   0.571  13.453 -0.0302  0.0832  0.1853
 2330W        W21864  10.922  13.783   0.484  0.0270  0.2314  0.0679
 2331W        W21865  18.146  13.668   2.231 -0.2122 -0.1210 -0.1847
 2332W        W21866  16.701  14.073   2.738  0.2794 -0.0367  0.3655
 2333W        W21867   3.735  12.931  12.629  0.0012  0.1772 -0.2073
 2334W        W21868  11.714   8.473   2.663  0.0949 -0.2342  0.1948
 2335W        W21869   8.956  13.479   2.937 -0.2032 -0.1578 -0.4186
 2336W        W21870   4.493  12.064   1.064 -0.0131 -0.0842 -0.4756
 2337W        W21871  14.787  11.569   4.635  0.2965  0.0577  0.3541
 2338W        W21872   8.954  16.904  14.783 -0.0963  0.2453 -0.1023
 2339W        W21873   5.695  11.302   3.392  0.0332  0.0836  0.1382
 2340W        W21874  14.740   1.280   3.056  0.0657  0.0176  0.3817
 2341W        W21875  16.859   1.953   0.484 -0.2458  0.2672  0.1106
 2342W        W21876  12.870   5.637   5.152  0.0329 -0.0921  0.1927
 2343W        W21877   1.320   4.122  11.798  0.2274  0.0417  0.2934
 2344W        W21878   0.175   4.152   3.213  0.0509  0.1796 -0.2339
 2345W        W21879   2.359   4.002  12.810  0.2480  0.1580 -0.0393
 2346W        W21880   0.010   3.442  11.470 -0.1986 -0.0992 -0.2765
 2347W        W21881  13.584  12.445   0.013 -0.0654  0.0401 -0.1943
 2348W        W21882  11.921   4.553  15.525  0.1617 -0.2923  0.0519
 2349W        W21883  15.443  11.236   1.944 -0.1027  0.1374  0.0082
 2350W        W21884   7.090   2.718  14.486 -0.1312 -0.2255  0.0030
 2351W        W21885   6.442  18.121   4.122 -0.1632  0.0908  0.0260
 2352W        W21886   3.108   7.277  12.067 -0.3474  0.3013 -0.1180
 2353W        W21887   7.820   1.448   0.321  0.0706  0.3791 -0.2254
 2354W        W21888   8.938   7.613  12.525  0.0395 -0.0774  0.2342
 2355W        W21889  15.200   2.025   2.009 -0.1624  0.2531  0.0727
 2356W        W21890   5.219  12.621  13.682  0.1761 -0.2593 -0.0906
 2357W        W21891   2.549  17.689   3.234  0.2567 -0.3203 -0.0263
 2358W        W21892   4.748  10.946   1.742 -0.1750 -0.0551  0.1656
 2359W        W21893  17.507  16.028   3.076  0.0928  0.3837  0.2426
 2360W        W21894   4.097  14.740   0.712 -0.2704  0.2281 -0.2579
 2361W        W21895   0.435   2.534  13.639 -0.2450  0.1251  0.2680
 2362W        W21896  15.201  17.238   1.217  0.0460 -0.0226 -0.0374
 2363W        W21897  12.710   9.850  12.446 -0.1630 -0.1334  0.1028
 2364W        W21898  17.240   0.878   1.213 -0.2408 -0.0235  0.1989
 2365W        W21899  16.203  14.902  16.002  0.0345 -0.1486 -0.2192
 2366W        W21900   0.235   5.315   3.540 -0.2516 -0.1019 -0.0204
 2367W        W21901  15.829   6.569  13.571  0.1376  0.0153  0.2892
 2368W        W21902  10.600  10.601   4.609  0.2042 -0.0955  0.0248
 2369W        W21903   6.874   8.630   4.426  0.1681  0.1280 -0.0044
 2370W        W21904   7.212  16.333  11.361 -0.0763 -0.1072  0.0281
 2371W        W21905   8.536   5.645  14.137 -0.2130  0.0161  0.1909
 2372W        W21906   1.524   7.330  13.452  0.0255 -0.1771  0.1130
 2373W        W21907   7.764   8.839  15.668 -0.1090 -0.0463 -0.0301
 2374W        W21908   2.683  13.952   4.351 -0.0267 -0.0867  0.0488
 2375W        W21909   6.415   8.556  14.581 -0.0282  0.1439 -0.0148
 2376W        W21910  17.081  17.845  15.688 -0.4098 -0.3080 -0.0278
 2377W        W21911   3.337  16.397  13.226  0.3928  0.0699 -0.0889
 2378W        W21912   9.500  14.415  12.885  0.1629 -0.2315 -0.2799
 2379W        W21913   8.675   7.894   3.699 -0.4072  0.2451  0.0375
 2380W        W21914   8.506   5.629  15.585 -0.3155 -0.1788  0.1922
 2381W        W21915   6.813   8.588   3.168 -0.1864  0.1570  0.4819
 2382W        W21916  12.312  17.694   2.952  0.1171  0.0004 -0.1824
 2383W        W21917  16.770  16.462  11.896 -0.2635  0.2516  0.2591
 2384W        W21918  10.869  12.438  11.424  0.0214 -0.1043  0.1933
 2385W        W21919  14.715  14.799   1.134 -0.3063 -0.2496  0.0053
 2386W        W21920  14.643  11.790  11.795 -0.0642 -0.1863 -0.2597
 2387W        W21921   2.066  16.600   1.128 -0.1488  0.0310  0.1058
 2388W        W21922  14.430   8.123   1.795  0.2248 -0.2894  0.3410
 2389W        W21923   6.424   5.063  11.398  0.1200  0.0680  0.2425
 2390W        W21924  14.835   4.074  12.781  0.2838  0.0895  0.2980
 2391W        W21925  10.745   9.449   3.950 -0.0341  0.1555  0.1746
 2392W        W21926   8.458  15.643   1.972 -0.3079  0.2902  0.2511
 2393W        W21927  10.317   7.128   3.123 -0.0861 -0.1117  0.0357
 2394W        W21928  10.471   3.733   0.776 -0.2310  0.1050 -0.1000
 2395W        W21929  14.874   7.413   2.903  0.0049  0.3728 -0.1418
 2396W        W21930  16.904   9.941   3.701 -0.0550  0.1358 -0.2163
 2397W        W21931   5.385   7.485  13.558 -0.0229 -0.4285  0.1365
 2398W        W21932   4.616  15.685   5.050  0.2722  0.0595 -0.0278
 2399W        W21933   9.315   2.792  13.969  0.0837  0.1667 -0.2253
 2400W        W21934   0.066  15.090  12.537  0.1271 -0.1320  0.0426
 2401W        W21935   8.610  13.760   1.357  0.1623 -0.0665  0.0050
 2402W        W21936   3.576  16.878  11.072  0.2704  0.1156 -0.1390
 2403W        W21937  14.507  17.247   0.934 -0.0108 -0.1214 -0.1033
 2404W        W21938   1.591   0.829   0.569  0.2907 -0.1116 -0.1159
 2405W        W21939  10.950   8.010   2.007  0.1278 -0.0399  0.0439
 2406W        W21940   2.638   5.132  15.291 -0.2958 -0.5384  0.0365
 2407W        W21941  11.429  10.655   0.921  0.2973 -0.0481 -0.0688
 2408W        W21942  11.950   5.434  14.114  0.0825 -0.1445  0.0238
 2409W        W21943  13.669   8.492  14.987 -0.3315 -0.1841  0.0902
 2410W        W21944   1.436   9.958   4.283 -0.1122  0.0400  0.1085
 2411W        W21945  12.603  15.957   2.755 -0.0775  0.3041 -0.0449
 2412W        W21946   2.360   5.014   1.194  0.3557 -0.0710  0.1944
 2413W        W21947  13.969   6.507   2.790 -0.3460 -0.1351 -0.0527
 2414W        W21948   0.076  15.170  14.414 -0.4027 -0.0235 -0.1244
 2415W        W21949  11.248  16.041  14.360  0.1088 -0.1426 -0.1493
 2416W        W21950   2.586  11.597  14.330 -0.0102 -0.0236  0.1356
 2417W        W21951  15.678   9.590   2.709 -0.2384 -0.1403  0.1674
 2418W        W21952  11.380   3.063  12.565 -0.0982 -0.1262  0.1363
 2419W        W21953  14.972   0.537   2.325 -0.0891 -0.1260 -0.0098
 2420W        W21954  13.298   3.732   3.788  0.1634 -0.1661 -0.0234
 2421W        W21955  17.161  16.324  13.182 -0.1210  0.0654  0.0192
 2422W        W21956   1.711   5.406   2.510 -0.3055  0.1555 -0.3864
 2423W        W21957   6.056   8.793  14.200  0.1136  0.0947  0.1983
 2424W        W21958  15.336   3.701   4.666  0.1282 -0.2513 -0.2841
 2425W        W21959   1.570   3.515  12.932 -0.0430 -0.0100  0.3313
 2426W        W21960   2.211   8.320   2.200 -0.2727  0.0294 -0.4022
 2427W        W21961   6.601  12.255  15.399 -0.1159 -0.0554  0.2414
 2428W        W21962   7.972   0.333   3.284 -0.1987 -0.1813  0.0608
 2429W        W21963   4.436  16.919  15.984 -0.1760  0.3159 -0.3466
 2430W        W21964   4.902   5.353  12.036  0.1412 -0.0861 -0.0876
 2431W        W21965   0.307  11.053  13.057  0.0186 -0.1142 -0.1950
 2432W        W21966   8.018   8.186   3.862 -0.1030  0.1655 -0.1275
 2433W        W21967  18.076  16.415   1.866  0.0772  0.1228 -0.1753
 2434W        W21968  15.461   6.680  15.736  0.1482 -0.1175 -0.2274
 2435W        W21969   0.741   4.907   0.416  0.3363 -0.1461  0.0077
 2436W        W21970   2.061   4.854  14.802 -0.1064  0.3113  0.2090
 2437W        W21971  14.881   2.910   4.188  0.2893 -0.0737  0.0163
 2438W        W21972   4.404   0.662   4.002  0.1136 -0.0336  0.0760
 2439W        W21973   6.678   5.661  12.013  0.0218 -0.1199  0.0825
 2440W        W21974   4.738  14.571   0.835 -0.1999 -0.0468  0.1490
 2441W        W21975   7.626  15.793   2.023  0.1834  0.1721  0.0801
 2442W        W21976  17.883   9.942  13.201 -0.0636 -0.0052 -0.1542
 2443W        W21977  14.850   6.170   3.729  0.1570  0.1890  0.0897
 2444W        W21978   9.341   8.415   2.679  0.0521  0.2972 -0.1224
 2445W        W21979   9.572  13.765  14.599 -0.1485  0.0539 -0.0948
 2446W        W21980   4.229  15.168  11.952  0.0606 -0.1881 -0.2343
 2447W        W21981   3.498   1.870  13.254  0.1193  0.0272 -0.0916
 2448W        W21982  16.603   3.337  15.700 -0.2012  0.0619 -0.1682
 2449W        W21983   1.743   2.023   3.781 -0.0098 -0.0383  0.1708
 2450W        W21984  15.960  14.104   5.719 -0.0510  0.0983 -0.3695
 2451W        W21985   9.961  16.779   1.463 -0.0097  0.3133  0.3198
 2452W        W21986   4.607  17.379   3.854 -0.3132 -0.1952 -0.1043
 2453W        W21987   5.665  12.947   5.718 -0.1143  0.0520 -0.0766
 2454W        W21988   3.155   6.362  11.724  0.3629 -0.0764  0.1808
 2455W        W21989   6.096  11.558   1.111  0.0455  0.1695  0.0057
 2456W        W21990   4.532   0.013  12.928 -0.2995 -0.1590 -0.1303
 2457W        W21991   2.894   4.937   1.140  0.0712 -0.1118  0.0741
 2458W        W21992   3.234   2.340  14.579  0.0182 -0.3863  0.0582
 2459W        W21993   7.774   7.728  11.640  0.0098 -0.1575  0.1211
 2460W        W21994   3.498  13.820   3.892 -0.1204 -0.1850 -0.1006
 2461W        W21995  10.397   1.794  15.022 -0.1490  0.1188 -0.1048
 2462W        W21996   6.816  11.554  13.919  0.1026 -0.0307  0.0587
 2463W        W21997  15.436   5.604  12.139 -0.0250 -0.0514 -0.3450
 2464W        W21998  12.931   7.619   1.381 -0.2198  0.0587  0.1416
 2465W        W21999   7.323   1.670   3.106  0.3557 -0.2255  0.1628
 2466W        W22000  13.913   8.487   5.770  0.1064 -0.0592 -0.2527
 2467W        W22001   1.532   7.579  14.261  0.0347  0.0184  0.0841
 2468W        W22002  11.227   4.909  11.173  0.2070 -0.2470 -0.2273
 2469W        W22003  10.909   4.838  13.347 -0.0140 -0.1520  0.0233
 2470W        W22004   1.812   8.473  14.715  0.2426 -0.0314  0.3797
 2471W        W22005  12.581  11.066   3.522 -0.2568 -0.0597 -0.5213
 2472W        W22006   1.634  15.681   4.388  0.3381  0.2789 -0.1139
 2473W        W22007  10.634  15.031  11.238 -0.1227 -0.0754  0.1717
 2474W        W22008  13.498  16.505  11.921 -0.1301  0.0179 -0.1621
 2475W        W22009   5.340   2.640  12.355  0.2978 -0.0714 -0.0798
 2476W        W22010  11.125  10.030  15.069 -0.0460  0.2770 -0.0442
 2477W        W22011  10.669  12.036  14.336 -0.0994  0.1148 -0.0982
 2478W        W22012  16.777  14.196  13.848 -0.1498 -0.2551  0.2335
 2479W        W22013  10.220   2.418  14.622  0.1683 -0.1877 -0.1454
 2480W        W22014   3.893  17.944   3.229  0.0676  0.2677  0.1982
 2481W        W22015  14.419  12.366   2.664 -0.0074  0.0391 -0.0164
 2482W        W22016   7.446   6.223   0.029  0.1577  0.2795 -0.0458
 2483W        W22017  17.988  12.580   4.490  0.0786  0.1330 -0.0438
 2484W        W22018   3.760  14.557  14.819  0.1090 -0.1213  0.2745
 2485W        W22019  18.092   6.644   4.362 -0.0083  0.2667 -0.0251
 2486W        W22020   4.794  15.199  12.548  0.1742  0.0170 -0.0640
 2487W        W22021  11.230   8.464   2.921 -0.1379  0.1358  0.1634
 2488W        W22022   3.883  14.394   2.167 -0.0395 -0.0431 -0.2510
 2489W        W22023  16.555  15.902   2.830  0.1972  0.0313 -0.1925
 2490W        W22024   3.048   0.657  14.927 -0.1480  0.0285 -0.0952
 2491W        W22025  12.357   1.725   4.587  0.0135  0.1674  0.0420
 2492W        W22026   5.559   6.358   2.461  0.0999 -0.0011  0.0753
 2493W        W22027   7.016   0.062   0.238  0.0354 -0.0986 -0.2807
 2494W        W22028   2.557  17.287  12.396 -0.0566 -0.0416  0.0947
 2495W        W22029   1.687   2.305   2.470  0.1226 -0.1945  0.2752
 2496W        W22030  13.364  12.275  14.266  0.1291 -0.2161  0.3299
 2497W        W22031   0.894   8.089  13.874 -0.2195  0.0545 -0.0001
 2498W        W22032   0.373  16.682   4.612  0.0987 -0.1376 -0.1248
 2499W        W22033  13.847   0.770  13.977 -0.1774  0.1296  0.0249
 2500W        W22034   1.205   5.960  13.473  0.0010 -0.3335  0.1402
 2501W        W22035  15.107  15.715   3.460  0.0158 -0.2629 -0.2176
 2502W        W22036   5.202   6.717  13.968 -0.1322  0.0979  0.0812
 2503W        W22037   1.446  13.163  11.589  0.0887 -0.1416  0.0230
 2504W        W22038   9.372   8.906   0.444 -0.1634 -0.4075 -0.1726
 2505W        W22039   0.984   3.168   1.266 -0.0555  0.1096  0.0934
 2506W        W22040   9.950   0.388  15.984 -0.0840 -0.0497  0.1461
 2507W        W22041   0.861   3.516  11.651  0.1749 -0.0757  0.0750
 2508W        W22042  17.576   8.825  15.599  0.1466  0.0318  0.0655
 2509W        W22043   2.622   5.543  13.869 -0.0062 -0.0746 -0.2127
 2510W        W22044  15.894  17.893   0.658 -0.2700 -0.0166 -0.1591
 2511W        W22045  14.543  13.783   4.676 -0.0371  0.1678  0.0903
 2512W        W22046   6.170   0.555   2.771  0.0539 -0.2746 -0.0961
 2513W        W22047   8.751   1.709  14.279 -0.0472 -0.2856  0.1103
 2514W        W22048   4.246  14.157  15.573 -0.0209 -0.2302  0.1463
 2515W        W22049  11.007  16.311   1.143  0.1550  0.2012 -0.1736
 2516W        W22050   0.092   8.636  12.331 -0.1412 -0.0444  0.0812
 2517W        W22051  13.874   2.925   1.643  0.1374  0.0320 -0.2309
 2518W        W22052   0.252   1.182   4.340  0.0126 -0.1841 -0.0619
 2519W        W22053   0.896  17.781  12.380  0.1224  0.2051 -0.3825
 2520W        W22054   0.894  11.745   2.771 -0.2285 -0.0026  0.1927
 2521W        W22055   1.691   3.106  12.591  0.2089  0.1587  0.0818
 2522W        W22056  14.499   7.452   3.982 -0.0544  0.2644  0.0141
 2523W        W22057  18.055   3.774   2.501  0.2633  0.1986  0.0412
 2524W        W22058  17.111   1.649   2.271  0.1285 -0.1500 -0.1489
 2525W        W22059   8.014   2.625  14.534  0.0987  0.1372  0.1445
 2526W        W22060   2.449  16.060  12.087  0.0675  0.1001 -0.0442
 2527W        W22061  10.646  11.221   2.507 -0.0170 -0.3410  0.0344
 2528W        W22062   1.795   3.003   3.718  0.1825  0.3959 -0.3632
 2529W        W22063  13.867  10.507   0.816 -0.2798  0.3606 -0.3564
 2530W        W22064   8.336  12.124   4.271 -0.0255 -0.0315 -0.1235
 2531W        W22065  15.674  16.264   4.458  0.1593  0.0533  0.1432
 2532W        W22066  16.812   3.505   2.226  0.0888  0.1043  0.1074
 2533W        W22067  16.377  14.755  15.246 -0.1756  0.2782  0.3362
 2534W        W22068   6.644   8.040   4.429  0.0275  0.0742  0.3387
 2535W        W22069   2.623  17.922  15.733  0.0681  0.1505  0.0714
 2536W        W22070   2.327  12.684   4.387 -0.1622  0.0192 -0.2002
 2537W        W22071  16.336   1.193  15.175  0.0586  0.0830 -0.2672
 2538W        W22072  12.071   3.362  13.237 -0.0631  0.0377  0.0029
 2539W        W22073   1.860   0.348   1.273  0.1554 -0.0972  0.1718
 2540W        W22074  10.891   5.458  12.627 -0.0473 -0.1388 -0.1917
 2541W        W22075   2.429   7.991  14.191 -0.0200 -0.0604  0.0789
 2542W        W22076   5.705   7.389  13.119  0.1244  0.2400 -0.1894
 2543W        W22077   0.028   4.350   0.739 -0.4777 -0.1772  0.0839
 2544W        W22078   6.082  15.401  11.843 -0.0295 -0.2119 -0.1509
 2545W        W22079   3.322  17.208   4.337  0.0117  0.3132  0.0294
 2546W        W22080   9.154  10.748  15.074  0.0409  0.0079 -0.2212
 2547W        W22081  10.915  15.184  12.837 -0.1465  0.3155  0.4766
 2548W        W22082   4.258   8.320  12.947 -0.0477  0.6052  0.4006
 2549W        W22083  11.298  14.345  11.809  0.2986 -0.2403  0.1757
 2550W        W22084   9.421  13.207   1.492 -0.3220 -0.0652  0.1599
 2551W        W22085   2.337  15.479  15.456 -0.0362  0.1061 -0.0187
 2552W        W22086  13.205  16.203   1.990  0.4515 -0.0827  0.1470
 2553W        W22087   4.177  17.263   0.179  0.2601 -0.1642 -0.0967
 2554W        W22088   6.685  17.135   4.075  0.0082 -0.0566 -0.5849
 2555W        W22089  16.050   1.513   0.655 -0.1460  0.0417  0.0665
 2556W        W22090  10.627   9.532   3.087  0.0378  0.2263  0.2448
 2557W        W22091   3.861   2.368   1.221 -0.1746 -0.0625  0.1027
 2558W        W22092  11.040   4.355   3.701 -0.0023  0.0595  0.2571
 2559W        W22093   9.920   3.711  11.613 -0.2842 -0.0707  0.0050
 2560W        W22094   9.565   6.972   3.457 -0.1412 -0.0566  0.0415
 2561W        W22095   5.732   9.938   1.490  0.1580 -0.1013 -0.2712
 2562W        W22096   5.275  16.529   0.039  0.0072  0.0898 -0.0278
 2563W        W22097   5.676  18.007   3.341  0.0119 -0.1280 -0.0038
 2564W        W22098   2.048  13.141   4.316 -0.0574  0.0403  0.1378
 2565W        W22099   0.636   1.318   1.353  0.0682 -0.0313 -0.0486
 2566W        W22100  11.080  12.298  15.789 -0.0727 -0.2843  0.1913
 2567W        W22101  13.070  14.307   4.634  0.4358  0.2967  0.1765
 2568W        W22102  17.690   3.843  15.464 -0.1080 -0.0928  0.3090
 2569W        W22103  17.729   0.054  15.377 -0.0466 -0.0436 -0.3748
 2570W        W22104   1.100   9.038   4.237 -0.0572  0.0953 -0.1328
 2571W        W22105   3.072   5.763  11.152  0.1474  0.2488  0.1128
 2572W        W22106   7.160  15.559   4.631 -0.0300  0.0941  0.0092
 2573W        W22107   1.956  10.803  15.234 -0.0066 -0.0477  0.1207
 2574W        W22108  13.831   5.154   4.146  0.0737  0.0347 -0.0112
 2575W        W22109  14.740  16.718  12.181  0.1123  0.1172 -0.2318
 2576W        W22110   3.518   4.480   1.223  0.0672 -0.0447 -0.0616
 2577W        W22111  17.365   2.895   4.100 -0.0872  0.3820 -0.1266
 2578W        W22112  16.336  15.525   4.086 -0.0578  0.1323 -0.2134
 2579W        W22113  16.000   5.473   4.993  0.2963 -0.3227 -0.2214
 2580W        W22114   6.579   7.862  12.014  0.2114  0.1539  0.4122
 2581W        W22115  13.694   1.323  10.747 -0.1206  0.0351 -0.0510
 2582W        W22116   6.222   4.260  11.312  0.1412  0.2133 -0.0060
 2583W        W22117   2.355  16.401  14.184  0.1454 -0.1374  0.0511
 2584W        W22118  13.569   2.067  15.181  0.1404  0.0582 -0.1542
 2585W        W22119   2.942   5.304  15.770 -0.0133 -0.0259 -0.0852
 2586W        W22120   0.799  11.814  16.046  0.2091 -0.0325 -0.0015
 2587W        W22121   2.739   6.613  11.521 -0.1345 -0.2555  0.0306
 2588W        W22122   0.508  13.193  11.684  0.1113 -0.2268  0.1319
 2589W        W22123   2.079  14.854   0.033  0.1818  0.0013  0.3777
 2590W        W22124   7.853  15.991   0.119  0.1486 -0.0676 -0.0009
 2591W        W22125   1.324   8.227   3.267  0.0571  0.0055 -0.1430
 2592W        W22126  13.840  13.591   2.565  0.2769 -0.1831  0.0253
 2593W        W22127   2.858  16.661  15.443  0.2529 -0.1071 -0.0269
 2594W        W22128  15.693  10.744   0.730  0.1355 -0.1886  0.1455
 2595W        W22129   6.981   2.004  12.361 -0.2677  0.1116 -0.1631
 2596W        W22130  15.786   2.114  11.503 -0.0442  0.0827 -0.1376
 2597W        W22131   6.212   7.823  14.159  0.0116 -0.0090 -0.3307
 2598W        W22132  17.958  16.198  13.504  0.0043 -0.1051 -0.2545
 2599W        W22133   7.274   6.122  13.372 -0.3240  0.2027  0.2159
 2600W        W22134   6.803  12.622  13.123 -0.1225  0.1769 -0.2326
 2601W        W22135  10.090  15.872  12.833  0.0758  0.0104  0.0718
 2602W        W22136  15.058  13.046  13.921 -0.1010  0.4402  0.1791
 2603W        W22137   8.115  12.897  13.998 -0.0809 -0.1458  0.2238
 2604W        W22138   0.491   6.948   1.184  0.0690 -0.0652  0.0486
 2605W        W22139   1.708   8.354   3.523 -0.1513  0.0705  0.0659
 2606W        W22140  16.179  15.547   5.540  0.0464  0.2065 -0.0528
 2607W        W22141  16.528   2.975   2.314 -0.2944 -0.1524  0.0749
 2608W        W22142   4.095  12.655   0.721  0.2396  0.2645  0.0686
 2609W        W22143  15.617   5.032   2.061  0.2819  0.4393  0.1389
 2610W        W22144   2.552   7.485  13.700  0.1155  0.1220 -0.3696
 2611W        W22145   1.435   2.565   1.652  0.1057  0.1784 -0.0290
 2612W        W22146  17.409  11.702  11.615 -0.1222 -0.1100  0.2288
 2613W        W22147  12.765   4.633  15.543 -0.2705 -0.0437  0.1223
 2614W        W22148   9.312  17.320   4.037  0.3422 -0.0313  0.0538
 2615W        W22149   9.455   1.579   4.631  0.1645 -0.0489  0.1037
 2616W        W22150   7.384   2.868  12.012 -0.0840  0.0185  0.1661
 2617W        W22151   7.080  15.820   0.806  0.0138 -0.0561  0.2937
 2618W        W22152   0.713  16.252   3.444  0.1802  0.0977  0.1315
 2619W        W22153  14.770   6.190  14.093 -0.0325  0.1055 -0.1917
 2620W        W22154  15.795  12.922   2.446 -0.1301  0.4263  0.0649
 2621W        W22155   3.829   1.604   2.746 -0.2159 -0.2734  0.0822
 2622W        W22156  12.122  16.346  12.147 -0.2587  0.0934 -0.0721
 2623W        W22157  15.587   2.542  13.068  0.0073  0.2551 -0.1394
 2624W        W22158   6.164   2.580  11.269 -0.0074 -0.1153 -0.2119
 2625W        W22159  14.049   5.499  13.600 -0.0776 -0.4614 -0.2297
 2626W        W22160  12.640   4.499  14.924 -0.1030  0.1217  0.2688
 2627W        W22161   2.710   2.100  11.632  0.0925  0.4510  0.0387
 2628W        W22162  13.798  16.965   2.510  0.0140  0.3619  0.2750
 2629W        W22163  13.091   5.783   0.189  0.2493 -0.0617  0.0206
 2630W        W22164   6.221  16.042  15.645  0.2509  0.0190  0.0642
 2631W        W22165  16.725  16.959   2.191 -0.2085  0.1981 -0.1129
 2632W        W22166   6.617   2.437  13.516  0.0888 -0.0700  0.0122
 2633W        W22167   6.532  10.701   4.191 -0.1059  0.2434  0.0395
 2634W        W22168   2.794  12.666  11.547  0.2102 -0.0688  0.0644
 2635W        W22169  16.041   9.164  12.329  0.0945 -0.3278 -0.4249
 2636W        W22170   6.426   9.872   0.137  0.0111  0.2396  0.3223
 2637W        W22171   4.439   1.319   1.854 -0.3381 -0.0598 -0.0434
 2638W        W22172  14.447  16.125   0.806  0.1416 -0.1912 -0.1948
 2639W        W22173   9.854  15.330   2.208 -0.2364  0.0504 -0.4500
 2640W        W22174  11.675  18.158  14.547  0.0747 -0.1513  0.0899
 2641W        W22175  15.583   6.208   0.213 -0.0247  0.0057  0.2078
 2642W        W22176   8.680   0.452  13.848 -0.0363  0.1792 -0.2906
 2643W        W22177  12.144  11.986  12.786  0.0318 -0.1531  0.1387
 2644W        W22178  13.434  14.271   1.788 -0.0095  0.2039 -0.4295
 2645W        W22179   1.567  10.042  12.363 -0.2331  0.2799 -0.3546
 2646W        W22180  15.417  14.825   1.856  0.3207 -0.2153 -0.0486
 2647W        W22181   6.142  12.385   2.786  0.2275  0.1942  0.1675
 2648W        W22182   7.032   8.233   4.179  0.0105 -0.0505 -0.2000
 2649W        W22183  13.973   7.041   0.315  0.1249  0.1090 -0.1400
 2650W        W22184  13.398  13.126  11.775 -0.0587 -0.1904  0.0931
 2651W        W22185  17.108  17.747   2.347 -0.0222  0.0571 -0.1177
 2652W        W22186   1.852   2.074   1.013 -0.3085  0.1560 -0.0100
 2653W        W22187   1.895  14.007  12.933  0.0333  0.0798  0.1687
 2654W        W22188   2.620  14.100   0.290  0.0872 -0.1806 -0.1491
 2655W        W22189  15.523   6.174  13.345 -0.1142  0.1824 -0.0426
 2656W        W22190  17.731   8.402   0.486  0.0760 -0.2044 -0.1819
 2657W        W22191   1.182  14.529   3.554 -0.0012 -0.0849  0.1352
 2658W        W22192   5.450   9.416  11.920  0.1473  0.1946  0.2057
 2659W        W22193  17.205   5.547   0.585  0.1408  0.2106  0.2486
 2660W        W22194  14.103  13.966  14.746  0.0401  0.0399 -0.3156
 2661W        W22195  15.093  10.494  15.702  0.1403 -0.1462  0.0611
 2662W        W22196   5.115  10.202  14.774 -0.1691  0.2319 -0.2250
 2663W        W22197  18.142   7.801   1.039 -0.4030  0.1273 -0.1023
 2664W        W22198   4.847  15.493   2.658  0.0038 -0.1182 -0.0836
 2665W        W22199  13.608  11.196  15.541  0.1325 -0.1281 -0.1634
 2666W        W22200   2.651   2.979   3.674  0.0082  0.0696  0.0441
 2667W        W22201   3.794   8.843  11.412  0.0820 -0.3060  0.1902
 2668W        W22202  13.403  14.006   4.306 -0.2275  0.0940 -0.1765
 2669W        W22203   0.833   0.574  16.020  0.0690  0.0278 -0.1005
 2670W        W22204  10.850   9.890  14.511 -0.0455 -0.1456  0.0516
 2671W        W22205   7.424   4.175   3.238  0.1185 -0.1624 -0.1550
 2672W        W22206   4.419  15.001  14.201  0.2488 -0.1589  0.1024
 2673W        W22207   1.405  17.152   2.892  0.2978 -0.2772 -0.2350
 2674W        W22208   0.178  17.649  13.002  0.0075  0.1715  0.1362
 2675W        W22209  11.095   7.232  12.685 -0.2028 -0.0519 -0.0179
 2676W        W22210   2.241   2.744   3.553 -0.0175 -0.0785 -0.0541
 2677W        W22211  13.280   0.630   1.459  0.2935 -0.2795  0.3132
 2678W        W22212  16.516   8.130  15.932 -0.2638  0.0599  0.0492
 2679W        W22213   6.362  17.632   1.855  0.3106 -0.0738 -0.1492
 2680W        W22214   0.046  10.338   0.470  0.2056 -0.0938  0.1556
 2681W        W22215   1.418  13.446  15.676 -0.0561 -0.0091 -0.1024
 2682W        W22216   4.597   2.670  11.166 -0.2226 -0.0388 -0.1111
 2683W        W22217   2.392   2.236   0.286 -0.0769  0.1595  0.2868
 2684W        W22218   5.267   4.805  15.513 -0.1810  0.0332  0.1582
 2685W        W22219  11.709   1.729   2.014 -0.0386  0.2819  0.0068
 2686W        W22220   9.924   3.924   1.544  0.0673 -0.1389 -0.0534
 2687W        W22221  12.901   1.897   1.971 -0.0340 -0.0938  0.0630
 2688W        W22222   2.904  14.169  12.802  0.0256 -0.1043  0.3058
 2689W        W22223  16.073   1.339  14.220 -0.1962 -0.2704  0.0593
 2690W        W22224   3.835   7.784  14.355 -0.0854 -0.2478  0.1464
 2691W        W22225   4.219   5.408   1.127 -0.0344 -0.0472  0.0325
 2692W        W22226  16.145   5.175  15.282 -0.2203 -0.0846  0.0840
 2693W        W22227   9.840   5.344  15.638 -0.0007 -0.0766 -0.3224
 2694W        W22228  14.955   4.754   1.273  0.1865  0.1106  0.2565
 2695W        W22229   1.609   0.901   2.145  0.1230 -0.2258  0.1259
 2696W        W22230   7.374  10.279   1.577 -0.2166  0.3413 -0.1604
 2697W        W22231   7.567   5.486  15.151 -0.0480  0.0494  0.2576
 2698W        W22232   4.748   6.218  15.016 -0.0768 -0.0473  0.0064
 2699W        W22233  17.432  13.486   0.201 -0.2003  0.1247  0.1314
 2700W        W22234   0.202   2.599   1.939  0.0772  0.0708 -0.1356
 2701W        W22235  11.651   4.044   3.139  0.0264  0.3745  0.0859
 2702W        W22236  12.131   0.250  11.605  0.2698  0.2699 -0.4214
 2703W        W22237  10.430   3.373  15.875  0.3497 -0.0174  0.1215
 2704W        W22238   9.452   6.595   2.200 -0.0368 -0.1241  0.0288
 2705W        W22239   5.655   0.404  15.564  0.0072 -0.1900 -0.0545
 2706W        W22240  10.232  17.961  13.719  0.2864 -0.1058 -0.1415
 2707W        W22241  10.880  10.926  13.440 -0.1275  0.0485 -0.2084
 2708W        W22242   1.932   2.925   3.211  0.2216  0.1389 -0.1458
 2709W        W22243  10.157   3.623   1.197 -0.0923  0.1944  0.2135
 2710W        W22244  11.979   7.569  12.262  0.0725  0.0435 -0.0338
 2711W        W22245   1.673  11.591   0.327 -0.2992 -0.0058 -0.2873
 2712W        W22246  16.844   5.081  10.646  0.2878 -0.2171  0.1355
 2713W        W22247   2.489   4.448  13.742  0.2509  0.0765  0.0816
 2714W        W22248   6.659   5.379   4.204  0.0896  0.0126 -0.1854
 2715W        W22249   4.395   6.857  12.839 -0.0719  0.3098  0.0801
 2716W        W22250  16.280  15.481  15.269 -0.1104 -0.0406  0.0104
 2717W        W22251   3.387  15.417  15.931 -0.1031 -0.0132  0.1438
 2718W        W22252  17.450   2.827   3.378  0.0024 -0.0923  0.1559
 2719W        W22253   0.178   5.074   4.226  0.0079 -0.1193 -0.0164
 2720W        W22254  13.532  11.339   0.356 -0.0867 -0.1564 -0.2401
 2721W        W22255   6.914   1.567   2.803 -0.1150 -0.1382  0.2940
 2722W        W22256  13.341   3.027  13.683 -0.1163 -0.0547 -0.1979
 2723W        W22257  15.615  17.919   0.275  0.2626 -0.2670  0.0332
 2724W        W22258  13.932   5.040   1.706 -0.0068 -0.1491  0.1002
 2725W        W22259   2.347   4.167   1.131  0.0539 -0.3018 -0.1882
 2726W        W22260   8.034  12.562   0.660  0.0360 -0.0808 -0.0776
 2727W        W22261  16.686   3.856  14.853  0.2248 -0.1903  0.1403
 2728W        W22262  13.855   3.165  12.455  0.0921 -0.0709 -0.1200
 2729W        W22263   7.692  17.544   4.237  0.2356 -0.1112  0.1347
 2730W        W22264   1.701  10.562   1.562 -0.6929  0.2096  0.0514
 2731W        W22265  16.654   2.148   2.619  0.1801 -0.3540 -0.0636
 2732W        W22266   3.571   6.593  15.997 -0.1574 -0.1562  0.0879
 2733W        W22267  10.360  12.034   5.033 -0.0544  0.1434  0.3085
 2734W        W22268   9.052   4.624   0.235 -0.1637 -0.0351  0.0130
 2735W        W22269  18.058   5.749  15.567 -0.2176 -0.1412 -0.1680
 2736W        W22270  10.748  17.958  12.479  0.0444  0.0338  0.0025
 2737W        W22271  14.343   9.425  12.887 -0.0585 -0.2760  0.1392
 2738W        W22272   7.071   2.056  13.605 -0.0241 -0.0917 -0.0255
 2739W        W22273  15.426  17.421   3.844 -0.1451 -0.0580 -0.1635
 2740W        W22274   9.828  10.732   1.466 -0.0496 -0.0770 -0.2092
 2741W        W22275   7.201  14.854  12.373 -0.0341  0.1755 -0.4036
 2742W        W22276  15.810  17.403   0.516 -0.2714 -0.0882 -0.2302
 2743W        W22277  12.577   7.947  14.936 -0.1167 -0.0553 -0.0812
 2744W        W22278   5.673   4.083  13.657  0.2133  0.1511 -0.2846
 2745W        W22279  13.151   7.077   3.776  0.0599  0.4477  0.3499
 2746W        W22280  12.783  13.459  12.679 -0.0820  0.1302  0.3230
 2747W        W22281  15.251   7.104  12.401  0.2411  0.0679  0.0387
 2748W        W22282   7.098  16.725   1.221 -0.1861  0.0117  0.1167
 2749W        W22283  17.024   6.043  12.398  0.2035  0.3496  0.0981
 2750W        W22284  13.226  12.626   1.794 -0.0968 -0.1312  0.2465
 2751W        W22285   9.576  17.775  15.163  0.1934  0.0597 -0.0649
 2752W        W22286   1.452   1.421  11.730 -0.1132  0.1919  0.0016
 2753W        W22287   5.437   8.566  12.996  0.3458  0.1916  0.0893
 2754W        W22288  10.987   8.192  13.114  0.1564 -0.1269  0.0337
 2755W        W22289  16.375   9.638  12.177  0.0805  0.1026  0.1119
 2756W        W22290  15.011   1.242   0.273 -0.2675  0.4692  0.0970
 2757W        W22291  15.486   3.780   4.162 -0.0049 -0.1594  0.1347
 2758W        W22292   5.810   5.499  12.042 -0.3252 -0.1013 -0.1169
 2759W        W22293   3.651  11.597  12.468  0.1929  0.1478 -0.1519
 2760W        W22294   6.487   3.655  13.685 -0.4877  0.0336 -0.0582
 2761W        W22295   4.040   7.197  13.049 -0.2643  0.2668 -0.0416
 2762W        W22296  15.848  12.172   1.450 -0.1219  0.1429 -0.0712
 2763W        W22297  14.483   2.326  14.706 -0.2702 -0.0460 -0.3484
 2764W        W22298  15.497   8.121   1.770  0.2878  0.1847  0.3554
 2765W        W22299   9.072   4.454  13.850 -0.3226  0.0465  0.2094
 2766W        W22300  15.564   5.790   3.516  0.0413 -0.2072 -0.3295
 2767W        W22301   2.195   4.383  12.407 -0.2251  0.0553 -0.0104
 2768W        W22302  11.413   4.800  12.944 -0.1202  0.0314  0.2077
 2769W        W22303  12.112   7.675   3.217 -0.0960 -0.3155  0.0840
 2770W        W22304  11.000  15.780  13.486 -0.0246  0.2626  0.1003
 2771W        W22305  15.053  15.232  15.393 -0.0077  0.1202  0.1328
 2772W        W22306  11.200   3.371   1.011 -0.2514 -0.0847 -0.1605
 2773W        W22307   3.243   2.689   4.004 -0.2060  0.0148 -0.3122
 2774W        W22308  11.566  17.280   2.594 -0.3115 -0.2714  0.1859
 2775W        W22309  11.921  15.546  14.984  0.2271  0.1000  0.1717
 2776W        W22310   6.172  11.412  12.703 -0.1269  0.3541  0.0377
 2777W        W22311   6.831   4.643  13.875 -0.1430 -0.0198  0.1021
 2778W        W22312   9.346  11.994   5.073 -0.1051  0.0549 -0.0925
 2779W        W22313   6.856  18.125  15.319 -0.0603 -0.0269 -0.0336
 2780W        W22314  13.103   9.408   0.951  0.1775 -0.0068 -0.1207
 2781W        W22315   1.421  10.904  15.438  0.3477 -0.1235  0.4225
 2782W        W22316   9.985  11.381  12.438 -0.4487  0.0087  0.1632
 2783W        W22317  17.448   3.957  12.720 -0.2449 -0.1473  0.2371
 2784W        W22318  17.598  17.792  12.458 -0.2030 -0.0383  0.1804
 2785W        W22319  12.208   8.248   3.996 -0.2157  0.1878  0.1942
 2786W        W22320   6.134   3.622  14.816  0.3561 -0.2747  0.0529
 2787W        W22321  15.508  14.020  12.696  0.1665  0.1185  0.3089
 2788W        W22322  15.924   5.853  11.915 -0.1729  0.2045 -0.0540
 2789W        W22323  14.268   4.878  14.145  0.2360 -0.1968  0.0698
 2790W        W22324   8.496  14.202   2.462  0.0614  0.4051 -0.0678
 2791W        W22325   5.098  15.071  13.507  0.1126 -0.0298 -0.3751
 2792W        W22326  14.091   3.167  14.706 -0.0415 -0.4253  0.2171
 2793W        W22327   3.949  10.205   2.941  0.0856 -0.0718 -0.0470
 2794W        W22328  12.724   8.802  13.716 -0.2474  0.0126  0.0887
 2795W        W22329   6.352   9.244   3.767 -0.1559 -0.1862  0.0770
 2796W        W22330  10.098   0.128   0.776 -0.2217 -0.2511 -0.2130
 2797W        W22331   3.237  14.254  11.965 -0.0446 -0.0046  0.2446
 2798W        W22332  10.793   3.927   2.562  0.0122 -0.1065 -0.0988
 2799W        W22333   3.544  12.629   2.762 -0.1152  0.0076  0.2325
 2800W        W22334  12.014   4.941  13.952  0.2674  0.1527 -0.1161
 2801W        W22335   4.778   3.281   4.254 -0.4397 -0.0266 -0.0055
 2802W        W22336   9.758  15.026  12.201 -0.0195 -0.4151  0.3086
 2803W        W22337   6.174   1.587   3.635 -0.1001 -0.1233 -0.3524
 2804W        W22338  10.210   9.516   4.061  0.1900 -0.2144 -0.1563
 2805W        W22339  15.960  14.193  13.024  0.1744  0.0963 -0.2375
 2806W        W22340  17.947   9.669   0.755 -0.0165  0.1362  0.1678
 2807W        W22341  16.050   9.163   0.143  0.2756 -0.1000 -0.1109
 2808W        W22342  15.181   7.594   4.494  0.1862 -0.1429 -0.1403
 2809W        W22343  12.928  15.378  11.699 -0.0602 -0.1586  0.0227
 2810W        W22344   9.394  12.039   4.204 -0.1695 -0.0050 -0.0911
 2811W        W22345  10.156  10.396   3.538  0.2222  0.2180  0.0886
 2812W        W22346   9.479   9.376   3.551  0.0368 -0.1422  0.1484
 2813W        W22347   8.295   7.139  12.195 -0.3283 -0.0279 -0.2029
 2814W        W22348   8.415  16.695   0.090  0.0577  0.0778  0.2155
 2815W        W22349  12.703   9.613  11.197 -0.0515  0.0809 -0.0911
 2816W        W22350  12.976  10.955   4.357 -0.2480 -0.1294  0.4707
 2817W        W22351   0.150   1.308  13.160  0.0020  0.0186  0.0179
 2818W        W22352  10.349  11.439   2.066 -0.0101  0.1332  0.1976
 2819W        W22353   9.623  14.166  11.662  0.0401 -0.4024  0.2760
 2820W        W22354  17.461  14.449   2.531 -0.1034  0.0723  0.2366
 2821W        W22355   3.719   2.980  14.007 -0.1745  0.0693 -0.1125
 2822W        W22356   4.341  13.053   2.971  0.2718 -0.3618 -0.0663
 2823W        W22357   2.485   0.038   2.589  0.2786 -0.0340  0.5498
 2824W        W22358   8.514  17.178   2.957 -0.0757 -0.2203  0.1160
 2825W        W22359   3.115  16.304  12.743 -0.3249 -0.0350  0.1979
 2826W        W22360   3.562  12.793   0.610  0.2055  0.0612  0.1861
 2827W        W22361   4.133   8.872   3.128  0.0281 -0.0862 -0.1769
 2828W        W22362   6.799   9.454  14.769  0.0536  0.1572 -0.2031
 2829W        W22363   0.203   3.440   3.929 -0.0162 -0.0529 -0.0260
 2830W        W22364   9.522   3.909  14.688 -0.1193 -0.0581 -0.2911
 2831W        W22365   2.971   1.939  14.787  0.0162 -0.0958  0.1941
 2832W        W22366  12.979   4.245   3.380 -0.0037  0.0801 -0.1012
 2833W        W22367  15.039   6.208  13.214 -0.1426  0.0483 -0.2170
 2834W        W22368   1.584  12.090   0.489 -0.2920 -0.0187  0.2390
 2835W        W22369   3.519   9.705  14.497  0.1506  0.2038  0.3823
 2836W        W22370   5.001  15.282  15.323 -0.0619 -0.2934  0.1349
 2837W        W22371  11.237   2.594   5.247 -0.0901 -0.0249 -0.2021
 2838W        W22372   7.570  11.297  13.379  0.0774 -0.0696  0.0851
 2839W        W22373  10.715  12.172  14.802 -0.0119 -0.1314 -0.0506
 2840W        W22374  13.810   2.983  13.860 -0.0376  0.0127  0.0936
 2841W        W22375  17.310   0.309  13.095 -0.0581  0.0213  0.2075
 2842W        W22376  14.135   4.243  12.853  0.1920 -0.1578 -0.0290
 2843W        W22377   3.620   8.633   1.631  0.1259 -0.3037  0.1370
 2844W        W22378   6.217   5.486  14.876 -0.1797 -0.1981  0.0536
 2845W        W22379   7.836  14.923   3.613  0.0844 -0.1258  0.3909
 2846W        W22380   2.234  10.267  12.324 -0.2172  0.1919 -0.1043
 2847W        W22381   7.481   3.179  13.926  0.1628  0.0100  0.0549
 2848W        W22382  13.001   2.181  12.709 -0.0710 -0.1159  0.2149
 2849W        W22383  10.308  16.139   1.042 -0.1570  0.0195 -0.2075
 2850W        W22384   6.454  15.943  12.970 -0.1862  0.2875 -0.2018
 2851W        W22385  11.304   6.216   2.458 -0.1725 -0.0208 -0.3532
 2852W        W22386   1.010   5.033  14.836  0.0847  0.0786 -0.1946
 2853W        W22387   2.555  10.818  12.877  0.1925  0.1257  0.0513
 2854W        W22388  10.201  13.408  13.169 -0.1345  0.1565 -0.3885
 2855W        W22389   3.082   9.050  12.167 -0.0543  0.0595  0.0495
 2856W        W22390  15.737   7.317  12.429 -0.0915  0.1604 -0.1035
 2857W        W22391  15.667  17.465  14.839  0.3541 -0.1806  0.1667
 2858W        W22392  12.347   4.270  14.563 -0.0724 -0.0198  0.1292
 2859W        W22393   6.546  14.374  15.025  0.0199  0.1528  0.0233
 2860W        W22394  16.431  12.458   4.265 -0.1078  0.0754  0.0555
 2861W        W22395  10.066  14.539  14.892 -0.0297  0.0438 -0.1399
 2862W        W22396  14.607  16.895  11.716  0.0621  0.0074  0.0161
 2863W        W22397  12.268   4.658  12.574  0.1248 -0.2031  0.2135
 2864W        W22398  17.304   3.957   5.222  0.0659 -0.0375 -0.1211
 2865W        W22399   7.165  15.191  14.927 -0.1381  0.1173  0.3264
 2866W        W22400   7.485   6.971   4.473 -0.1834  0.3641  0.1093
 2867W        W22401  13.797   1.204   4.931  0.2074 -0.2447  0.0178
 2868W        W22402  15.986  16.753  11.584  0.1841  0.1679  0.2137
 2869W        W22403   4.899   9.009  12.593 -0.0428 -0.1913 -0.3804
 2870W        W22404   2.978   5.812   3.114  0.1184  0.1826  0.2057
 2871W        W22405   2.749   5.789  11.903  0.0576  0.1043 -0.1889
 2872W        W22406   1.983  11.592  11.500  0.0128 -0.1636  0.0557
 2873W        W22407  16.225  10.269  14.752  0.4399 -0.1757  0.0407
 2874W        W22408   9.727   6.350  13.125 -0.0414  0.0336 -0.0646
 2875W        W22409   0.086   3.412   0.849 -0.4461  0.1411  0.1055
 2876W        W22410  13.402   0.470   5.302  0.0286 -0.2427  0.0249
 2877W        W22411  11.915   0.589   4.420 -0.0583 -0.1209 -0.1333
 2878W        W22412   0.732   4.467   0.742 -0.1040  0.1809 -0.1869
 2879W        W22413   4.460  12.161  14.807 -0.2239 -0.2246 -0.2405
 2880W        W22414   0.254  16.589  11.389  0.0199 -0.1953  0.0235
 2881W        W22415   3.956   3.660  15.961  0.2699 -0.1120 -0.2968
 2882W        W22416   6.819  13.651   5.412 -0.3283  0.4226  0.0975
 2883W        W22417   2.375  16.276  13.587 -0.1005  0.1616  0.4051
 2884W        W22418  11.976  10.757  13.136 -0.1752  0.0869 -0.0719
 2885W        W22419  13.467  12.887   3.502  0.0635  0.0674  0.2039
 2886W        W22420  11.566   2.703   0.048  0.1133  0.2034  0.0449
 2887W        W22421   1.801  12.020   1.288  0.0498 -0.2628 -0.0420
 2888W        W22422   7.027  14.163   1.904  0.0469  0.0550 -0.2279
 2889W        W22423  15.750  13.547  12.217 -0.3261  0.0842  0.2305
 2890W        W22424  13.835  14.301  14.410  0.3779 -0.0010  0.4037
 2891W        W22425   7.259   6.668  15.006  0.2082 -0.2160 -0.3880
 2892W        W22426  14.898   9.024   1.429  0.0449  0.0556 -0.2396
 2893W        W22427   8.367  14.049   0.912  0.0098  0.0356 -0.2471
 2894W        W22428  15.850  17.280  14.185  0.2539 -0.2362  0.3591
 2895W        W22429  11.279  12.236  11.555 -0.2881 -0.3046  0.1811
 2896W        W22430   1.242   7.280  12.000 -0.0127  0.0603  0.0820
 2897W        W22431   9.227  14.305   1.388  0.1048  0.0803  0.1198
 2898W        W22432   1.661   3.406   0.556 -0.2981  0.0763  0.2499
 2899W        W22433  10.357  13.779   0.767 -0.2781  0.0012 -0.0250
 2900W        W22434  17.035   4.283  12.418  0.0279 -0.3293 -0.2632
 2901W        W22435  16.762  15.016  15.372 -0.1297  0.2013 -0.1699
 2902W        W22436   8.610  13.816   2.713  0.0857  0.4822  0.1412
 2903W        W22437  14.165   3.330   2.947  0.2492 -0.0431 -0.2577
 2904W        W22438   6.383   8.251   1.831  0.0059  0.0862  0.0307
 2905W        W22439  13.890   3.497  15.738  0.1135  0.0024  0.2261
 2906W        W22440  15.553  16.712  13.043  0.4262 -0.1963 -0.3201
 2907W        W22441  12.873  13.046   3.416 -0.1655  0.1443  0.2653
 2908W        W22442  18.058  13.406  12.952 -0.0526 -0.5546  0.2873
 2909W        W22443   3.022   2.809  14.640  0.0691  0.1591  0.0472
 2910W        W22444  14.196  14.470  14.791  0.2418  0.2867 -0.3105
 2911W        W22445   7.365  16.368   2.502 -0.1341 -0.3455 -0.0779
 2912W        W22446  13.232  13.373   4.912 -0.1083 -0.1897 -0.0102
 2913W        W22447   2.239   8.908   0.308 -0.0002  0.3662  0.1251
 2914W        W22448  12.597   3.996  14.998 -0.1330  0.0251 -0.1324
 2915W        W22449  10.958  17.344  13.836  0.1770 -0.2204  0.0455
 2916W        W22450   5.307   6.160  13.571 -0.2312  0.1228  0.1083
 2917W        W22451  11.628  16.357  14.498 -0.2775  0.1389 -0.0980
 2918W        W22452   3.166   9.386   2.574  0.0075 -0.2784 -0.1074
 2919W        W22453   7.788   5.234   1.392  0.0177 -0.2665 -0.1439
 2920W        W22454   8.346  17.573   2.705  0.1479 -0.1537  0.0784
 2921W        W22455   3.993  12.660  12.945 -0.0728 -0.1203 -0.2221
 2922W        W22456   5.390   1.531  14.836 -0.1158 -0.3770  0.2026
 2923W        W22457   7.783  10.222   4.603  0.1492 -0.1567  0.1001
 2924W        W22458   2.577  16.535  14.733 -0.0901  0.5102 -0.1167
 2925W        W22459  14.687   2.380  15.758 -0.0643 -0.0016 -0.0725
 2926W        W22460  16.316  17.439   0.657  0.0804  0.0956 -0.2647
 2927W        W22461   5.936  13.454  13.296 -0.1668  0.0557  0.0318
 2928W        W22462  16.987  10.907  14.175 -0.1769  0.3942 -0.1599
 2929W        W22463   6.398   7.429   0.843 -0.1871  0.2644 -0.1990
 2930W        W22464  15.160  14.002   1.342 -0.0871  0.0987  0.0911
 2931W        W22465   6.877  16.401  15.199 -0.0369  0.1578  0.2742
 2932W        W22466   4.102   7.939  11.505 -0.0299  0.0986  0.2076
 2933W        W22467   1.122   6.231   0.947  0.0652  0.3501  0.2101
 2934W        W22468  14.124   9.436  13.634 -0.0311  0.0516 -0.3162
 2935W        W22469  10.268   5.514  15.423 -0.2023  0.2494 -0.0865
 2936W        W22470   6.634   0.201   3.717 -0.2724 -0.0909  0.2018
 2937W        W22471   9.464  11.405  12.066 -0.2142  0.2397  0.2273
 2938W        W22472   6.313   6.341   4.066  0.1347  0.4330  0.2100
 2939W        W22473   4.435   2.682  12.451 -0.1980  0.2228  0.1837
 2940W        W22474  12.152   8.281   1.964 -0.0913 -0.0785 -0.0417
 2941W        W22475   7.487  11.295   6.022  0.1978 -0.0628  0.1520
 2942W        W22476  10.553   4.178  13.317  0.1059  0.0432  0.2743
 2943W        W22477   4.176   3.051   5.420  0.1243  0.0392  0.2490
 2944W        W22478  15.668   1.965  12.433  0.2780 -0.4940  0.2677
 2945W        W22479   0.533   0.863  14.993 -0.2892  0.2932  0.3523
 2946W        W22480  17.860  17.293  13.564 -0.0903  0.2970 -0.1904
 2947W        W22481   0.998   5.960   2.518 -0.0514  0.2720 -0.0944
 2948W        W22482   2.867   8.953   0.257  0.0780  0.1609 -0.3831
 2949W        W22483  17.581  15.952  15.196  0.0307 -0.0857  0.0590
 2950W        W22484   7.270  17.871   1.644  0.3002  0.0969 -0.2092
 2951W        W22485   1.182   6.896  14.071 -0.0125 -0.1560  0.0832
 2952W        W22486  10.585   6.232   2.803 -0.1587  0.3455  0.2736
 2953W        W22487  17.823  10.046  14.513  0.1055  0.1922  0.0125
 2954W        W22488  14.325  11.687   0.488  0.3199  0.1482 -0.3774
 2955W        W22489  10.784   5.586   0.093  0.4319  0.0307 -0.0205
 2956W        W22490  12.093   7.978  11.938 -0.3850 -0.0935  0.2345
 2957W        W22491   9.184   4.047   3.805 -0.1183  0.2925 -0.0123
 2958W        W22492   4.799  12.550  13.380  0.0423  0.0133  0.0112
 2959W        W22493   1.434   5.521   0.632 -0.0713 -0.0262 -0.1795
 2960W        W22494  13.310   1.975   4.267  0.3013 -0.0838 -0.0100
 2961W        W22495  13.954  14.749  12.566  0.0744 -0.0047  0.0489
 2962W        W22496   2.871   1.587  11.819  0.1376  0.3051  0.1753
 2963W        W22497   3.235  14.476  14.735  0.0726 -0.1053  0.1272
 2964W        W22498  10.214  10.488  13.758 -0.1935 -0.0875  0.0681
 2965W        W22499  15.225   8.806  13.469 -0.1094  0.1970 -0.2410
 2966W        W22500  11.767   2.238   2.205  0.0744 -0.1053  0.1645
 2967W        W22501  10.732  15.284   4.428  0.0407 -0.0122 -0.0849
 2968W        W22502   0.217  14.298  15.113 -0.0330  0.0770  0.2216
 2969W        W22503  14.776   0.641   1.736 -0.1433 -0.1902  0.3066
 2970W        W22504   4.080  17.487   2.628 -0.0671  0.1194  0.0107
 2971W        W22505   1.556   1.749   0.394 -0.2403  0.0784 -0.0031
 2972W        W22506   2.670  15.368  11.599  0.0094 -0.1788  0.1388
 2973W        W22507   6.434  16.654   1.634 -0.0840  0.3178  0.1108
 2974W        W22508   1.318   7.242   1.840 -0.4015  0.0883 -0.0951
 2975W        W22509   1.113   3.772  13.555 -0.0171  0.3304  0.1340
 2976W        W22510   8.060  12.690  15.499  0.3760 -0.0611  0.2256
 2977W        W22511   1.971  11.712  14.358  0.0375 -0.2527 -0.2457
 2978W        W22512   2.835  15.887   4.061 -0.2320  0.0142  0.1800
 2979W        W22513   3.600  11.613   2.340  0.1726  0.1143  0.2717
 2980W        W22514   5.178  14.519   2.094 -0.0367  0.2304 -0.0735
 2981W        W22515   5.708   5.956   0.088 -0.2330  0.1749  0.1391
 2982W        W22516   6.925   2.579  12.288  0.1076  0.0760 -0.0957
 2983W        W22517  16.022  12.758  12.117  0.0104  0.0986 -0.3819
 2984W        W22518  16.439  13.206  12.225  0.2270  0.1002  0.1345
 2985W        W22519  12.351   4.128   1.368  0.1299  0.3042 -0.1818
 2986W        W22520   9.281   4.677  12.273 -0.0760 -0.1530  0.1780
 2987W        W22521   7.444   2.767   0.766 -0.1787 -0.0328  0.6217
 2988W        W22522   7.378  11.448   0.828  0.1052 -0.1582  0.1600
 2989W        W22523  14.166   1.845  14.724  0.1226  0.1565 -0.0586
 2990W        W22524   7.033  13.882  13.062 -0.0363 -0.0162 -0.2212
 2991W        W22525   8.660   1.392   4.797 -0.2768 -0.0152  0.0553
 2992W        W22526   3.395   7.418  15.926  0.1692 -0.2191  0.3249
 2993W        W22527   9.348   3.456  12.310  0.2329 -0.0228 -0.0869
 2994W        W22528  11.050  12.459  11.950  0.1953  0.0088 -0.1622
 2995W        W22529  13.391   1.785   3.817 -0.0621 -0.1875  0.1860
 2996W        W22530  15.847   3.442   2.705  0.1419 -0.1301 -0.1426
 2997W        W22531  12.976  11.944  12.375  0.3383  0.0320  0.3940
 2998W        W22532   5.898   5.127  14.771  0.0365 -0.0405 -0.0011
 2999W        W22533   1.681  11.175  12.818 -0.0052  0.1768 -0.3123
 3000W        W22534   3.913   9.631   0.332  0.1723 -0.1141  0.0205
 3001W        W22535  17.057  12.183   4.408  0.0577 -0.1967  0.0452
 3002W        W22536   2.437   3.528  15.965 -0.1241 -0.1086 -0.0105
 3003W        W22537   4.408   2.622  11.931 -0.0175  0.3653  0.1315
 3004W        W22538  12.344   9.210  15.776  0.1307 -0.0644 -0.0887
 3005W        W22539   1.683  12.441   0.816  0.0655  0.0881  0.1690
 3006W        W22540   2.587   5.528   0.117 -0.1011 -0.0507 -0.1415
 3007W        W22541   1.273   8.295   2.710 -0.0662 -0.2820  0.1709
 3008W        W22542   3.229   0.325   4.431  0.0235 -0.0237 -0.0758
 3009W        W22543   8.246  15.188   3.652 -0.0048  0.1329  0.3481
 3010W        W22544   6.122  17.122  13.805 -0.0877 -0.1481  0.0024
 3011W        W22545   0.236   0.039   2.280 -0.1263  0.0189  0.0423
 3012W        W22546   5.203   7.019  14.425 -0.2297 -0.0640  0.0605
 3013W        W22547  11.474  12.151  13.262  0.2551  0.4183  0.2079
 3014W        W22548  17.588  11.506  13.991  0.0132  0.0931  0.0389
 3015W        W22549  13.530   4.430  13.238  0.0581 -0.1995 -0.2524
 3016W        W22550  13.221   4.731  12.631 -0.2110 -0.2197  0.1743
 3017W        W22551   7.579   6.735  12.345  0.0017  0.1861  0.0311
 3018W        W22552   7.114  11.955   2.116 -0.1641 -0.0629  0.2335
 3019W        W22553   5.999   5.560   2.602  0.0163 -0.0153 -0.3925
 3020W        W22554   4.042   6.555  15.824  0.0432  0.1841 -0.0313
 3021W        W22555  12.171   4.749   3.136  0.1785 -0.1608  0.0104
 3022W        W22556   4.429   8.020   2.813 -0.3231 -0.1502 -0.1616
 3023W        W22557  16.958   5.167  13.330 -0.0033  0.2319 -0.1120
 3024W        W22558  11.215   9.591  14.779 -0.4993  0.3150 -0.0231
 3025W        W22559   3.039  11.068   1.102 -0.0719 -0.1413  0.0539
 3026W        W22560   4.699   7.594   0.597  0.4224 -0.1001 -0.0067
 3027W        W22561   1.301  11.904  12.525  0.3296  0.2650  0.2688
 3028W        W22562   9.175  10.409  12.955  0.3297 -0.2132  0.0865
 3029W        W22563  13.307   6.236   0.314 -0.1058  0.0083  0.0257
 3030W        W22564   1.383   5.064   4.318 -0.0705  0.0010  0.1739
 3031W        W22565   2.218  16.989  14.618  0.0611  0.1013 -0.0188
 3032W        W22566  16.503  11.034  12.195  0.0164 -0.1578  0.0805
 3033W        W22567   2.535   9.124   3.678 -0.2015 -0.0361 -0.1642
 3034W        W22568   4.899   2.490  12.574 -0.0400  0.0860 -0.1282
 3035W        W22569   4.059   1.141  15.781  0.3555  0.2768 -0.0662
 3036W        W22570   6.218  18.175  11.146 -0.0904  0.2707 -0.1558
 3037W        W22571  15.494  12.038  15.384  0.0486  0.1493 -0.2126
 3038W        W22572   0.231  12.817  15.713 -0.1661  0.1390  0.1929
 3039W        W22573   9.031  17.125  15.721  0.1690  0.1113  0.0414
 3040W        W22574   7.867  10.147  12.752  0.0731  0.1391  0.1848
 3041W        W22575   5.838   4.482   1.624 -0.0214  0.4700  0.0104
 3042W        W22576  14.882   5.696   2.593  0.1551  0.2469  0.0528
 3043W        W22577  10.066   4.619  11.824 -0.2347 -0.0947  0.0395
 3044W        W22578   2.724  13.780  15.389  0.0114  0.4539  0.1034
 3045W        W22579  17.625   4.977   3.675 -0.1227 -0.2121  0.4353
 3046W        W22580   1.985  13.464   0.528  0.1572 -0.1643 -0.2039
 3047W        W22581   3.590   0.283   0.665  0.0482  0.0229 -0.0538
 3048W        W22582   3.798   2.855  15.932  0.2434  0.1474 -0.1394
 3049W        W22583   5.228  11.887   2.590  0.1377 -0.2411  0.1396
 3050W        W22584   3.741   1.059  13.504  0.0273 -0.2177 -0.0014
 3051W        W22585  17.948  14.829  13.143  0.0566 -0.1874 -0.2967
 3052W        W22586  16.866   4.844   5.759  0.0987  0.2975 -0.4297
 3053W        W22587   3.587   0.748  11.001  0.3418  0.0065 -0.2378
 3054W        W22588  17.873   7.471  11.560 -0.1356  0.0264  0.1966
 3055W        W22589  17.978  13.300   3.452 -0.1021 -0.0726 -0.1918
 3056W        W22590   8.295  14.817   1.398 -0.0238  0.2739  0.0867
 3057W        W22591   8.790   9.216   4.171 -0.1351  0.0736 -0.1381
 3058W        W22592   6.079   8.903   4.908 -0.1725 -0.1895 -0.2749
 3059W        W22593   4.804  14.393   0.330  0.2239 -0.1159  0.1452
 3060W        W22594   8.920  15.837   3.627  0.0908  0.1075  0.0438
 3061W        W22595   1.318   2.042  12.845 -0.3218 -0.1425  0.0947
 3062W        W22596  11.756  14.044   5.634 -0.1366 -0.1944 -0.0591
 3063W        W22597   7.190  15.524   1.930  0.0828 -0.1903  0.2722
 3064W        W22598   0.616   0.850  14.142 -0.3091  0.5337  0.2217
 3065W        W22599   2.051  17.702  15.927  0.1115 -0.1999 -0.1734
 3066W        W22600   0.158  16.554  13.765 -0.0169 -0.0768  0.0410
 3067W        W22601   9.593  13.572   1.951 -0.4707  0.1840  0.1839
 3068W        W22602   5.365   0.221   3.304  0.1900 -0.1614  0.0529
 3069W        W22603   4.300  10.358   4.217 -0.2136 -0.0487  0.0698
 3070W        W22604   1.841  14.255  15.504  0.0905  0.0261  0.2080
 3071W        W22605   9.439  14.831  11.495  0.0579  0.2445  0.0721
 3072W        W22606  11.812   5.642   3.088  0.0961  0.3232  0.0873
 3073W        W22607   1.453   4.849  12.325 -0.3570 -0.2281 -0.1698
 3074W        W22608   9.379   5.479   0.869 -0.2804 -0.1875 -0.3567
 3075W        W22609   5.425   9.374  14.185  0.0612 -0.0285 -0.0277
 3076W        W22610   5.218   7.720   2.637 -0.0443  0.0808  0.1008
 3077W        W22611  12.094   5.579  16.039  0.0577  0.0690  0.1532
 3078W        W22612   0.765  16.739  13.777 -0.0915 -0.1914 -0.2679
 3079W        W22613   4.832  12.549  14.028 -0.2633  0.1266 -0.1934
 3080W        W22614  12.462   4.844   1.730 -0.2117 -0.2452 -0.2275
 3081W        W22615   8.527   2.039   2.598  0.0513  0.0469  0.0978
 3082W        W22616  12.356  11.333  13.774  0.0271 -0.1073 -0.0959
 3083W        W22617  14.538   6.906   1.310 -0.1256  0.1696  0.3132
 3084W        W22618   3.233  13.769  12.945 -0.0043  0.3890  0.1403
 3085W        W22619   1.381   3.017   1.888 -0.0388  0.1962 -0.0832
 3086W        W22620  12.274  15.865   3.502 -0.0031 -0.0286 -0.3255
 3087W        W22621  13.650   5.355  13.134 -0.3902 -0.1498 -0.0577
 3088W        W22622   6.635   4.869  12.441 -0.1611 -0.0464 -0.1115
 3089W        W22623  11.673  11.823   3.861  0.0756 -0.0265  0.1373
 3090W        W22624  12.085   5.128   3.904  0.2053 -0.0985 -0.2367
 3091W        W22625  17.356  11.899  15.749  0.1405  0.0553  0.1574
 3092W        W22626  15.672   4.125  13.127 -0.0658 -0.1778 -0.0210
 3093W        W22627   7.782   9.778   3.805  0.2446  0.1442 -0.0941
 3094W        W22628   1.436   2.292   4.035 -0.1042  0.0481 -0.0621
 3095W        W22629  10.962   9.365   0.505 -0.2883  0.0194  0.5050
 3096W        W22630  13.404   0.850   0.404 -0.0021  0.3113 -0.1614
 3097W        W22631   5.482   1.278   0.688  0.0679 -0.2415  0.0627
 3098W        W22632  10.499  17.789  15.651 -0.2600 -0.0821 -0.1483
 3099W        W22633  11.322   1.699   0.108  0.2005 -0.2818  0.1064
 3100W        W22634  13.720  10.699   4.851  0.0502  0.1163  0.0373
 3101W        W22635   0.833   4.003   0.884 -0.0668  0.1149 -0.0945
 3102W        W22636   3.506   8.677  13.381 -0.0251  0.1369 -0.0611
 3103W        W22637   8.573   7.416   3.577  0.2113 -0.0848  0.0460
 3104W        W22638   3.381  12.042  12.375  0.2909  0.1724  0.1814
 3105W        W22639   7.215   9.696  15.017  0.2335 -0.0316 -0.2119
 3106W        W22640   3.521   2.544  11.470  0.1080 -0.2970 -0.3517
 3107W        W22641  14.141   0.847  12.614 -0.1183 -0.0303 -0.3415
 3108W        W22642   7.487  17.632   3.469 -0.2516 -0.1351 -0.2513
 3109W        W22643   3.128  15.437   5.520 -0.1663 -0.0421 -0.0674
 3110W        W22644  16.515   9.522   0.857 -0.2467  0.1860 -0.1073
 3111W        W22645  16.339   0.796  13.064 -0.2303 -0.1248  0.2890
 3112W        W22646   7.548   0.224  12.548  0.1432 -0.1147 -0.2466
 3113W        W22647   8.101  11.268   1.424 -0.1905 -0.2525  0.2196
 3114W        W22648  15.865   4.993   4.388  0.0280 -0.0588  0.1929
 3115W        W22649   9.941   9.239  13.520  0.0490 -0.0178 -0.2621
 3116W        W22650  12.353  12.899  14.785  0.2242 -0.1816  0.0071
 3117W        W22651  10.923  12.245  13.237  0.0610  0.0470  0.3440
 3118W        W22652  13.645  15.575   0.598 -0.2530 -0.2049  0.0918
 3119W        W22653  15.457   4.572  13.036 -0.0348  0.3707  0.1921
 3120W        W22654  16.723  15.135  14.123  0.0877  0.1806 -0.2019
 3121W        W22655   4.505   8.151  15.221  0.3712  0.0710 -0.0686
 3122W        W22656  13.952  17.926   2.644 -0.2670 -0.0971  0.0161
 3123W        W22657   2.573   4.373  11.499  0.0405  0.1495 -0.2304
 3124W        W22658  11.120   9.696   0.027 -0.3273 -0.1529  0.1072
 3125W        W22659   7.610   8.614  11.595 -0.2070  0.1207  0.1035
 3126W        W22660  12.831  10.012  15.470  0.0588 -0.0358 -0.1006
 3127W        W22661  16.755  15.494   2.662 -0.3050 -0.0968  0.1384
 3128W        W22662   7.761   0.041   2.329 -0.1977 -0.1492  0.1485
 3129W        W22663  17.778   0.222   5.459 -0.0555 -0.2319 -0.0276
 3130W        W22664   3.560  17.110   3.655 -0.0586  0.5238  0.0737
 3131W        W22665   9.723   7.605  14.583  0.2604 -0.0462  0.1073
 3132W        W22666  13.642  15.598  12.706  0.3844  0.2633 -0.2187
 3133W        W22667   6.181   7.731  15.841 -0.1751 -0.0594  0.1011
 3134W        W22668  11.137   0.666   2.570 -0.0529  0.1445 -0.1271
 3135W        W22669  17.786   4.477  15.547  0.0358 -0.0533  0.4019
 3136W        W22670   6.681   2.132  15.759 -0.0881  0.0465 -0.0290
 3137W        W22671   3.701   4.534  12.918  0.0635 -0.0322  0.0970
 3138W        W22672  12.163   4.180   2.311 -0.0424  0.1818 -0.0171
 3139W        W22673   9.136  15.745   2.038 -0.1535  0.2345  0.0707
 3140W        W22674   6.929   5.873  15.588  0.1330  0.3590  0.0786
 3141W        W22675   5.476  10.605   2.204 -0.1444  0.0069  0.0997
 3142W        W22676  13.102   8.668  15.568  0.0615 -0.2054  0.2744
 3143W        W22677  11.714  12.485   1.595  0.0078  0.1208 -0.2539
 3144W        W22678  13.654  11.438   1.239 -0.2728 -0.0120  0.1392
 3145W        W22679   0.484  17.502  15.281 -0.1989 -0.0994 -0.0594
 3146W        W22680   6.995   8.382   1.021  0.1562 -0.2138  0.0195
 3147W        W22681   0.128   9.522   3.460  0.1903 -0.0889 -0.0446
 3148W        W22682  13.616   5.850  14.706  0.0747  0.0092 -0.1270
 3149W        W22683  17.319  11.016   5.896  0.2290 -0.1180  0.1505
 3150W        W22684  16.927   0.525  15.087  0.0416 -0.2909 -0.1059
 3151W        W22685   8.795   4.471  12.090  0.0456  0.1837  0.3237
 3152W        W22686   8.412  13.751  13.578 -0.0731  0.0016 -0.2227
 3153W        W22687   1.727  11.948   3.215 -0.3150 -0.0270  0.3197
 3154W        W22688  11.288   9.630  13.425 -0.0517 -0.0421 -0.1423
 3155W        W22689  10.432   7.908  14.902 -0.1177  0.2876 -0.0380
 3156W        W22690  12.845   8.606   1.495  0.0367 -0.1973  0.2734
 3157W        W22691   4.024   9.601  14.256 -0.2902  0.0531 -0.0595
 3158W        W22692   7.004   3.398   4.822 -0.1183  0.3007  0.1914
 3159W        W22693   7.768  13.377   2.653 -0.1766  0.2073  0.1554
 3160W        W22694   2.985   0.352  13.875 -0.1371 -0.1980  0.1193
 3161W        W22695  17.292   4.633   4.497  0.0356 -0.1971 -0.3262
 3162W        W22696  17.516   4.166  14.726 -0.0623  0.0842  0.0555
 3163W        W22697  17.390   4.693   2.791 -0.3595  0.2450  0.1893
 3164W        W22698   3.694   4.430  13.898 -0.0995 -0.1149  0.0948
 3165W        W22699  17.623  13.954  13.556  0.0156  0.0148  0.1973
 3166W        W22700   5.734   6.768   0.548 -0.1289 -0.1363  0.2631
 3167W        W22701   7.893   9.459   2.883 -0.0520 -0.0040  0.1391
 3168W        W22702   7.770   0.565  13.413 -0.1018  0.0563 -0.0495
 3169W        W22703  12.866   3.054   2.576 -0.0835  0.1258 -0.0543
 3170W        W22704   7.819   1.666   2.674 -0.1552 -0.2644  0.1144
 3171W        W22705   0.714   9.521   1.335 -0.2192  0.1817  0.1278
 3172W        W22706  13.045   8.658  12.378 -0.0413  0.7298 -0.2093
 3173W        W22707  18.191  14.669  13.586 -0.0187  0.1027 -0.0040
 3174W        W22708   8.719   2.929   0.850  0.1935  0.1114  0.0340
 3175W        W22709   3.590   3.718  12.247  0.1600 -0.0019  0.1054
 3176W        W22710   6.079   3.894  13.980  0.0212  0.0496  0.1285
 3177W        W22711   0.044   7.344   1.937 -0.1599 -0.2372  0.1997
 3178W        W22712  13.322   3.035  13.193  0.1097 -0.1101 -0.2465
 3179W        W22713  17.792  14.314   0.254  0.2312  0.1499  0.1121
 3180W        W22714  16.644   8.862   3.439  0.2672 -0.0031  0.0702
 3181W        W22715  11.702  13.597   0.554 -0.0529  0.1964 -0.1461
 3182W        W22716   0.591   1.163  13.584  0.0972  0.0968  0.2460
 3183W        W22717   9.845  16.706  12.759 -0.2735  0.1996  0.4165
 3184W        W22718   7.674   7.059  15.083 -0.3322 -0.0751  0.0443
 3185W        W22719   4.471   3.187  13.444  0.0874 -0.3000  0.2944
 3186W        W22720  17.381   1.979   3.989  0.1182  0.1532  0.1674
 3187W        W22721   6.726  18.022  12.168  0.4248 -0.3127 -0.2268
 3188W        W22722  12.335   9.625   3.699 -0.1695  0.3275  0.1835
 3189W        W22723   6.660   4.871   1.084  0.0845  0.2283  0.1926
 3190W        W22724   9.831  15.399   1.352 -0.1064  0.2338  0.2029
 3191W        W22725   5.542   4.417  15.781 -0.2915 -0.2015  0.0212
 3192W        W22726  16.492  13.601   4.530  0.2658  0.0050  0.1378
 3193W        W22727  16.205  17.165  11.857  0.1238 -0.1296 -0.0685
 3194W        W22728  17.896  15.573  15.153  0.0880  0.4289  0.1301
 3195W        W22729  16.054  12.138  12.890 -0.2898 -0.2173  0.0708
 3196W        W22730   8.542  11.043  10.733 -0.1139 -0.1239  0.1088
 3197W        W22731   9.794   0.495   0.931  0.0058  0.3485  0.0456
 3198W        W22732   6.398   5.023  14.000  0.3130 -0.0029 -0.0616
 3199W        W22733   0.739  11.269  13.205 -0.0001  0.5115  0.0678
 3200W        W22734  10.364  15.919  15.894  0.0003  0.3949 -0.1397
 3201W        W22735   4.741   1.249   0.233 -0.1537 -0.0254 -0.0698
 3202W        W22736   4.280   2.199  11.627 -0.2202 -0.1068 -0.1826
 3203W        W22737   6.785  13.439   4.038  0.1219 -0.0790  0.2327
 3204W        W22738   8.228   4.184   1.905 -0.1034  0.0691 -0.0941
 3205W        W22739   9.550  15.651   0.946  0.1851  0.1815  0.0689
 3206W        W22740   1.048   2.880  13.304  0.1421  0.1156 -0.0446
 3207W        W22741   0.059  16.097  15.895  0.0885  0.0177 -0.1671
 3208W        W22742  18.052  17.925   4.579 -0.0082  0.1583  0.1897
 3209W        W22743  11.063  11.572   3.171  0.2475 -0.1567  0.0115
 3210W        W22744  17.073   4.127  13.116  0.0325 -0.3169 -0.0568
 3211W        W22745   7.685  15.972   2.507 -0.1237 -0.0779 -0.1186
 3212W        W22746   4.540  13.559  12.416 -0.0080 -0.1744 -0.1965
 3213W        W22747   1.285   2.473   2.627  0.1963 -0.2156 -0.0328
 3214W        W22748  15.916  17.092   0.932 -0.0191  0.1569  0.4065
 3215W        W22749   5.546   8.751   3.258  0.1569  0.0847  0.3234
 3216W        W22750   6.922  13.201   3.305 -0.0195 -0.0807  0.2395
 3217W        W22751  13.712  10.680  14.155 -0.2148 -0.2291  0.1141
 3218W        W22752   0.781   9.714  11.915  0.0470 -0.0604 -0.0778
 3219W        W22753   9.866  13.151  12.478  0.0054  0.0826  0.1193
 3220W        W22754   8.196   3.907  11.999  0.0000  0.1673 -0.4046
 3221W        W22755   7.973  15.473   1.918  0.0236 -0.2364 -0.0352
 3222W        W22756   9.215  10.993  11.733 -0.0971  0.1083  0.0831
 3223W        W22757   1.654   6.683  14.355 -0.1947 -0.1805 -0.0660
 3224W        W22758   1.788  10.200  14.669  0.2078 -0.0565 -0.3573
 3225W        W22759   0.968   8.972   3.726  0.0574 -0.3098 -0.2401
 3226W        W22760  14.231  14.932   4.823  0.2544  0.1854 -0.1421
 3227W        W22761  12.930  15.341  13.417  0.0726 -0.0162  0.2193
 3228W        W22762  15.055  11.942   1.822  0.2837  0.1184  0.1621
 3229W        W22763  10.867  16.087   3.309 -0.1864 -0.0290 -0.1224
 3230W        W22764   3.407   5.489   2.970 -0.1840 -0.0591 -0.0643
 3231W        W22765  12.077  17.210  15.060  0.2948 -0.0267  0.0132
 3232W        W22766   0.770  15.156   1.682  0.0707 -0.0125 -0.0619
 3233W        W22767  12.725   6.566  12.834  0.1076  0.0832 -0.0129
 3234W        W22768   6.508   6.832   0.836 -0.2456  0.2644 -0.0477
 3235W        W22769  13.904  10.919  11.393 -0.0862 -0.0735  0.1281
 3236W        W22770  16.361   4.532   4.196 -0.1657 -0.0495 -0.0356
 3237W        W22771   7.091   3.132   1.122  0.0377 -0.0217  0.3266
 3238W        W22772   0.641  17.053  12.507  0.0909  0.1540 -0.3868
 3239W        W22773   4.514   6.595  16.019  0.2553  0.1258  0.0697
 3240W        W22774  17.813  13.525   4.682 -0.4457 -0.0045 -0.1087
 3241W        W22775   8.897  12.163   5.135  0.2730 -0.0487 -0.1556
 3242W        W22776   6.347  10.071   1.254 -0.1572  0.1133 -0.1610
 3243W        W22777   9.947  16.305   1.541 -0.1338  0.0869  0.2362
 3244W        W22778   7.516   5.808  12.492 -0.3890 -0.2238  0.1491
 3245W        W22779  15.728  16.186  14.113 -0.2526 -0.1081  0.0889
 3246W        W22780  10.204  15.401  14.946  0.1274  0.2513  0.0622
 3247W        W22781   8.104   3.872  14.722  0.2357  0.0075  0.1017
 3248W        W22782   1.369  14.797   3.990 -0.1455  0.4162  0.4114
 3249W        W22783   6.473   3.985  15.041 -0.2630 -0.1158  0.0399
 3250W        W22784   6.994   1.133   3.710 -0.0420  0.1091 -0.0974
 3251W        W22785   6.003  16.695  11.986  0.3812 -0.2555  0.0637
 3252W        W22786  14.862  11.623  13.829  0.0847  0.3052  0.0610
 3253W        W22787  10.290  11.394   4.301 -0.0513  0.1656  0.0833
 3254W        W22788  16.308   2.513   2.380 -0.3244  0.1654 -0.0301
 3255W        W22789   9.242  13.296   3.384  0.1458  0.1370  0.1600
 3256W        W22790  12.286   3.856   0.285 -0.0353  0.0338 -0.0227
 3257W        W22791  16.270  14.925   2.197 -0.0196  0.0690  0.2348
 3258W        W22792   8.151   3.131   2.849  0.2277  0.0922  0.1925
 3259W        W22793   9.222   5.416   3.566 -0.2885 -0.0962  0.2180
 3260W        W22794  15.581   3.938  11.794  0.2072 -0.0013  0.0264
 3261W        W22795   7.126  14.995  11.578 -0.0320 -0.0727 -0.1118
 3262W        W22796  12.337  16.030  13.271  0.1649 -0.1312  0.0999
 3263W        W22797   0.645   9.159  14.055 -0.1499 -0.0257  0.1474
 3264W        W22798   2.066   4.635   1.055 -0.1299  0.2979  0.0006
 3265W        W22799   0.116   5.683  14.075  0.2070  0.0083  0.0797
 3266W        W22800   5.184  14.613  14.493  0.2291  0.0756  0.0721
 3267W        W22801  16.859   7.866   0.738 -0.0316  0.1134 -0.1468
 3268W        W22802   3.361   7.908  12.061 -0.1782 -0.0598  0.1040
 3269W        W22803  10.523   6.463  11.309  0.1028  0.3022 -0.2450
 3270W        W22804   1.964   3.365  13.872  0.0122 -0.2979  0.1116
 3271W        W22805   4.560   7.811  12.214 -0.0262 -0.1604 -0.1364
 3272W        W22806  11.099   1.145   0.682  0.0711  0.0970  0.0510
 3273W        W22807   1.563  15.856  11.887  0.0678 -0.1340 -0.0181
 3274W        W22808   6.183  13.167  14.707  0.1066 -0.0446  0.2072
 3275W        W22809   8.698   0.005   2.456  0.2115  0.2992  0.3032
 3276W        W22810  17.827  16.096   1.018  0.1342 -0.1197 -0.2328
 3277W        W22811  11.663  12.334   3.608 -0.0971 -0.3151  0.2259
 3278W        W22812  13.063  14.901   0.851 -0.2697  0.3558  0.3077
 3279W        W22813   0.269   1.963   2.733 -0.0144  0.0976  0.0360
 3280W        W22814  11.547   4.264   4.130 -0.1799 -0.1055 -0.1306
 3281W        W22815   8.610   9.701   2.454  0.0270  0.2437  0.0818
 3282W        W22816  17.288   5.819  12.830 -0.1866 -0.1865 -0.0756
 3283W        W22817  11.333  12.878  12.135  0.1201  0.0923  0.1348
 3284W        W22818   9.811  11.713   4.256  0.0963  0.0633  0.1900
 3285W        W22819  10.086   3.254  11.786  0.0830  0.1118  0.1829
 3286W        W22820   2.750   9.871   1.147 -0.0027 -0.0849 -0.1083
 3287W        W22821  17.742  18.159  13.330 -0.0740 -0.1473  0.0626
 3288W        W22822   2.891  15.011   0.440  0.1290  0.0273 -0.1273
 3289W        W22823   9.143   4.129   1.088  0.3181  0.0466 -0.2664
 3290W        W22824  12.129  13.218   4.862 -0.3059  0.2170  0.2466
 3291W        W22825   0.080   5.009   0.209  0.2554 -0.0217  0.0061
 3292W        W22826   4.830  10.196   0.221  0.0135  0.0784  0.0692
 3293W        W22827   8.531   4.024  15.001 -0.2875  0.0680  0.1696
 3294W        W22828  15.717   6.478   5.637 -0.0771  0.0142 -0.1508
 3295W        W22829  11.359  11.969  15.456 -0.1049 -0.1213 -0.2886
 3296W        W22830   9.525   0.139  12.273  0.1331 -0.0050 -0.1767
 3297W        W22831  15.023   5.616  15.087  0.1558 -0.0793 -0.0536
 3298W        W22832  17.841  11.342  11.857  0.1883  0.1833  0.2311
 3299W        W22833  13.628  14.585   0.714  0.1055  0.1504 -0.1606
 3300W        W22834   5.798  11.744   4.546 -0.0049 -0.3197  0.1713
 3301W        W22835   5.804  10.113  12.647  0.3401 -0.2966  0.0470
 3302W        W22836   5.513   8.995  15.315 -0.2270  0.1955 -0.1284
 3303W        W22837  16.495  13.372   3.219 -0.1856 -0.1118  0.2545
 3304W        W22838  12.160  11.040  11.636  0.0913 -0.1673  0.0388
 3305W        W22839  13.083  17.745   2.723 -0.1139 -0.0456  0.4661
 3306W        W22840   4.659   8.426   3.093  0.3029  0.1577  0.0652
 3307W        W22841  14.503  13.982   3.212  0.0239 -0.0986  0.1592
 3308W        W22842  16.016  13.890   4.540  0.2360  0.1055  0.2848
 3309W        W22843  13.486   0.301   0.563  0.2945  0.3440 -0.0971
 3310W        W22844   3.734  14.988  13.556  0.0166 -0.0338 -0.1306
 3311W        W22845   0.636   9.613   0.760  0.0966 -0.1357 -0.0119
 3312W        W22846  12.962   5.544   4.573 -0.0796  0.2489  0.1921
 3313W        W22847   9.402   4.781   3.015  0.0159  0.1646 -0.0423
 3314W        W22848  11.166  11.221  14.153 -0.1173  0.0127 -0.1594
 3315W        W22849   7.867   6.733   3.732  0.0524  0.1427 -0.3516
 3316W        W22850   2.600   8.449   1.253 -0.1277  0.3026  0.0648
 3317W        W22851  12.563  12.158  12.204  0.0926  0.1624 -0.2055
 3318W        W22852  11.195  13.266   1.554  0.0140 -0.0913  0.1203
 3319W        W22853  12.466  17.147  11.753 -0.0279 -0.0898  0.3785
 3320W        W22854   5.337  16.070   0.774 -0.1801 -0.2030  0.1503
 3321W        W22855  11.591  10.286   3.062  0.2368  0.1038 -0.2276
 3322W        W22856   9.488  13.388   4.697  0.2020 -0.0033 -0.0456
 3323W        W22857  11.352   3.754   3.433  0.1104  0.1885 -0.1977
 3324W        W22858  11.157   6.002   4.272  0.1461  0.2441  0.2232
 3325W        W22859   9.830  13.325  14.391  0.3507 -0.0274 -0.1174
 3326W        W22860   6.403  17.317  15.780  0.0860  0.0279 -0.1437
 3327W        W22861  11.814   9.904   2.097 -0.0153  0.1999 -0.0432
 3328W        W22862  16.764  14.548   1.993  0.0017 -0.1297  0.0129
 3329W        W22863   3.453  11.976  11.863 -0.2727 -0.0363  0.0502
 3330W        W22864   8.305  10.683  14.923  0.0898  0.1085  0.1788
 3331W        W22865   2.086   9.297   2.178 -0.0938 -0.1609  0.1272
 3332W        W22866   6.486   8.715   3.584  0.0610 -0.0948 -0.1478
 3333W        W22867   3.002   8.501   2.337  0.2814  0.1794 -0.2737
 3334W        W22868   0.639  14.193   4.785  0.3130  0.1320 -0.1541
 3335W        W22869  16.299   5.787  15.617  0.0519  0.1462 -0.1551
 3336W        W22870  17.575  16.829   3.686  0.0540  0.0739  0.1341
 3337W        W22871   4.138  12.521  15.147  0.1968 -0.0577  0.0193
 3338W        W22872  16.515  12.565   3.121 -0.1139  0.0195 -0.1121
 3339W        W22873  18.186  16.027  13.061 -0.2001  0.2919  0.0488
 3340W        W22874   7.237  15.733  10.591  0.0392 -0.2813 -0.0214
 3341W        W22875  17.061   8.592   4.420 -0.0720  0.0433 -0.0370
 3342W        W22876  10.755  10.389  15.849  0.3858 -0.0058 -0.1641
 3343W        W22877   5.513  15.529  13.191 -0.0513 -0.1642 -0.0443
 3344W        W22878   2.937  12.153  12.185  0.0357  0.0889 -0.3478
 3345W        W22879  10.483   0.060   4.858 -0.3105 -0.0565 -0.0578
 3346W        W22880   9.063   4.758   1.840  0.0791  0.0471 -0.0748
 3347W        W22881  13.987   4.436  12.411 -0.1476 -0.1011  0.4564
 3348W        W22882   7.924   5.365   0.239  0.0163 -0.1629 -0.4157
 3349W        W22883   8.879  17.402   3.708  0.1014  0.0835  0.0466
 3350W        W22884  11.906   5.290   4.404  0.2322  0.0510 -0.2794
 3351W        W22885   1.533   5.896  14.769 -0.2354 -0.4491 -0.0792
 3352W        W22886  17.712   1.504  13.623 -0.3097  0.0546 -0.2335
 3353W        W22887   5.774  14.121   4.691 -0.2413 -0.0284  0.0982
 3354W        W22888   8.975   9.885   2.150  0.3719  0.2755 -0.1368
 3355W        W22889  17.154   7.765   4.931  0.4033 -0.0164 -0.1627
 3356W        W22890  16.220   5.198   0.163 -0.1170  0.2830  0.1938
 3357W        W22891  12.272   0.009   3.230 -0.1428  0.1440  0.1040
 3358W        W22892   6.956  12.848   0.728  0.0519 -0.0708 -0.3464
 3359W        W22893  10.988   8.473   1.860 -0.0651  0.0030 -0.2824
 3360W        W22894   2.930  10.841   3.093  0.2099  0.3928  0.0625
 3361W        W22895  11.802   3.915  12.834 -0.1898 -0.0503  0.0192
 3362W        W22896   3.877   6.611  12.309 -0.1349  0.1926  0.1918
 3363W        W22897  10.504   7.596   4.879  0.2094  0.1059 -0.0207
 3364W        W22898   4.567  14.195  15.166  0.2266 -0.2297  0.1176
 3365W        W22899   0.365   6.765   4.072  0.1391  0.1467  0.2023
 3366W        W22900   1.089  15.513   3.738 -0.0460  0.0472 -0.3590
 3367W        W22901  12.696   9.143  15.395  0.1100 -0.1791 -0.0654
 3368W        W22902   2.964   1.543   3.956  0.2316 -0.1022 -0.2704
 3369W        W22903  17.078  17.958   4.612  0.0977  0.0644  0.0883
 3370W        W22904  16.131  10.806   0.446  0.0156 -0.2940 -0.0686
 3371W        W22905  10.180   4.358   3.113  0.1627  0.1057 -0.0264
 3372W        W22906   8.674  12.701  13.187 -0.0443  0.2341  0.1758
 3373W        W22907   3.790   2.117  11.447  0.2446  0.0164  0.2811
 3374W        W22908   0.330   4.642  14.257 -0.0068 -0.1326  0.0290
 3375W        W22909  10.993  14.274   0.661  0.0526  0.2047 -0.1081
 3376W        W22910   0.737  11.957  12.338 -0.4743 -0.0555  0.1110
 3377W        W22911  13.132   3.297  12.333 -0.2146  0.1602 -0.0300
 3378W        W22912   4.196  15.981   1.635 -0.0876  0.0067  0.1669
 3379W        W22913   3.193   1.566   4.489  0.3837 -0.1149 -0.3634
 3380W        W22914  12.804  17.527   3.170 -0.2502  0.1806  0.1305
 3381W        W22915   1.227  15.043  15.695  0.1928  0.0532 -0.1369
 3382W        W22916   9.046  11.907   0.354 -0.0125  0.1995 -0.1579
 3383W        W22917  15.440  14.330   2.057  0.2814  0.0209  0.3712
 3384W        W22918   5.908   6.468  13.028  0.0787 -0.0812  0.2366
 3385W        W22919  11.445   8.475  15.395  0.0883 -0.2884 -0.1981
 3386W        W22920   9.835   8.339  13.329 -0.0644 -0.1335 -0.1051
 3387W        W22921   5.931   9.976  13.627 -0.1113  0.0070  0.0894
 3388W        W22922   9.346  17.910   4.083 -0.1584 -0.1776  0.0085
 3389W        W22923  14.372  17.604  12.301  0.0547 -0.0189 -0.0478
 3390W        W22924  17.811   6.026  12.940  0.1445 -0.1280 -0.0335
 3391W        W22925   6.644  18.021  13.604 -0.1546 -0.0907  0.0162
 3392W        W22926  15.599  10.762  12.374 -0.1069 -0.0245 -0.1860
 3393W        W22927   2.228  13.601   0.921  0.3087 -0.2801 -0.0776
 3394W        W22928  11.363  17.591  15.859 -0.2775 -0.2152  0.0401
 3395W        W22929  15.866   0.165   1.563 -0.2304  0.0432  0.1135
 3396W        W22930   6.429   0.651   3.683 -0.1789  0.1428 -0.3110
 3397W        W22931  11.217   9.211  13.090  0.1064 -0.0986  0.0877
 3398W        W22932   3.528  12.935   4.386  0.1657 -0.2641 -0.1927
 3399W        W22933  17.640   6.832   4.516 -0.2279  0.1427  0.0362
 3400W        W22934   5.330  11.516  15.744  0.2596  0.0499  0.0438
 3401W        W22935  12.180   1.403   3.758 -0.0625 -0.1700  0.1416
 3402W        W22936   5.622   9.257   2.743  0.0509 -0.0141 -0.1914
 3403W        W22937   2.179   1.764   3.742 -0.2268  0.0080 -0.1300
 3404W        W22938  11.662  15.474   2.040 -0.0249  0.0697  0.1336
 3405W        W22939  17.435   5.789  10.783  0.1219  0.1866  0.0009
 3406W        W22940   8.356   3.445  12.159 -0.1531 -0.0092  0.3964
 3407W        W22941   5.906  10.285   4.644  0.1868 -0.2702 -0.0811
 3408W        W22942  11.446  10.745   3.964  0.0943  0.1888  0.1172
 3409W        W22943   7.859   9.529  15.685  0.0095 -0.0318  0.1117
 3410W        W22944  11.032   1.630   2.721  0.0359 -0.0405 -0.0517
 3411W        W22945   1.060  10.823   3.135 -0.2326  0.0553  0.0490
 3412W        W22946   7.849  18.192  12.891 -0.3133  0.0901 -0.1408
 3413W        W22947   6.416   5.857  15.635  0.2591 -0.1212  0.0582
 3414W        W22948   1.340   5.338  14.680  0.0846 -0.3946 -0.1649
 3415W        W22949   2.034  13.258  13.322 -0.1459  0.0655  0.0276
 3416W        W22950   9.396   9.172   4.258  0.1132 -0.4001 -0.1276
 3417W        W22951  17.371  12.988  14.268 -0.2343  0.2791  0.1571
 3418W        W22952   8.294  18.060   0.898  0.3243 -0.0017 -0.3503
 3419W        W22953  18.076   1.619  12.888 -0.0411  0.0003 -0.2884
 3420W        W22954   8.225   2.577   1.953  0.1440  0.1107  0.0271
 3421W        W22955   7.291  10.041   3.894  0.3597 -0.1148  0.1450
 3422W        W22956   9.606   3.398   1.179  0.2724  0.1175  0.0984
 3423W        W22957  12.244   0.465   3.580 -0.0912 -0.0256 -0.0162
 3424W        W22958   4.068   4.588  10.211 -0.0542 -0.1716 -0.1087
 3425W        W22959  16.480   6.537   3.815 -0.0891  0.3172 -0.0330
 3426W        W22960  14.557   3.549  15.283 -0.1063  0.0033  0.1830
 3427W        W22961  13.543   8.403  15.486  0.1777  0.2176 -0.3578
 3428W        W22962   8.012   3.707   2.876 -0.4360 -0.1006  0.2290
 3429W        W22963  12.100   4.199   4.017 -0.2261  0.2725  0.3761
 3430W        W22964   2.011  11.074   3.376 -0.2408 -0.2742 -0.0272
 3431W        W22965  12.709   3.712   1.434 -0.1893  0.4446 -0.0110
 3432W        W22966   5.413  11.115  15.364  0.0646 -0.1953 -0.0181
 3433W        W22967   4.012   1.651  14.616  0.1765  0.2066 -0.0152
 3434W        W22968   2.588   6.651  14.785  0.1525 -0.0645  0.2425
 3435W        W22969  10.834  14.848  12.431 -0.2507 -0.1090  0.0566
 3436W        W22970  12.454   7.375  13.255 -0.0112 -0.0339  0.2488
 3437W        W22971  16.053  14.254   3.492  0.2171 -0.1010  0.0332
 3438W        W22972   5.401   7.013   0.880  0.3733 -0.0694 -0.1628
 3439W        W22973  16.802  13.071  13.225  0.4295  0.1459 -0.0680
 3440W        W22974  17.019   6.512  12.028  0.2275 -0.1388 -0.4215
 3441W        W22975  16.171  16.153   2.644  0.0689 -0.2488 -0.0877
 3442W        W22976   4.623   0.566   2.418  0.0569 -0.2393  0.2607
 3443W        W22977  12.480  13.111   1.061  0.0223  0.0021  0.0285
 3444W        W22978  12.000  15.711   1.355  0.0201  0.0652  0.0155
 3445W        W22979  17.177  13.361   0.991  0.1425 -0.3996 -0.0409
 3446W        W22980  10.366  14.369  15.253  0.2230  0.1659  0.2004
 3447W        W22981   6.690   6.308   0.664  0.0482  0.0556  0.1850
 3448W        W22982   2.069   5.225  15.692 -0.1192  0.0293 -0.2140
 3449W        W22983  10.022   4.475  13.838 -0.1023 -0.2199 -0.1854
 3450W        W22984  13.897  14.337   3.088 -0.1467 -0.1330 -0.1010
 3451W        W22985  12.165   6.378   1.836 -0.0069  0.1213 -0.0994
 3452W        W22986   0.129  17.996   3.228 -0.0855 -0.0722 -0.0969
 3453W        W22987  12.232  12.984   0.260 -0.2812  0.0794  0.0056
 3454W        W22988  11.361   9.814   2.405  0.0080 -0.0393 -0.1904
 3455W        W22989   2.401   9.605   1.915 -0.1294  0.0498  0.2387
 3456W        W22990  11.877   4.116  14.649  0.3006  0.0644 -0.1175
 3457W        W22991  10.373   7.561   5.705 -0.2801 -0.1735 -0.2747
 3458W        W22992   3.131  16.775  14.507 -0.1002 -0.1988 -0.2792
 3459W        W22993  14.380  12.265  11.692  0.0233  0.0393  0.1071
 3460W        W22994  11.402  16.936   3.467 -0.1231 -0.2165 -0.2511
 3461W        W22995   4.737  11.855   0.669  0.2325 -0.1973  0.2641
 3462W        W22996   2.512   4.512  14.626  0.3114  0.1447  0.0024
 3463W        W22997  10.428  11.516  13.767  0.1054 -0.2370 -0.3244
 3464W        W22998  12.523  17.546  12.126 -0.1292  0.0239 -0.0513
 3465W        W22999   3.814   6.094   2.765 -0.1262  0.1695 -0.1815
 3466W        W23000   3.225   9.331  14.514  0.2040 -0.2533  0.1098
 3467W        W23001   5.676  16.168  12.356 -0.0935  0.1590  0.3216
 3468W        W23002   6.539  12.874   3.352 -0.0918 -0.2442 -0.0946
 3469W        W23003  15.248  15.851   2.387 -0.0936 -0.0333 -0.0255
 3470W        W23004  16.330  10.420   4.588  0.2615  0.0291 -0.0848
 3471W        W23005   6.100  14.754   3.036  0.0630  0.3672 -0.0179
 3472W        W23006   7.647  13.553   2.227 -0.1058  0.0760 -0.0916
 3473W        W23007   0.732   9.861   3.040 -0.3472  0.2100 -0.1610
 3474W        W23008  15.151  13.969   2.197  0.1704 -0.2603 -0.0281
 3475W        W23009  16.707   3.616   2.995  0.0374  0.0041 -0.1821
 3476W        W23010   9.434   9.826   4.554  0.1868 -0.2439 -0.2841
 3477W        W23011  12.299   0.397  15.015 -0.0491 -0.0980  0.2029
 3478W        W23012  18.126   4.045  15.417 -0.2428 -0.0273 -0.2421
 3479W        W23013   5.434   7.823  14.702 -0.0610 -0.0557  0.7359
 3480W        W23014  14.975  17.681  14.735  0.1290 -0.0579  0.0151
 3481W        W23015  15.811   2.518  15.102 -0.0928  0.6039  0.0590
 3482W        W23016  10.279  12.509  12.181 -0.0976  0.0223  0.2203
 3483W        W23017   6.137   0.996  13.101 -0.0342 -0.0545  0.0043
 3484W        W23018  12.509   6.163  12.136  0.1406 -0.2844 -0.0666
 3485W        W23019   1.179  14.996  11.646 -0.1204  0.2425  0.2873
 3486W        W23020   3.769  16.855  11.554  0.1657 -0.2579  0.1829
 3487W        W23021  11.979  10.376  13.787 -0.0452 -0.0632  0.0691
 3488W        W23022   2.155  13.923   0.445  0.0374 -0.1417  0.1830
 3489W        W23023   5.104   6.706   4.122  0.0071  0.1465 -0.0245
 3490W        W23024   6.800  14.495   3.158 -0.0471  0.1664 -0.1904
 3491W        W23025   8.905   6.066  14.994  0.1855 -0.0152 -0.1612
 3492W        W23026  17.169   3.753  15.596  0.0485  0.1000  0.0291
 3493W        W23027  14.916   3.922   3.415 -0.0575 -0.2085  0.1168
 3494W        W23028   8.602  12.261   4.723 -0.2703  0.0247 -0.0439
 3495W        W23029   9.478   8.073  14.401  0.0592 -0.0423  0.1229
 3496W        W23030  12.256  14.039   1.121  0.0574 -0.0745  0.0033
 3497W        W23031   9.943   4.203  11.476  0.0548  0.1713  0.0488
 3498W        W23032   6.911   3.066  12.040  0.2833  0.2147 -0.0885
 3499W        W23033  13.202   6.945  15.321  0.1332  0.0761  0.1712
 3500W        W23034  13.161   8.032   0.688 -0.0712  0.0796 -0.2894
 3501W        W23035   4.658   8.325  12.242  0.2171  0.4572  0.3805
 3502W        W23036  14.327  16.405   1.762  0.0048  0.3117 -0.0083
 3503W        W23037  16.370   9.997   6.057  0.0071 -0.1985 -0.0487
 3504W        W23038   2.673   3.786   1.297 -0.1772  0.1654  0.0158
 3505W        W23039   1.761  11.178   2.436 -0.2772  0.0789  0.0935
 3506W        W23040   7.382  10.811   4.008 -0.0859 -0.0750  0.1899
 3507W        W23041  17.143   2.337   3.359 -0.1988 -0.1525 -0.2610
 3508W        W23042  17.474  11.966   4.655 -0.0241  0.3166  0.1688
 3509W        W23043   3.929  14.706  15.726  0.4913 -0.2435 -0.1096
 3510W        W23044   9.497   4.051   1.924 -0.1129  0.1731  0.1076
 3511W        W23045   3.943   4.794   3.700 -0.2539  0.1074  0.1607
 3512W        W23046   1.697   1.225   0.979  0.0874  0.4042  0.0948
 3513W        W23047  10.847   8.250   0.515 -0.1817 -0.0326  0.4608
 3514W        W23048  14.262  17.522  13.849 -0.1157 -0.4516  0.0064
 3515W        W23049   0.668  15.288  13.059  0.0595  0.0644 -0.1105
 3516W        W23050   7.038  14.362  15.840 -0.2645 -0.0574 -0.0119
 3517W        W23051   4.207  13.694   1.749 -0.0940  0.0324 -0.0244
 3518W        W23052   0.822   8.202   3.003 -0.2897 -0.1601 -0.1268
 3519W        W23053  12.378   3.719   3.893 -0.0951  0.1540  0.0416
 3520W        W23054  17.083  12.705  14.698 -0.4197  0.2104 -0.2561
 3521W        W23055   8.975  16.611   0.938  0.0619 -0.0267 -0.1015
 3522W        W23056   6.069  18.046   1.727  0.0494  0.1057 -0.0471
 3523W        W23057  16.809  11.862   0.825 -0.2029 -0.2519  0.0887
 3524W        W23058   8.640   4.694   4.058  0.0725  0.1408  0.1011
 3525W        W23059   7.954   4.978  12.174  0.0235 -0.1608 -0.0232
 3526W        W23060  10.214   8.763   4.531 -0.0607  0.2069 -0.0341
 3527W        W23061  13.991   0.053  15.175  0.0021  0.1531  0.0162
 3528W        W23062   3.374   1.173   4.076 -0.1225 -0.3073 -0.0030
 3529W        W23063   9.202   8.594  14.342  0.1969  0.0353 -0.1993
 3530W        W23064  15.637   8.104  12.202 -0.2913 -0.0094  0.4482
 3531W        W23065   5.590  14.871   3.250 -0.2037 -0.3874 -0.1187
 3532W        W23066   1.544  17.589  13.555 -0.0000 -0.0436  0.1375
 3533W        W23067   4.877  13.195  15.842 -0.2363 -0.1830 -0.0680
 3534W        W23068  13.813   3.927  12.556  0.1495 -0.1803  0.0253
 3535W        W23069  16.857  10.794   5.171  0.0163  0.1341  0.0052
 3536W        W23070   3.487  13.938   1.368 -0.3186  0.0335 -0.1143
 3537W        W23071  11.568  12.871   3.539  0.1261 -0.1250  0.2376
 3538W        W23072   6.017  12.681  14.818  0.0689 -0.4250 -0.3829
 3539W        W23073  18.044   9.552   3.068 -0.0083 -0.1951  0.1553
 3540W        W23074   5.821   2.494   1.942 -0.1522  0.3494 -0.0275
 3541W        W23075  15.061  15.870   4.001 -0.1065 -0.1531 -0.0369
 3542W        W23076   7.016   0.090  11.664  0.0029 -0.2307 -0.0728
 3543W        W23077   1.725   5.813   0.323  0.1632 -0.3225 -0.1956
 3544W        W23078   5.640  11.407   2.026 -0.0417 -0.1582 -0.1279
 3545W        W23079   7.460  12.009   2.597  0.0667  0.3068  0.1838
 3546W        W23080  10.629  11.379  13.263  0.1456  0.0931 -0.0160
 3547W        W23081  14.590   5.901   1.029  0.1572 -0.0185  0.1359
 3548W        W23082  14.536  15.425  12.141 -0.0521  0.2211  0.2587
 3549W        W23083   6.341   7.099   1.220  0.0949  0.1254  0.1756
 3550W        W23084   4.073  15.163   1.070  0.0859 -0.1859 -0.0993
 3551W        W23085  11.841   7.201   4.523 -0.1311 -0.0644  0.2113
 3552W        W23086   6.026   4.525   3.995  0.0126 -0.0619  0.0427
 3553W        W23087  13.477   7.823  13.915  0.0918 -0.1148 -0.1404
 3554W        W23088   5.677   4.588   3.640  0.1161 -0.0907  0.1155
 3555W        W23089  17.911   3.067   3.278 -0.0780  0.2068 -0.3373
 3556W        W23090  15.616   0.960  12.361  0.0630 -0.2176  0.0140
 3557W        W23091   3.839  13.720  13.006 -0.0979  0.2292 -0.2306
 3558W        W23092  16.092   6.446   0.404 -0.0370  0.2740 -0.0810
 3559W        W23093   5.701  12.340   0.338 -0.3421 -0.0997 -0.2961
 3560W        W23094   4.073   7.951   2.039 -0.0491  0.1117  0.0168
 3561W        W23095   4.690   8.565  11.824 -0.0489 -0.3386  0.0454
 3562W        W23096   4.406   7.217   2.264  0.0978 -0.2090  0.0574
 3563W        W23097   7.961  13.988  15.635 -0.1790  0.0244 -0.0654
 3564W        W23098   5.230  13.966   3.289  0.1347  0.0023  0.1911
 3565W        W23099   8.234   6.264   1.673 -0.1438  0.0751  0.1738
 3566W        W23100   5.679   3.456  11.667  0.0667  0.3024 -0.0993
 3567W        W23101  13.607  14.985  11.171 -0.4078  0.0191  0.2639
 3568W        W23102   5.689   2.303   3.012 -0.1442 -0.1434  0.1171
 3569W        W23103  13.563  13.364  12.277  0.3506  0.1065 -0.1452
 3570W        W23104  15.796  16.521   2.523 -0.0780  0.0763 -0.4083
 3571W        W23105  15.116   7.234   1.386  0.0922 -0.1490  0.1126
 3572W        W23106   7.996   3.753  12.933 -0.3151 -0.1938 -0.2975
 3573W        W23107  16.747   3.241   0.596 -0.1709  0.3634 -0.0796
 3574W        W23108  17.119   8.055  11.600 -0.0087 -0.2433  0.1154
 3575W        W23109  15.093   1.222  14.334 -0.1556 -0.0813 -0.1629
 3576W        W23110  15.363   4.134  11.392  0.2440 -0.1384  0.0554
 3577W        W23111   9.348   4.401  15.469  0.1950  0.0493  0.2146
 3578W        W23112  13.354  10.404  13.944 -0.0947  0.2104 -0.0329
 3579W        W23113  12.908   8.230  14.729 -0.1117 -0.2019  0.0536
 3580W        W23114  14.767   1.365   2.507 -0.0237  0.3035 -0.1530
 3581W        W23115  12.125  17.978   1.134  0.0834  0.3147 -0.2051
 3582W        W23116   1.187  15.855  13.586  0.0052 -0.2118 -0.1934
 3583W        W23117  15.392   2.149  13.279  0.0122 -0.0468 -0.2205
 3584W        W23118   1.085   3.168  11.386  0.1084  0.2301 -0.1126
 3585W        W23119  10.018   0.854   3.822  0.0724  0.1777 -0.1150
 3586W        W23120  11.696  18.157  13.215 -0.1034  0.1193 -0.3208
 3587W        W23121   9.037  11.267  12.828  0.0108  0.0840  0.2300
 3588W        W23122  15.940  10.950   2.647 -0.4312 -0.0309  0.1762
 3589W        W23123  11.596  15.309  14.693 -0.0566  0.3580 -0.1143
 3590W        W23124  13.940   0.842  14.531 -0.0938 -0.2506  0.0062
 3591W        W23125  18.169   7.891  14.017  0.0459  0.2039 -0.0527
 3592W        W23126  16.868  10.635   3.416  0.0631  0.0593  0.2313
 3593W        W23127   2.944   8.930   1.138 -0.0829 -0.1157 -0.0262
 3594W        W23128  10.192  14.533   4.789  0.2855 -0.1166  0.0006
 3595W        W23129   7.441   8.784   1.339  0.2316 -0.0218 -0.0166
 3596W        W23130   0.723  16.185  15.355  0.2391 -0.0846 -0.2479
 3597W        W23131  11.733   3.287   4.334  0.0311  0.1080 -0.0330
 3598W        W23132  10.151   6.184   3.781  0.0460 -0.1408  0.0549
 3599W        W23133   4.766   6.970  12.530 -0.2426 -0.0998 -0.2218
 3600W        W23134  11.588  13.292   0.962  0.0476  0.1589  0.0290
 3601W        W23135  14.068  13.874   2.996  0.1737 -0.1223  0.1225
 3602W        W23136   2.902  16.268  15.768  0.0651 -0.1454  0.0196
 3603W        W23137   9.329  10.698   1.699  0.1249  0.0401  0.2166
 3604W        W23138  16.096  11.326   2.293  0.2779 -0.1685  0.2319
 3605W        W23139  13.647   1.460   4.088 -0.0614 -0.1936 -0.1101
 3606W        W23140  13.640  15.803   1.152  0.3775 -0.1904  0.0327
 3607W        W23141  14.762   8.439   5.389  0.1710 -0.2258  0.2701
 3608W        W23142   4.045  15.318   3.086 -0.0022 -0.1358 -0.0353
 3609W        W23143  14.820   1.802   4.015 -0.3841 -0.2275  0.1350
 3610W        W23144   5.401  10.420   1.222  0.1120 -0.2050  0.0545
 3611W        W23145   6.652  12.003  11.522  0.0609 -0.0283 -0.3541
 3612W        W23146   1.840   9.886  12.972 -0.0937  0.0315  0.3315
 3613W        W23147  11.928   2.536   0.318 -0.1573 -0.2286 -0.2257
 3614W        W23148   8.791   3.680  15.291  0.1227  0.0634  0.2926
 3615W        W23149   4.532  15.977   4.227 -0.0073  0.2353 -0.0384
 3616W        W23150   0.759   1.217   0.830 -0.1578  0.4449  0.1104
 3617W        W23151   3.853   8.483  12.619  0.3227 -0.0673  0.1816
 3618W        W23152  10.815  14.497  12.807 -0.1136 -0.0088 -0.1011
 3619W        W23153  15.280   5.999   2.346  0.0461 -0.0782  0.0722
 3620W        W23154  11.471  12.535  12.925  0.1910 -0.0301  0.1426
 3621W        W23155  14.420   2.493   1.603 -0.1062 -0.1559  0.1600
 3622W        W23156   2.338   0.029   2.065  0.0117  0.0370 -0.0178
 3623W        W23157  15.631  12.640   4.707 -0.0773 -0.2129 -0.1461
 3624W        W23158   7.464  16.694  15.576 -0.1779 -0.2344 -0.5570
 3625W        W23159  16.343  14.076   3.153 -0.2141 -0.0598 -0.1414
 3626W        W23160  10.099   8.795   4.049  0.0411  0.1534 -0.0315
 3627W        W23161  14.934  11.770   3.019 -0.0158  0.1827 -0.1611
 3628W        W23162  11.105  15.703   4.507 -0.3442 -0.0986 -0.2376
 3629W        W23163   8.579  12.228  12.097  0.3707 -0.2155 -0.0540
 3630W        W23164   8.706   9.544   0.814 -0.0427  0.0859 -0.0227
 3631W        W23165  10.683  14.770   3.569  0.3157  0.1936  0.1179
 3632W        W23166   5.337   4.939   1.030  0.3660 -0.1417  0.0189
 3633W        W23167  14.864   0.461  12.020  0.1520 -0.0682 -0.0852
 3634W        W23168  11.463  15.605  14.255 -0.2878 -0.0632  0.1550
 3635W        W23169  15.156   1.808  15.118 -0.2433 -0.1361  0.3621
 3636W        W23170  17.097  10.965   2.002  0.0154 -0.0792 -0.2955
 3637W        W23171   8.814  15.175  15.386 -0.0434  0.1819 -0.1136
 3638W        W23172   8.866   3.121  11.542 -0.3405 -0.0379 -0.1120
 3639W        W23173  11.699  10.104   2.617 -0.0482  0.2781  0.0857
 3640W        W23174  10.682   4.155  12.831 -0.0815 -0.0647 -0.0052
 3641W        W23175   3.294   0.788   3.653 -0.2071 -0.0520  0.3765
 3642W        W23176  15.809  11.086   4.309  0.4457  0.0459  0.0124
 3643W        W23177   3.184  15.002   3.404 -0.3360 -0.0320  0.0537
 3644W        W23178   5.812   2.783   1.537 -0.2793 -0.0333 -0.1627
 3645W        W23179   3.839   4.168   0.568 -0.0057  0.2529 -0.1759
 3646W        W23180   5.504   4.887  15.926  0.2099  0.2868  0.1521
 3647W        W23181  13.365   0.353  15.210  0.1395  0.0737  0.0622
 3648W        W23182   6.044  11.699  13.776  0.2453 -0.2509 -0.0233
 3649W        W23183  16.576  11.477   0.006 -0.4664 -0.0979 -0.0944
 3650W        W23184   0.981   9.806  14.543 -0.1040 -0.1436 -0.0478
 3651W        W23185   9.462   7.243   0.648 -0.0554  0.1026 -0.0394
 3652W        W23186   6.625  13.417   1.757 -0.2636  0.0873 -0.3516
 3653W        W23187  12.480   9.036   1.452 -0.2170 -0.0252 -0.1099
 3654W        W23188   9.383  11.221   4.951 -0.5106  0.2194  0.2856
 3655W        W23189   2.969   8.071   2.700  0.0565 -0.1144  0.0416
 3656W        W23190   8.617  17.143  16.058  0.2085  0.1464 -0.0281
 3657W        W23191  11.226  12.415  12.432  0.0555 -0.1522  0.3104
 3658W        W23192  16.229  12.252   2.803  0.1055  0.0044  0.0700
 3659W        W23193  13.162   3.680   4.395  0.0229 -0.0373 -0.1717
 3660W        W23194   6.795   5.155   2.079 -0.1676  0.2035  0.1442
 3661W        W23195  14.677   4.777   0.877  0.0672 -0.3128 -0.0282
 3662W        W23196  11.138  14.450  13.812  0.0533  0.0853  0.3878
 3663W        W23197  16.175  12.574  15.598 -0.0972 -0.3334  0.0485
 3664W        W23198  15.241   6.544  12.902 -0.1061  0.1493  0.0770
 3665W        W23199   5.050  17.486  15.341 -0.1454  0.0412 -0.0181
 3666W        W23200   4.249   0.768  14.106 -0.2174 -0.1476  0.1473
 3667W        W23201   3.880  13.165   2.760  0.2642 -0.1175 -0.1922
 3668W        W23202   0.980  13.570   2.928  0.1874  0.0624 -0.2503
 3669W        W23203   4.648   9.241   0.524  0.0548 -0.1319 -0.0865
 3670W        W23204   7.906   0.703   2.885  0.0223  0.1764  0.0439
 3671W        W23205   9.296  17.408  12.114 -0.1188  0.1548 -0.3070
 3672W        W23206  17.895  16.510   2.336 -0.2218  0.1167  0.0051
 3673W        W23207  16.362  13.911   0.017  0.2107  0.1025  0.2057
 3674W        W23208  18.049  14.617  14.217  0.1720  0.1838 -0.3665
 3675W        W23209   7.191   9.089   2.354 -0.0204 -0.0791  0.0125
 3676W        W23210   8.855  15.338   2.178 -0.0667  0.2536 -0.0895
 3677W        W23211   2.917  16.682  16.017  0.5933  0.0484  0.2292
 3678W        W23212  15.655   7.664  15.946 -0.1638 -0.1742  0.2472
 3679W        W23213  12.349  16.935   2.332 -0.0760  0.2555 -0.0366
 3680W        W23214  18.184   8.572   0.588  0.0075  0.2254  0.3551
 3681W        W23215   0.713   0.277  12.892  0.0212  0.3218 -0.1231
 3682W        W23216   8.745   1.882   1.337 -0.1560  0.3500  0.0721
 3683W        W23217   8.411  15.329   1.596 -0.1212  0.2471  0.0088
 3684W        W23218   0.888   6.970   1.537  0.0531 -0.0035 -0.3667
 3685W        W23219  14.139  16.634   1.389 -0.2426 -0.1293 -0.2970
 3686W        W23220  12.171   3.047  11.916  0.0688 -0.1192  0.0327
 3687W        W23221   6.683   4.351  12.468  0.3293 -0.0459 -0.1684
 3688W        W23222   9.736  10.356  13.837  0.0264 -0.1255  0.1915
 3689W        W23223  12.005   5.015   5.273  0.3616 -0.3491  0.1894
 3690W        W23224   2.251   9.993  14.074  0.1886 -0.2597  0.3039
 3691W        W23225   7.744   9.067  14.835 -0.0849 -0.1631 -0.0992
 3692W        W23226   7.745  15.741  14.345  0.3809 -0.0045 -0.1524
 3693W        W23227   7.255   5.411  12.393 -0.0629  0.0655  0.1530
 3694W        W23228  13.390   2.949  11.064  0.0881  0.2125  0.0141
 3695W        W23229  17.552   9.085  11.378 -0.1738 -0.3714  0.2488
 3696W        W23230  14.938   0.842  15.963  0.0485  0.0655  0.3703
 3697W        W23231  13.810   2.857  13.397 -0.1717 -0.0059 -0.0090
 3698W        W23232  12.178   9.534  13.213  0.0691  0.1669  0.0683
 3699W        W23233   1.172   0.892  14.177 -0.3014 -0.0703  0.2284
 3700W        W23234  13.301   7.045   1.621  0.0014  0.0301  0.3018
 3701W        W23235   3.055   3.329   1.123 -0.1251  0.0657  0.1399
 3702W        W23236  11.179   3.220   1.889  0.1165  0.0632 -0.0723
 3703W        W23237   4.457  13.222   0.860 -0.0285  0.0967  0.1832
 3704W        W23238   2.039   2.474  13.261  0.1136 -0.0007  0.2960
 3705W        W23239   8.240   2.270  13.604 -0.2321  0.0395 -0.4015
 3706W        W23240   0.613  13.966  15.232 -0.0370  0.0392 -0.1148
 3707W        W23241  17.727  12.934   2.380  0.1895  0.0390  0.2197
 3708W        W23242  14.200   9.942   2.952  0.1095 -0.1217 -0.1740
 3709W        W23243  12.376  10.667  13.918  0.0428 -0.0543 -0.5078
 3710W        W23244   2.425  14.234  14.124  0.3394 -0.1965  0.2446
 3711W        W23245   9.704  10.563   0.296  0.0441 -0.6436  0.3683
 3712W        W23246   3.401   0.156   0.107  0.0793 -0.0107 -0.1144
 3713W        W23247   7.873   2.621  15.897  0.1196 -0.2484  0.1257
 3714W        W23248   1.616   5.496   1.095  0.0689 -0.0747 -0.0656
 3715W        W23249  10.980   7.786   2.518 -0.0049  0.2525 -0.1574
 3716W        W23250  10.637   9.659   4.472 -0.0607 -0.3070  0.0835
 3717W        W23251   7.529  12.625  14.624 -0.1483 -0.0676  0.3560
 3718W        W23252   8.602   1.435  12.231  0.1312  0.0931  0.0768
 3719W        W23253   6.487  15.817  15.979  0.1089 -0.2133 -0.2407
 3720W        W23254  14.151   1.166  14.210  0.2063  0.1338 -0.0651
 3721W        W23255   7.664   2.333  13.024 -0.2732  0.1583  0.2801
 3722W        W23256   7.446   1.302   2.795 -0.0316 -0.1819  0.2500
 3723W        W23257   5.190   7.867   4.411  0.1259 -0.2320  0.2318
 3724W        W23258  17.696  16.961   2.434 -0.0034 -0.2188  0.4986
 3725W        W23259  16.377  14.144  12.715 -0.1453  0.1529 -0.1313
 3726W        W23260  16.990  10.889  15.039  0.0376 -0.1664 -0.0560
 3727W        W23261   7.751  11.628   4.731 -0.0875  0.2247 -0.1820
 3728W        W23262  16.061  15.429   2.234 -0.0644 -0.1280 -0.0418
 3729W        W23263  17.750  11.658  14.422 -0.1733 -0.4885 -0.0843
 3730W        W23264  11.398  14.883  11.510  0.0572 -0.1609  0.2240
 3731W        W23265  17.461  14.408   3.974 -0.1373  0.0726  0.0026
 3732W        W23266   2.518  11.714   1.986  0.3333 -0.1190  0.0767
 3733W        W23267   7.320  17.221   1.970 -0.2642 -0.1317  0.0206
 3734W        W23268  13.234  17.560  16.056 -0.1055  0.0703  0.0570
 3735W        W23269  14.174   4.182  13.752  0.2485 -0.1054  0.3236
 3736W        W23270   4.726  17.208  15.631  0.1391 -0.0864 -0.0819
 3737W        W23271   0.385   2.816   2.360 -0.1999  0.1784 -0.1507
 3738W        W23272   1.280  16.991  14.271  0.0068  0.0041  0.0382
 3739W        W23273   5.253   2.240   4.655  0.0107 -0.1211  0.3398
 3740W        W23274  10.006   3.940  14.493 -0.0616  0.0636  0.1113
 3741W        W23275   2.612   2.398  13.735 -0.1613  0.2601 -0.3012
 3742W        W23276  15.299   2.574   4.915  0.2178 -0.0718  0.2567
 3743W        W23277   0.571  10.251   2.744  0.0032  0.2671  0.1190
 3744W        W23278   6.896  14.396  12.190  0.0229  0.0027 -0.3383
 3745W        W23279   6.967   3.116  13.926  0.0906  0.2175 -0.1333
 3746W        W23280  13.584  17.575   2.637 -0.0234 -0.1432  0.2052
 3747W        W23281  14.519   0.118  10.346  0.2964 -0.0649  0.1005
 3748W        W23282   0.376   7.843   3.247 -0.2674  0.0929 -0.1620
 3749W        W23283   6.849  14.881  12.019  0.1085  0.1960 -0.1248
 3750W        W23284  17.507   0.359  12.594 -0.0727 -0.2561 -0.0964
 3751W        W23285   2.756   2.148   2.077 -0.1809  0.2423 -0.1714
 3752W        W23286  16.132  15.441   1.278 -0.4111  0.0455  0.0537
 3753W        W23287  11.079   4.404  13.076  0.0737 -0.0294 -0.0302
 3754W        W23288   4.697  14.106  12.310 -0.0058  0.0518 -0.0620
 3755W        W23289  17.821   3.833  14.998  0.3502  0.1818  0.1893
 3756W        W23290   6.203   0.645  12.470 -0.2678  0.0152 -0.1305
 3757W        W23291   5.779  16.046   2.533  0.2287 -0.1870 -0.0750
 3758W        W23292   7.297  10.159  12.721 -0.0289 -0.1432  0.0443
 3759W        W23293  12.123   0.569  12.159 -0.1550  0.0718 -0.0989
 3760W        W23294   4.104  12.436   1.225  0.2586  0.0315  0.0362
 3761W        W23295   2.909   9.557  12.138 -0.2344  0.1617 -0.1599
 3762W        W23296  11.142   3.893  13.592  0.0120 -0.0401  0.1006
 3763W        W23297   9.587  15.736  12.812 -0.1163 -0.0408 -0.2548
 3764W        W23298  13.717   8.113  11.722 -0.0282  0.0885 -0.1630
 3765W        W23299  17.802  10.202  11.714 -0.0531  0.1009  0.0499
 3766W        W23300   5.191  17.335   0.164  0.0395  0.1157 -0.1499
 3767W        W23301   8.418   0.483   3.516  0.2107  0.0109 -0.2048
 3768W        W23302  16.473  12.812  13.543  0.0924  0.0651 -0.1672
 3769W        W23303   4.576   9.925  14.454 -0.4128 -0.4240 -0.2017
 3770W        W23304   6.152   8.166  13.398 -0.3051 -0.1834 -0.2856
 3771W        W23305  15.898  13.727  14.834  0.0083  0.1260  0.3268
 3772W        W23306   4.867  15.294   2.114 -0.1525 -0.1832 -0.0958
 3773W        W23307   9.879  15.411  13.961  0.0324  0.0814  0.0419
 3774W        W23308  13.177  12.248  15.422 -0.0848 -0.0978 -0.0982
 3775W        W23309  17.524   7.207  13.790  0.0264 -0.1518 -0.0417
 3776W        W23310   9.375   4.517   3.997 -0.0173 -0.0098 -0.0278
 3777W        W23311   6.957   2.763   3.968  0.1554 -0.0472 -0.0402
 3778W        W23312  16.553   4.688   0.835  0.2694 -0.3894  0.0389
 3779W        W23313  10.453   2.831   0.943 -0.0891 -0.1200 -0.0889
 3780W        W23314   6.138   7.915   0.924  0.1317 -0.2125 -0.2688
 3781W        W23315   2.155   8.610  12.523 -0.1215  0.0409  0.0638
 3782W        W23316  14.438   0.522   2.248 -0.1059  0.0377  0.0896
 3783W        W23317  13.881  12.911   3.712  0.0660  0.1021  0.2302
 3784W        W23318   9.161   9.215  13.092  0.2690 -0.1399 -0.0104
 3785W        W23319   4.848  12.978  13.662  0.0641 -0.1401  0.1927
 3786W        W23320  17.771  15.601   3.395 -0.0088 -0.0320  0.3534
 3787W        W23321   1.679  12.978   2.750 -0.1623  0.2730  0.1186
 3788W        W23322  11.705   2.867  14.824  0.1644 -0.1419  0.3434
 3789W        W23323   3.071   9.685   3.210  0.1393 -0.3474 -0.0194
 3790W        W23324   7.313   7.441   4.089 -0.0561 -0.2787 -0.0080
 3791W        W23325   3.278   8.694   0.304  0.1142  0.1062 -0.0070
 3792W        W23326   0.119   4.520  13.242 -0.0586 -0.2311  0.2830
 3793W        W23327   3.952   7.911   1.517 -0.2497  0.2468 -0.0533
 3794W        W23328  11.893  11.021   0.149  0.2948  0.0399 -0.1628
 3795W        W23329   4.595   4.957  14.412  0.0237 -0.2314  0.1240
 3796W        W23330   0.054   4.048  14.924  0.0523 -0.4211 -0.0900
 3797W        W23331  16.790  17.703   0.621  0.1768 -0.3363 -0.0334
 3798W        W23332   1.737   7.759   0.456 -0.2859  0.0273 -0.0050
 3799W        W23333  11.947  16.090   2.675  0.1702 -0.1560 -0.1420
 3800W        W23334   9.917   0.153  10.235  0.1104 -0.2443  0.1602
 3801W        W23335  11.978  17.259  11.898  0.2051  0.1202  0.1368
 3802W        W23336   8.394   1.915   3.328  0.0948  0.0524 -0.3690
 3803W        W23337  17.495   3.104   2.036 -0.2075 -0.2390 -0.1671
 3804W        W23338   7.927   8.248  11.779  0.0619  0.1278 -0.0165
 3805W        W23339   4.577   4.525  11.716  0.3021 -0.1440 -0.1314
 3806W        W23340  15.442  12.802  13.256  0.1282 -0.0769  0.2875
 3807W        W23341  16.069   6.127  13.205  0.1346 -0.0835 -0.1495
 3808W        W23342   9.914  12.829  12.045 -0.0322 -0.0113 -0.0377
 3809W        W23343   6.346  13.399   1.225 -0.1912 -0.0664  0.0582
 3810W        W23344   3.301   1.902   2.718  0.3227 -0.0356  0.0533
 3811W        W23345   1.179   6.392   0.453 -0.1053 -0.1154  0.2486
 3812W        W23346  10.692   7.360  13.154 -0.2080  0.0167 -0.0394
 3813W        W23347  17.482   2.908  15.971 -0.0028  0.2872  0.0341
 3814W        W23348   9.738   8.856   4.677  0.5692  0.3954  0.0544
 3815W        W23349   7.916  16.251  14.405  0.2844  0.2441  0.3294
 3816W        W23350  12.971   5.722   3.442 -0.1821  0.1477  0.0285
 3817W        W23351   4.887   5.418   4.457 -0.2890  0.1356  0.1457
 3818W        W23352   1.895   0.976  14.953  0.0364 -0.0322 -0.0199
 3819W        W23353  10.833  13.237   1.956  0.0077  0.1309  0.1454
 3820W        W23354  15.544  12.850  13.731  0.1046 -0.0586 -0.1114
 3821W        W23355  13.634   9.216  13.653 -0.0414  0.3537 -0.2836
 3822W        W23356  11.246   2.671   1.266  0.0143 -0.1180 -0.1189
 3823W        W23357   7.903   9.966   2.870 -0.0954 -0.3327 -0.1527
 3824W        W23358  14.309   9.633  14.095  0.1581  0.1016 -0.1933
 3825W        W23359   5.397   9.557  11.443 -0.1575  0.1125  0.3286
 3826W        W23360  12.544  12.545  12.945 -0.0693  0.0060 -0.0619
 3827W        W23361   4.063   4.581   0.933  0.2109  0.3616 -0.2283
 3828W        W23362  18.064   9.890   2.671  0.1781  0.3580 -0.0576
 3829W        W23363   6.113  14.712  15.338  0.0025  0.0102 -0.1320
 3830W        W23364  16.295   0.081  13.389  0.2462  0.5647  0.1796
 3831W        W23365  15.751   9.104  14.645 -0.0101 -0.4429  0.0203
 3832W        W23366  14.757  13.572  12.753  0.0032  0.0739  0.0100
 3833W        W23367   0.270  14.112  13.315  0.2493  0.0185  0.2473
 3834W        W23368  10.054   5.879  13.688  0.0136  0.2211  0.1689
 3835W        W23369  10.914   4.371  13.633 -0.0528 -0.0822 -0.1492
 3836W        W23370   9.726   4.878   3.820 -0.0365 -0.1161  0.0915
 3837W        W23371  14.277   4.737  12.949  0.1537 -0.1483  0.2318
 3838W        W23372   0.119   0.335   3.425 -0.0957 -0.1281  0.1040
 3839W        W23373   7.821   3.580   4.638  0.1794  0.2608 -0.1401
 3840W        W23374   2.869  15.901   2.543 -0.1995  0.1649 -0.0026
 3841W        W23375   4.879   8.215  13.750  0.1745  0.1186  0.0567
 3842W        W23376  12.620   5.455   1.319 -0.1466  0.2234  0.2046
 3843W        W23377  17.363   9.746   1.278  0.0483 -0.1943  0.1522
 3844W        W23378  16.035   8.078  15.883  0.2360 -0.5191  0.1991
 3845W        W23379  17.867   8.243   1.675 -0.1615  0.0960  0.0348
 3846W        W23380   3.696  11.857  11.352  0.1851 -0.1703  0.2534
 3847W        W23381   1.450  18.045   2.830  0.2417  0.2532  0.1764
 3848W        W23382  13.971   7.804  14.070  0.1448 -0.1000 -0.2640
 3849W        W23383   8.950  12.016   2.441  0.2267  0.0238 -0.0462
 3850W        W23384   9.269   3.915  15.835 -0.3448  0.0909  0.1062
 3851W        W23385   0.613  10.205  12.009 -0.1444  0.0398 -0.4588
 3852W        W23386   7.023   2.617  11.792  0.2323  0.2213  0.0846
 3853W        W23387   8.214   1.900   2.194  0.1269  0.0778  0.2201
 3854W        W23388  13.294   5.322   3.565 -0.2706  0.0889 -0.2061
 3855W        W23389  15.251  16.264  14.872  0.4803 -0.0777  0.2047
 3856W        W23390   2.616  11.662   4.630  0.2725  0.0330 -0.2828
 3857W        W23391   3.246   2.526   0.036 -0.0087  0.0598  0.0514
 3858W        W23392   1.815  10.640   1.063 -0.3651 -0.2448  0.0159
 3859W        W23393  14.378  11.501   1.029  0.0110  0.0374 -0.2382
 3860W        W23394   4.210   8.139  12.451  0.0012 -0.0694 -0.1196
 3861W        W23395   9.218   7.234  12.778 -0.2097 -0.1991 -0.1604
 3862W        W23396   6.475  10.760  13.771 -0.2896 -0.0063  0.1400
 3863W        W23397  11.486   3.731  10.777  0.1953 -0.0724  0.1946
 3864W        W23398  17.949   3.831  13.988 -0.2632 -0.0957  0.3148
 3865W        W23399   7.009  16.208   1.130  0.1370  0.0368  0.0482
 3866W        W23400   1.006   8.160  13.026 -0.0202  0.1611 -0.0850
 3867W        W23401   5.843  10.625   5.015  0.4172  0.1965 -0.1539
 3868W        W23402  10.807  13.120   4.635 -0.2338  0.1703  0.0727
 3869W        W23403   6.507  15.063  13.268  0.2018 -0.0633 -0.0872
 3870W        W23404  16.689   4.983  11.697  0.0006 -0.2194 -0.0097
 3871W        W23405  12.547   4.253   3.708  0.0470 -0.1269  0.1995
 3872W        W23406   7.686   9.977   0.545 -0.1657  0.0317  0.1432
 3873W        W23407   5.671   9.244   3.255  0.3841 -0.0660 -0.0064
 3874W        W23408   7.684   9.393  15.207  0.0226  0.0147  0.2428
 3875W        W23409   3.666   0.332   1.429 -0.1066 -0.3290 -0.0320
 3876W        W23410  16.378  11.844  11.657  0.0646  0.1651 -0.1998
 3877W        W23411  13.652   2.503  13.766 -0.0449 -0.1390 -0.1727
 3878W        W23412  16.743   5.935   0.691 -0.0467  0.0510  0.0426
 3879W        W23413  11.702  17.392   0.765 -0.2524  0.0784 -0.2132
 3880W        W23414   8.115   1.610   4.978  0.1105 -0.0884 -0.5750
 3881W        W23415   6.243   0.340   4.502  0.2744 -0.0293  0.0292
 3882W        W23416  11.036  16.692  12.790 -0.0537  0.0837  0.3201
 3883W        W23417   3.902  16.361   1.876  0.1512  0.0201 -0.1659
 3884W        W23418   5.132  10.749  12.908  0.3584 -0.2812  0.3208
 3885W        W23419   3.614   8.779  14.740  0.2608  0.0924  0.0252
 3886W        W23420  10.440   0.302  11.285  0.1564  0.0900 -0.0591
 3887W        W23421   3.261  11.558   0.365 -0.0896 -0.1842  0.0198
 3888W        W23422  16.230   7.925   2.068 -0.4378 -0.0857 -0.0014
 3889W        W23423  11.315  15.729  12.130 -0.1993 -0.3286  0.0898
 3890W        W23424   7.612   3.164   1.148  0.5787 -0.0738  0.2358
 3891W        W23425   3.530   8.329   3.301  0.1385 -0.2743  0.0170
 3892W        W23426   4.902  18.062  10.927 -0.0501 -0.0444  0.1382
 3893W        W23427   1.394  16.445  10.482 -0.1207  0.1342  0.1489
 3894W        W23428  16.224   7.134  12.086  0.1778 -0.3152  0.1081
 3895W        W23429  17.696  10.363   3.541  0.2493  0.1270  0.3164
 3896W        W23430  15.517  13.660   1.141 -0.2280  0.1998 -0.3553
 3897W        W23431   1.517   9.212   3.304 -0.3244  0.0922 -0.2607
 3898W        W23432  10.218   5.765   0.296 -0.0208 -0.0597 -0.0676
 3899W        W23433  17.123   4.027   0.585 -0.1103  0.0689  0.0444
 3900W        W23434   8.693   7.032  14.601  0.1031  0.0815  0.1359
 3901W        W23435   4.820  11.379  15.499  0.1509 -0.2552  0.1519
 3902W        W23436  17.925   5.819  13.775 -0.0311  0.2502 -0.3343
 3903W        W23437   2.527  18.131  15.257 -0.0271  0.3176 -0.0887
 3904W        W23438   2.168  10.049   3.741 -0.0375  0.2139 -0.0417
 3905W        W23439  13.982   8.494  12.161 -0.0229 -0.1254  0.1123
 3906W        W23440  13.319   1.038  11.479  0.0088 -0.1525 -0.2204
 3907W        W23441  16.315   0.661   0.476  0.1156 -0.0963 -0.1301
 3908W        W23442   8.342  17.378   4.036  0.1788 -0.1809  0.0017
 3909W        W23443   5.760   9.146  15.801 -0.1170  0.2642 -0.0928
 3910W        W23444  11.956  11.319  12.283 -0.0658  0.3164 -0.1111
 3911W        W23445  12.487  14.887   5.213  0.1659 -0.1486 -0.1876
 3912W        W23446  11.036  13.085  15.261  0.0383  0.0108 -0.0630
 3913W        W23447   3.296   6.347   3.470 -0.0022 -0.2963 -0.0411
 3914W        W23448  13.707   8.045  13.471 -0.1144  0.2534 -0.0777
 3915W        W23449   5.344   7.343   4.452  0.0292  0.2334  0.4857
 3916W        W23450   7.022   0.048  14.382  0.3571  0.0407  0.0481
 3917W        W23451  11.895  10.127  15.682  0.1057  0.0214 -0.0742
 3918W        W23452  11.855  11.548   1.440  0.0319  0.2470  0.1762
 3919W        W23453   4.502   0.026  15.078 -0.1832  0.2084 -0.0414
 3920W        W23454   7.923   3.148   1.952 -0.1594 -0.1396 -0.0796
 3921W        W23455   4.216  13.519  14.652 -0.1266  0.0745 -0.0572
 3922W        W23456  15.783  13.135   3.563  0.3318  0.0989 -0.0797
 3923W        W23457   5.303   5.462  14.044 -0.3181 -0.0616  0.1735
 3924W        W23458   9.580   2.225   3.957 -0.0217 -0.0485  0.2912
 3925W        W23459  16.026   2.583  11.396  0.0487  0.0342  0.0102
 3926W        W23460  14.907   9.546  11.540 -0.3125 -0.0737  0.1437
 3927W        W23461   7.154  14.975  12.855  0.0003  0.2653 -0.0470
 3928W        W23462   6.985   5.023   3.439  0.2148  0.1754  0.0476
 3929W        W23463  12.294   0.751   4.051  0.1118  0.2377  0.0645
 3930W        W23464   3.541   8.483  10.258 -0.3252 -0.1602 -0.0720
 3931W        W23465   1.689   6.886  12.576  0.0565 -0.0298  0.0704
 3932W        W23466   1.260  14.411  15.969  0.0271 -0.0498  0.0377
 3933W        W23467   1.148  13.730  13.801 -0.1229 -0.0935  0.1077
 3934W        W23468   4.564   3.318  14.956 -0.1780  0.1386 -0.1874
 3935W        W23469  11.917   8.163   4.535  0.1061  0.2860 -0.0108
 3936W        W23470   6.331   3.831   3.469  0.2872  0.0817 -0.1748
 3937W        W23471   8.683   0.409  13.348 -0.1327  0.1263  0.2697
 3938W        W23472   0.216   9.904   0.690  0.1581  0.1239  0.2107
 3939W        W23473   5.466   3.273   0.382 -0.5779 -0.2454 -0.2257
 3940W        W23474  11.261  13.028  14.212  0.0290 -0.1686  0.1515
 3941W        W23475  15.732  15.574   0.100 -0.3873 -0.1315  0.0529
 3942W        W23476   4.415  10.948  14.001 -0.0988 -0.2691  0.1451
 3943W        W23477   9.165   8.596   1.740  0.0855 -0.1703 -0.0026
 3944W        W23478  14.800   6.487   3.301  0.1898 -0.1014  0.1914
 3945W        W23479  16.562  13.153   4.254  0.2317  0.1344 -0.0592
 3946W        W23480  12.997   7.853  15.175  0.3081 -0.0857  0.3476
 3947W        W23481  10.561   7.268  13.649 -0.1649 -0.0092 -0.3306
 3948W        W23482   3.608  14.655   0.489 -0.3666  0.1245  0.2079
 3949W        W23483   8.595  17.112  13.263  0.0824  0.3859 -0.1269
 3950W        W23484   3.236   7.288   3.313  0.2016  0.3108  0.2131
 3951W        W23485   7.294   2.092  14.088 -0.0952  0.3100 -0.1468
 3952W        W23486  10.799   6.701  14.209  0.0529 -0.0938 -0.0773
 3953W        W23487  18.097   8.310   4.401  0.0250 -0.0575  0.0622
 3954W        W23488   5.967   9.890   1.019  0.2822 -0.4271 -0.0258
 3955W        W23489   9.843  12.529  13.074  0.0081 -0.3469 -0.0686
 3956W        W23490   5.661   7.806   0.718  0.0978 -0.0095 -0.0988
 3957W        W23491  11.766   7.688  12.694  0.4223  0.1589  0.2324
 3958W        W23492   3.290  16.018  15.373  0.1649  0.0694  0.0104
 3959W        W23493  10.715   2.120  11.501  0.1167 -0.0866  0.2238
 3960W        W23494  16.704   4.213  14.445 -0.3770 -0.0102  0.0894
 3961W        W23495   0.099   8.847  14.833 -0.0160  0.0043  0.2105
 3962W        W23496   5.033  17.802  12.636 -0.2008  0.0983 -0.1537
 3963W        W23497  12.824  11.628  11.150 -0.1507  0.2024 -0.0430
 3964W        W23498  17.738  13.422  14.238  0.2427 -0.1192  0.2982
 3965W        W23499  15.425  16.894  15.567  0.0214  0.2921  0.2549
 3966W        W23500   6.144   7.144   4.203  0.1972  0.4083 -0.0060
 3967W        W23501  12.858  10.989   3.064  0.4055 -0.1033  0.2453
 3968W        W23502   0.528  17.460  12.695  0.0743 -0.0070  0.1109
 3969W        W23503   9.249   3.245   0.831  0.1912 -0.1675  0.0602
 3970W        W23504  17.254  17.781   3.340  0.0241  0.3272 -0.0759
 3971W        W23505   4.731  18.085  14.182 -0.0490 -0.0275  0.3915
 3972W        W23506   2.162   2.089   2.964  0.1056 -0.0953  0.0329
 3973W        W23507  12.166  17.845   4.250 -0.0819 -0.1452  0.2214
 3974W        W23508  16.517   6.595   0.709  0.3352 -0.1076  0.1815
 3975W        W23509  10.239  10.021   4.331  0.0285  0.0417 -0.0851
 3976W        W23510  12.547   0.162  13.528 -0.3029 -0.3062  0.1754
 3977W        W23511   3.195   8.843   3.437 -0.3706 -0.0232  0.2536
 3978W        W23512  17.325  13.342   4.461  0.0571  0.1521  0.0151
 3979W        W23513   1.299  11.129   2.296  0.0142  0.2723  0.1650
 3980W        W23514   2.223  13.614  15.191  0.1564  0.3869 -0.4072
 3981W        W23515   3.136  14.279  14.276 -0.2882  0.0753 -0.0079
 3982W        W23516  17.265   9.574   2.754  0.1518 -0.0728 -0.1772
 3983W        W23517   1.834  13.131   1.441  0.2768  0.0012 -0.4710
 3984W        W23518   9.950  17.530   2.643  0.0772 -0.2908  0.1149
 3985W        W23519   6.358   6.281  13.240 -0.1559 -0.0487  0.3814
 3986W        W23520   2.939  17.142  13.293  0.2195 -0.0891 -0.1755
 3987W        W23521  17.649  17.973  11.584  0.0776  0.0901 -0.3511
 3988W        W23522   0.911  11.962   4.989 -0.0711  0.0255 -0.1860
 3989W        W23523  14.672   7.935  11.762  0.0293 -0.1105 -0.1401
 3990W        W23524  13.259  12.492  14.998  0.3949 -0.1190  0.0245
 3991W        W23525   0.031   9.816  15.229  0.0215 -0.0373 -0.1713
 3992W        W23526  16.122   6.418   3.076 -0.1777  0.2023 -0.2376
 3993W        W23527   0.050   9.309  14.558  0.0250  0.3412  0.3702
 3994W        W23528  11.420  12.699   0.369  0.3290 -0.0963 -0.3745
 3995W        W23529  18.011   9.477   1.778 -0.0981  0.1131  0.0979
 3996W        W23530  11.914   8.117   0.012  0.2013  0.1152  0.1201
 3997W        W23531   4.012  10.638  12.503  0.1525  0.0397 -0.2920
 3998W        W23532  13.911   3.576  12.170  0.1526  0.1293  0.1835
 3999W        W23533   9.617   9.007  15.602  0.0097 -0.3456 -0.1009
 4000W        W23534   8.242  11.420   3.941  0.0683  0.0841 -0.0101
 4001W        W23535  17.703   2.448  14.144 -0.1441 -0.1703 -0.1920
 4002W        W23536   9.041   0.307   4.086  0.1226 -0.0317 -0.0498
 4003W        W23537  12.429  14.071   3.353  0.0674 -0.0226  0.0319
 4004W        W23538   9.091   5.874   1.954 -0.2433 -0.1294  0.1506
 4005W        W23539  12.128   6.186  15.633  0.3489 -0.2317 -0.0556
 4006W        W23540  10.920   2.247   2.184  0.1093  0.0294 -0.3223
 4007W        W23541  12.246   5.321  12.127  0.0865  0.0696  0.1601
 4008W        W23542   5.019  12.026   1.617  0.1060 -0.1733 -0.0363
 4009W        W23543  13.538  16.028   2.858 -0.0830 -0.0302  0.3262
 4010W        W23544   8.266   9.568  13.613 -0.2729 -0.1078  0.0299
 4011W        W23545  14.352   4.262  14.186 -0.0439 -0.1886 -0.2379
 4012W        W23546   0.646  17.685  14.115  0.1031  0.3454  0.2011
 4013W        W23547   0.221  16.069  14.420 -0.0066  0.0455 -0.0725
 4014W        W23548  11.349   8.433   1.334  0.0034 -0.3000 -0.5417
 4015W        W23549   2.031  12.688  12.534 -0.3604  0.0072 -0.0046
 4016W        W23550  15.849  13.259  13.071  0.0754 -0.2571  0.2847
 4017W        W23551   2.708   1.648   1.974  0.0954  0.2642 -0.0318
 4018W        W23552  15.119  10.882   1.814  0.0153  0.3764 -0.2278
 4019W        W23553  10.671  13.847   4.085 -0.2058  0.1639 -0.0104
 4020W        W23554  18.093   4.269   3.993 -0.1744  0.0510 -0.0434
 4021W        W23555   4.652   8.929   2.918 -0.1898  0.2117 -0.0679
 4022W        W23556  16.870   9.674   1.146  0.3131 -0.2792 -0.0329
 4023W        W23557  16.497  12.445  14.587  0.1605  0.0373  0.0467
 4024W        W23558   8.352   4.721  13.870 -0.0736  0.1709  0.0282
 4025W        W23559  10.410   0.170   2.373  0.0354 -0.2437 -0.1837
 4026W        W23560  14.066   7.614  15.589  0.1348  0.0070  0.1151
 4027W        W23561   5.531  10.760  14.949  0.4100  0.2042  0.2411
 4028W        W23562   6.115   9.615  12.539 -0.0318 -0.2741 -0.0586
 4029W        W23563  13.725   5.840  13.434  0.0779 -0.1129  0.0604
 4030W        W23564  13.363   4.413   0.989 -0.0401  0.0889 -0.0540
 4031W        W23565   6.110   7.786   2.387  0.0068 -0.1143  0.1260
 4032W        W23566   3.543  16.745   2.604 -0.1522  0.1828 -0.0149
 4033W        W23567   4.008   2.548  12.648  0.2515 -0.1309 -0.0882
 4034W        W23568   1.108   6.407   2.252 -0.2686  0.1435  0.1653
 4035W        W23569   0.483   8.843  15.144 -0.1694 -0.2072  0.0448
 4036W        W23570  15.752  12.223   4.902 -0.0609 -0.1069  0.0654
 4037W        W23571   7.840   8.938   0.234 -0.2085  0.1588  0.2467
 4038W        W23572   2.941   3.382  12.384  0.2051  0.3264 -0.3122
 4039W        W23573  15.787   2.163   2.303  0.0591 -0.0923 -0.1531
 4040W        W23574   3.826   3.565   2.922 -0.3108  0.0819 -0.1441
 4041W        W23575  11.677   3.168   2.751  0.3841 -0.1057  0.3335
 4042W        W23576   1.259  15.937   1.555 -0.0432 -0.2648  0.0098
 4043W        W23577  16.304  17.924   1.413  0.0251  0.4850 -0.0248
 4044W        W23578  10.738  11.238  11.589 -0.3558  0.0766 -0.0098
 4045W        W23579  11.339   7.507   3.769  0.2286  0.0738  0.2660
 4046W        W23580   4.967   0.859  11.958  0.1285 -0.4116  0.0861
 4047W        W23581   9.901  12.380  15.364  0.2401 -0.3051  0.3875
 4048W        W23582   8.343   2.497  12.527 -0.0400 -0.1352  0.0004
 4049W        W23583   0.262   2.203   0.736  0.0136 -0.1036 -0.2250
 4050W        W23584   0.604  14.468   3.405  0.0694 -0.2966 -0.0263
 4051W        W23585  10.511   9.524   1.612 -0.2160  0.0993 -0.2497
 4052W        W23586   7.284  13.832   1.089  0.1072  0.2290  0.0799
 4053W        W23587  12.607  10.832  14.851 -0.2830 -0.1149 -0.1535
 4054W        W23588  11.820  15.667  13.747  0.1225  0.1012  0.2064
 4055W        W23589   3.053  13.367  14.113 -0.1518  0.0424 -0.0785
 4056W        W23590  14.648   9.725  16.011 -0.1228 -0.0418  0.2937
 4057W        W23591   6.803  15.743  12.543  0.0199 -0.1413 -0.0811
 4058W        W23592   5.394   7.595  12.573  0.0063  0.0226 -0.1749
 4059W        W23593  17.465   1.686  12.683 -0.2284 -0.0344 -0.0432
 4060W        W23594   6.956   3.068   3.544 -0.3459  0.1534 -0.1611
 4061W        W23595   8.954  16.048   2.910 -0.1403 -0.0688 -0.1237
 4062W        W23596  16.839  16.818  15.478  0.0279  0.1281  0.0830
 4063W        W23597  14.852  12.515   4.276  0.0427  0.2279 -0.1814
 4064W        W23598   8.377   8.778  13.932  0.1400 -0.0179  0.0319
 4065W        W23599   0.181   2.728  11.513 -0.2189 -0.3098 -0.2867
 4066W        W23600   0.458  16.869  14.159 -0.1097  0.1698  0.0447
 4067W        W23601  18.121  14.731  15.151  0.1209  0.0825 -0.0577
 4068W        W23602  14.910   4.516   3.324  0.0652  0.1540  0.0417
 4069W        W23603   0.616   3.723   3.826 -0.0828  0.2462 -0.0259
 4070W        W23604  13.558  10.391   0.082 -0.0280 -0.0216  0.0115
 4071W        W23605   3.285   0.238   1.084  0.3036 -0.2161 -0.0585
 4072W        W23606  15.205  11.337  12.304  0.1844 -0.1950 -0.0943
 4073W        W23607   5.422  13.013  10.775  0.2523 -0.3463  0.0611
 4074W        W23608  13.656   6.590   0.323  0.0825 -0.1156  0.5029
 4075W        W23609   5.492  16.482   2.429  0.0149  0.1780  0.1056
 4076W        W23610   3.810   9.294  12.514 -0.0775  0.1503 -0.1032
 4077W        W23611   6.528   2.894  11.755  0.0572 -0.0105 -0.0061
 4078W        W23612   7.831  15.760   1.487  0.2668  0.3383 -0.2756
 4079W        W23613   5.623  10.332  15.197  0.1308  0.1902  0.1681
 4080W        W23614   4.320  13.180   2.443  0.0027 -0.0746  0.3091
 4081W        W23615  17.139  11.343  14.818  0.0309 -0.1781  0.1848
 4082W        W23616   1.007  12.291  13.359 -0.1256  0.1545 -0.2608
 4083W        W23617  18.104  14.825   2.895 -0.1817  0.2955  0.1365
 4084W        W23618  13.486  14.649  13.143  0.1114 -0.2009  0.0360
 4085W        W23619   9.390  16.585  14.796  0.1957 -0.1941  0.3328
 4086W        W23620   4.012  10.666  14.070  0.0478  0.1072  0.0303
 4087W        W23621   6.373  17.862  12.896 -0.3031  0.1244 -0.0092
 4088W        W23622   9.252   1.769   2.092 -0.1165  0.3985 -0.0616
 4089W        W23623   9.343  13.128   1.954  0.3128 -0.0514 -0.1570
 4090W        W23624   9.847  15.575   4.442  0.0720 -0.1055 -0.0158
 4091W        W23625  13.060  12.761   3.757 -0.1601  0.2592 -0.2015
 4092W        W23626  17.764  12.406   2.863 -0.1224 -0.0933 -0.3461
 4093W        W23627   7.660  10.900  15.606 -0.3288  0.0067 -0.0517
 4094W        W23628   8.609  13.489   1.775  0.0690  0.1161 -0.0339
 4095W        W23629  10.109   6.386  12.237  0.2162  0.1763  0.2028
 4096W        W23630   9.078  14.296  12.572  0.1701 -0.1398  0.0439
 4097W        W23631   1.371   7.393   0.994  0.0762 -0.1676 -0.1450
 4098W        W23632  16.977  11.321   2.288 -0.0882 -0.1130 -0.1687
 4099W        W23633   5.863  18.116   1.205  0.0639  0.0975  0.1126
 4100W        W23634  12.179   7.352  12.822 -0.1795 -0.0465 -0.0456
 4101W        W23635   5.992   7.106  15.138  0.0707 -0.3812  0.2338
 4102W        W23636   0.928   3.254   1.927 -0.1112 -0.0434  0.3266
 4103W        W23637  12.625   5.012   3.019 -0.0837  0.0814 -0.1954
 4104W        W23638  14.878   1.890  11.582  0.0124 -0.0299  0.2232
 4105W        W23639   7.670  11.637   4.170  0.4514 -0.1415  0.0181
 4106W        W23640  14.642  12.913  14.897  0.1456 -0.2719 -0.1805
 4107W        W23641  14.861   1.126   1.646  0.0948 -0.0488 -0.1080
 4108W        W23642  12.862  12.392   4.108  0.0439  0.0266 -0.2348
 4109W        W23643   8.956   2.176   2.272 -0.0426 -0.3346 -0.0952
 4110W        W23644   2.521  11.055  11.654 -0.1125  0.0271  0.2060
 4111W        W23645  13.447  15.577  14.740  0.4081  0.2334  0.0874
 4112W        W23646   5.764   4.344  12.224  0.1149  0.2091  0.1024
 4113W        W23647   3.817  16.337  13.338  0.0169 -0.0154 -0.1226
 4114W        W23648   4.236  13.505  13.397 -0.0335 -0.1739 -0.0341
 4115W        W23649   6.663   8.354  13.486  0.2085  0.0034 -0.2295
 4116W        W23650  15.831  11.650  13.955 -0.0523  0.2043  0.2540
 4117W        W23651   7.781  17.093  13.762  0.0930  0.1459 -0.0268
 4118W        W23652  13.370  13.734   2.566  0.0571  0.1137  0.0359
 4119W        W23653  15.206  14.837   3.277  0.0047  0.0354 -0.1774
 4120W        W23654   9.578  13.452  11.237 -0.3031 -0.1664 -0.0314
 4121W        W23655   6.611  17.702  15.969 -0.0592 -0.1748  0.0063
 4122W        W23656  15.726  11.212  12.751 -0.0739  0.1684  0.1315
 4123W        W23657   6.098   3.195   1.264 -0.1539  0.4306 -0.0519
 4124W        W23658   9.189  11.867  11.962  0.2603  0.1860  0.2565
 4125W        W23659  17.635   3.442  14.109 -0.0627 -0.0575 -0.2518
 4126W        W23660   3.097   3.408  11.909 -0.1701  0.1672 -0.4677
 4127W        W23661   9.448  16.012   0.394 -0.0458 -0.0843 -0.2383
 4128W        W23662   2.570  14.013   3.572  0.0796 -0.0929 -0.0313
 4129W        W23663  17.639   0.236   2.892 -0.2385  0.1060 -0.1579
 4130W        W23664   1.465  15.150   2.737 -0.0363  0.1146  0.0701
 4131W        W23665  13.036  14.129  15.698 -0.1094  0.0876  0.0949
 4132W        W23666  13.771  12.883  15.192 -0.3829 -0.2391 -0.0421
 4133W        W23667   2.429   2.484  15.810 -0.0107 -0.3843  0.0901
 4134W        W23668   5.333   3.710  11.195  0.0957 -0.0972 -0.0804
 4135W        W23669   8.401   3.786  12.538  0.0614  0.1887  0.0740
 4136W        W23670   6.441   7.444   3.955  0.0043  0.0387 -0.1956
 4137W        W23671   1.942  13.574   4.026  0.0262  0.2592  0.0163
 4138W        W23672  12.071  11.378  12.800  0.0421 -0.1734 -0.0304
 4139W        W23673   0.700  15.965  13.507  0.1093  0.2495  0.1202
 4140W        W23674   1.974   0.159  13.012 -0.1255 -0.1440  0.1421
 4141W        W23675  17.174   8.732  13.704  0.0918  0.0724 -0.0666
 4142W        W23676   2.649  16.284  15.184 -0.2102 -0.0275  0.0487
 4143W        W23677   0.050   3.523  15.056  0.0631  0.0633 -0.2521
 4144W        W23678  10.422  15.874   0.642 -0.1687 -0.0374 -0.3713
 4145W        W23679   5.131  17.790  14.585 -0.1411 -0.1822  0.2703
 4146W        W23680   2.226   5.251  11.465  0.0835 -0.1952  0.2225
 4147W        W23681   7.162   5.484   2.209  0.2681  0.1026 -0.3046
 4148W        W23682   5.700   9.759   3.268  0.0163 -0.2728 -0.0530
 4149W        W23683  17.182   2.668   1.398  0.0575 -0.0705  0.0567
 4150W        W23684   6.234  11.796   2.723 -0.1580 -0.0536  0.1878
 4151W        W23685   3.668   6.783   4.389  0.2443  0.1994 -0.0816
 4152W        W23686  13.590  11.505  12.911  0.1566  0.2648 -0.1287
 4153W        W23687  16.907   5.820   4.131  0.2651 -0.0084  0.1863
 4154W        W23688   4.420   3.539   0.189 -0.1984 -0.3007 -0.1298
 4155W        W23689  16.776   9.819  11.435  0.1142 -0.0768  0.0409
 4156W        W23690   4.975   8.208  15.254 -0.2099  0.2296  0.0854
 4157W        W23691  10.569  11.901  13.333  0.0607  0.3514  0.1240
 4158W        W23692   2.634  13.853   0.772  0.0507  0.2739  0.3137
 4159W        W23693  14.580   0.771  11.176  0.1536 -0.1299 -0.0742
 4160W        W23694  15.930  11.092   4.959 -0.0298 -0.3165  0.0550
 4161W        W23695  12.239   1.741  12.746  0.1515  0.3473 -0.1962
 4162W        W23696  15.205  10.489  11.690  0.0318  0.0903 -0.3254
 4163W        W23697  10.219   2.472  15.949  0.0219  0.0291  0.0388
 4164W        W23698   8.271  12.518  12.915 -0.1979 -0.1278 -0.1925
 4165W        W23699  14.895  18.128  14.410  0.1067 -0.1304 -0.1719
 4166W        W23700  11.769  15.924   2.222  0.3629  0.1481 -0.0462
 4167W        W23701  15.016   8.755   3.192 -0.0168  0.0510 -0.0569
 4168W        W23702   5.332   4.055  12.136  0.0228 -0.0797  0.1103
 4169W        W23703   7.676  16.308   3.752 -0.0019 -0.1868  0.3749
 4170W        W23704   9.364   1.256  13.609  0.0693  0.0043 -0.0319
 4171W        W23705  12.891  12.858   4.250 -0.0239  0.1182 -0.1716
 4172W        W23706   2.717   7.067  12.313  0.1012 -0.1533 -0.2947
 4173W        W23707   7.882   6.112   3.199 -0.0616  0.2983 -0.4578
 4174W        W23708  14.250   3.261  12.778  0.0249  0.2013 -0.2371
 4175W        W23709  17.366  18.030  14.567 -0.0853 -0.0645  0.0974
 4176W        W23710   1.020   1.815   0.281 -0.2481  0.1131 -0.0015
 4177W        W23711   3.568  10.140   2.569  0.1797  0.2490 -0.1173
 4178W        W23712   8.569   0.085  14.870 -0.3102  0.1763 -0.1418
 4179W        W23713   5.841  15.105  15.049  0.1743 -0.2340  0.0369
 4180W        W23714   0.210   1.216  11.500  0.1145  0.0369  0.1750
 4181W        W23715  11.175   0.984   3.934  0.1590  0.2248  0.0995
 4182W        W23716   0.202   7.483   2.825  0.0006 -0.3667  0.1308
 4183W        W23717   7.020   9.898  14.534  0.1060  0.1422  0.0670
 4184W        W23718   6.892  11.564   1.882 -0.2657 -0.0481 -0.2304
 4185W        W23719  14.010  14.594   4.467  0.0324  0.2665 -0.2298
 4186W        W23720   9.757   1.141  13.141 -0.0430 -0.1985 -0.1059
 4187W        W23721   1.038  16.348  11.359 -0.4445 -0.2330 -0.0918
 4188W        W23722   3.992   3.954  12.313 -0.1314  0.1194 -0.1924
 4189W        W23723   8.549  10.937  13.382 -0.3394 -0.3527  0.1464
 4190W        W23724   9.393  12.112  15.959 -0.0591 -0.1695 -0.1248
 4191W        W23725  10.000   7.110   1.811 -0.0932 -0.0001 -0.0521
 4192W        W23726   3.008  10.478   2.552 -0.0944 -0.3428  0.2199
 4193W        W23727   7.388   9.434  13.314  0.1459  0.0103  0.6513
 4194W        W23728   8.288   0.812   1.935 -0.0529 -0.1195  0.0219
 4195W        W23729   1.051   0.497   3.653  0.1316  0.0866 -0.1099
 4196W        W23730   5.330  18.187  13.816 -0.0311 -0.0183 -0.1109
 4197W        W23731   3.065   1.721  14.238  0.0984 -0.1710  0.1213
 4198W        W23732   3.120   1.008   3.191 -0.0044 -0.1737  0.2444
 4199W        W23733  14.928   2.554  12.022  0.0494  0.2200 -0.0468
 4200W        W23734  10.469   3.323   1.578 -0.2150  0.2284 -0.0564
 4201W        W23735  16.577  15.251   5.337 -0.0250  0.2588  0.1154
 4202W        W23736   2.246   9.402  14.536  0.0644  0.1844 -0.1614
 4203W        W23737  12.648  10.082  13.572  0.1854  0.0905  0.1656
 4204W        W23738  12.209   2.026   0.026  0.1128  0.1269  0.0897
 4205W        W23739   9.361   3.818  12.964 -0.2789 -0.2139  0.2028
 4206W        W23740   5.445   2.654   3.914  0.0653 -0.3123  0.3479
 4207W        W23741  12.242   3.557  15.860  0.0020 -0.0038 -0.2793
 4208W        W23742  13.405  12.258  11.532  0.1573 -0.0987 -0.0413
 4209W        W23743  10.216   8.327   4.244  0.4137 -0.0365  0.2711
 4210W        W23744   7.036   4.009  11.458 -0.1487 -0.0851 -0.1612
 4211W        W23745   8.871  12.189  11.641 -0.2457  0.0284 -0.1787
 4212W        W23746   0.550  13.316   1.568 -0.0114 -0.1578 -0.2753
 4213W        W23747  14.570  17.969   5.712  0.2248  0.0397 -0.0326
 4214W        W23748  13.287   2.679   0.534  0.1241 -0.0072  0.2287
 4215W        W23749   4.306   4.985  16.056 -0.1908 -0.0528 -0.1209
 4216W        W23750   2.707   4.273   4.294  0.0945 -0.0243 -0.0517
 4217W        W23751   6.450   3.693   4.129  0.0574 -0.1588 -0.1962
 4218W        W23752   4.012  11.052  13.764  0.0463  0.1016  0.1338
 4219W        W23753  16.963   8.235  12.502  0.1372 -0.1013  0.2532
 4220W        W23754  11.710  14.113   1.088  0.0303 -0.2884 -0.2888
 4221W        W23755  16.156  10.048   1.935  0.1279 -0.2733 -0.1767
 4222W        W23756  10.204   8.974   2.962 -0.1277  0.1875  0.0579
 4223W        W23757  14.104  17.544  15.725  0.1527  0.0703 -0.1061
 4224W        W23758  17.364   6.138  12.022  0.1669 -0.1107  0.0122
 4225W        W23759   4.233  17.768   4.037  0.1490 -0.1167 -0.2359
 4226W        W23760   6.673  15.519   0.680 -0.0851  0.0834  0.2622
 4227W        W23761  17.650   4.577  16.010 -0.0038  0.2000  0.3859
 4228W        W23762   5.942   4.146  14.934  0.0384  0.2202  0.0957
 4229W        W23763  10.744  13.859  16.014  0.2979 -0.0761 -0.0303
 4230W        W23764   9.767  17.648   3.910  0.1035  0.2625  0.0861
 4231W        W23765   8.279   1.360   4.490 -0.2716  0.3270  0.2373
 4232W        W23766  10.940   1.484   1.016 -0.0033  0.0604  0.0598
 4233W        W23767   8.620  14.651   1.026 -0.1853  0.0066 -0.1693
 4234W        W23768   0.843   1.009   3.708 -0.0211  0.2873  0.1103
 4235W        W23769   5.128  15.072   2.819 -0.0432 -0.1818 -0.0425
 4236W        W23770   2.953   8.637  15.936 -0.3385  0.1577 -0.1504
 4237W        W23771  16.318   1.047  15.681  0.1535  0.0760 -0.0106
 4238W        W23772  14.215  13.553  12.379 -0.0105  0.0848 -0.2333
 4239W        W23773  13.115   1.798  14.027 -0.0602  0.1745  0.1819
 4240W        W23774  12.112  12.759   4.522 -0.0366 -0.0781 -0.0831
 4241W        W23775   9.881  11.694   3.488 -0.0051 -0.1986  0.1384
 4242W        W23776   0.263   4.487  14.923  0.2841 -0.1361 -0.1982
 4243W        W23777   4.281  15.711   0.175  0.1448  0.2498 -0.2521
 4244W        W23778  10.058   2.431  12.769  0.2016  0.1211 -0.0956
 4245W        W23779  16.307  10.701  15.661 -0.1052  0.1368 -0.1106
 4246W        W23780   0.401  17.940  12.661 -0.2456 -0.4582  0.2482
 4247W        W23781   8.106  15.983   3.287  0.3040  0.2846  0.0659
 4248W        W23782   6.201  11.187  11.533 -0.0974 -0.1128  0.0560
 4249W        W23783   3.226  17.769   1.085  0.2758  0.0323  0.2206
 4250W        W23784   2.557  13.258  15.191  0.0214  0.0175  0.1746
 4251W        W23785  14.075  15.089   3.200  0.0473  0.1207  0.1082
 4252W        W23786  10.151  14.748   3.349  0.0899  0.3995  0.1692
 4253W        W23787  16.807   1.623   2.764  0.0531  0.1228  0.1144
 4254W        W23788   3.580   7.973  11.580 -0.0459  0.1249 -0.0192
 4255W        W23789   6.414  14.644  12.987  0.1274  0.0275 -0.3644
 4256W        W23790  10.146   5.119   3.656 -0.2415 -0.0271  0.0745
 4257W        W23791   1.421  17.154   2.274  0.4440 -0.2743 -0.0848
 4258W        W23792  15.738  17.600  11.777  0.0218 -0.1011 -0.2748
 4259W        W23793   5.755   2.303   0.544 -0.0590 -0.1997 -0.3422
 4260W        W23794  10.839   3.900   1.099 -0.0456 -0.2251  0.0522
 4261W        W23795  10.180  16.746  12.269 -0.3591  0.1739 -0.2654
 4262W        W23796   8.353  11.003   3.644  0.2008 -0.1473  0.1615
 4263W        W23797   9.886   3.121  12.933 -0.1200  0.3570  0.0184
 4264W        W23798  17.032  10.151   2.343 -0.3318  0.2868  0.2114
 4265W        W23799   3.176  15.996   0.654  0.1195  0.0413  0.1912
 4266W        W23800   9.092  15.799  13.171 -0.2263 -0.1208 -0.1153
 4267W        W23801   9.077  17.977  15.031 -0.2484  0.2950  0.0409
 4268W        W23802   7.407   8.859  14.433 -0.1795  0.0356  0.1442
 4269W        W23803  13.818   3.051  12.938  0.1109 -0.0176  0.0542
 4270W        W23804  12.338  16.010   2.323 -0.0814  0.2050 -0.2522
 4271W        W23805  15.814   4.683  12.296  0.1689  0.3486  0.0746
 4272W        W23806   2.658   9.068  11.811  0.3747 -0.1807  0.0550
 4273W        W23807  14.643   8.219  12.277 -0.0277 -0.1236  0.1661
 4274W        W23808   4.136   4.406  14.143 -0.0238 -0.0627  0.1260
 4275W        W23809   3.179  15.717   2.202 -0.0259  0.1201  0.1216
 4276W        W23810  17.927   5.694  15.078 -0.0412 -0.0905 -0.0214
 4277W        W23811  15.134  14.840  12.843 -0.4353  0.1936  0.1428
 4278W        W23812  17.317  16.838  15.599 -0.1424  0.1063 -0.2696
 4279W        W23813  17.204  15.767   0.319 -0.2423 -0.0001  0.1129
 4280W        W23814   0.486   9.668  15.404 -0.2307 -0.2381 -0.1351
 4281W        W23815  12.721  11.061  13.990  0.0257  0.2426 -0.0486
 4282W        W23816  11.741   7.809   3.633 -0.0075 -0.0045  0.0297
 4283W        W23817  13.333   2.605  13.409  0.0708  0.1173 -0.2315
 4284W        W23818   9.257  13.547   0.473  0.0107  0.0380 -0.1187
 4285W        W23819   5.993   2.940  12.353 -0.3123  0.1939 -0.0589
 4286W        W23820   3.221   7.491  13.084  0.0003  0.0701 -0.1515
 4287W        W23821  13.324   5.031   1.088  0.0756  0.0454  0.0672
 4288W        W23822   1.522  12.117  15.574 -0.4701  0.0032  0.1360
 4289W        W23823  13.212  10.614   4.905 -0.1128 -0.0175 -0.3672
 4290W        W23824   2.714   1.460   4.622 -0.2058  0.0476 -0.2967
 4291W        W23825  10.990  10.564  13.041 -0.1616  0.1414  0.1835
 4292W        W23826   2.176   1.015   4.224  0.0639 -0.3846  0.1071
 4293W        W23827  13.889  17.286  12.963  0.1325 -0.1815  0.1967
 4294W        W23828   7.373   9.591   3.698 -0.0844  0.4226  0.0858
 4295W        W23829   0.802  11.405   2.012 -0.4680  0.0083  0.0771
 4296W        W23830   4.722   2.902  12.868 -0.1333  0.0293 -0.2188
 4297W        W23831  10.006  10.093   0.409  0.0430 -0.4004  0.1310
 4298W        W23832   3.952  17.154  12.094 -0.2130 -0.2933 -0.0605
 4299W        W23833   4.339   8.604   3.532 -0.0855 -0.1242  0.1623
 4300W        W23834   9.920   0.454  12.659 -0.4171 -0.1363 -0.0403
 4301W        W23835  16.177   2.367  14.373 -0.0875  0.0150  0.1700
 4302W        W23836  14.905  16.332  15.213 -0.2479  0.1572  0.3532
 4303W        W23837  13.329   9.501  12.365  0.1486  0.1251 -0.1984
 4304W        W23838   4.696  15.213   4.742  0.0927  0.0441 -0.2862
 4305W        W23839  11.257   2.124  12.759 -0.3155 -0.1996  0.0434
 4306W        W23840   2.298   5.295  14.109  0.1765 -0.4570 -0.1024
 4307W        W23841   6.414   6.798  15.472  0.2979  0.0395  0.1983
 4308W        W23842  11.493  16.593   4.353  0.0751  0.2798  0.0702
 4309W        W23843   0.233  16.901   1.078  0.2958 -0.0984  0.2667
 4310W        W23844  11.938   5.944   0.736  0.1049 -0.1526  0.0000
 4311W        W23845  13.879  12.099  14.033 -0.3329  0.1573 -0.1453
 4312W        W23846  11.552  14.210   1.598 -0.1428  0.1268  0.2780
 4313W        W23847   0.745   3.266  13.459 -0.3643 -0.1199 -0.0011
 4314W        W23848   0.815   5.524  11.818 -0.2323 -0.1124 -0.2220
 4315W        W23849   3.872   5.054   1.026  0.1882  0.4428 -0.0175
 4316W        W23850   1.783  17.160   3.310 -0.1629  0.0577  0.0822
 4317W        W23851   6.782   4.310   1.047 -0.0562 -0.0387  0.1882
 4318W        W23852   0.259   6.896   2.017 -0.0685  0.0751  0.0844
 4319W        W23853   6.120   8.362   1.229 -0.2131 -0.0717 -0.1212
 4320W        W23854  10.219   8.511   1.178 -0.2188 -0.1236  0.0839
 4321W        W23855   7.005   7.880  15.719  0.1410  0.0009 -0.1754
 4322W        W23856  14.846   2.604   0.488 -0.1242 -0.4387  0.0604
 4323W        W23857   3.758  11.767   0.331  0.1317  0.0313 -0.1629
 4324W        W23858   8.159  17.616  12.151  0.2715 -0.0516 -0.1983
 4325W        W23859   1.119  15.547   2.894 -0.0585  0.1227  0.0049
 4326W        W23860  16.825   4.951   3.926 -0.2011  0.1561  0.0057
 4327W        W23861   5.994  16.938  13.355  0.3031  0.0657  0.3346
 4328W        W23862   9.851  14.325  12.464  0.1715 -0.2403 -0.1036
 4329W        W23863   6.835  10.501  13.419 -0.2210 -0.1721 -0.0865
 4330W        W23864   2.333   1.065   1.486 -0.1068 -0.0828  0.0349
 4331W        W23865   8.469   3.918  13.621  0.1597 -0.0756  0.0518
 4332W        W23866   5.983  10.020  15.528  0.0057 -0.1201  0.1113
 4333W        W23867   0.910   1.559  13.432  0.0423 -0.2222 -0.2747
 4334W        W23868   6.586   9.728   3.530 -0.1406 -0.2908  0.1040
 4335W        W23869   3.726   6.515   1.150  0.1058  0.1836  0.3590
 4336W        W23870   6.779   3.262   4.123 -0.0643  0.1170 -0.1688
 4337W        W23871  17.550   7.342   4.401 -0.1383 -0.0089  0.1591
 4338W        W23872   0.392  16.776   3.558  0.0947  0.1081  0.1686
 4339W        W23873   8.281   8.458   1.120  0.0758 -0.1779  0.0588
 4340W        W23874  15.034   7.685   3.948 -0.1817  0.0696 -0.1027
 4341W        W23875   9.535  13.483   5.276  0.0643 -0.0692  0.0173
 4342W        W23876   1.706  16.701  12.411  0.0422 -0.0121 -0.1498
 4343W        W23877   0.709  13.967  11.011 -0.1259  0.0793 -0.3186
 4344W        W23878  11.030   3.432  12.418  0.3669 -0.1682  0.2190
 4345W        W23879   3.338   1.452  12.102 -0.0096  0.4169 -0.0671
 4346W        W23880   3.706  13.302  14.761 -0.4596  0.3096 -0.0335
 4347W        W23881   0.620   5.238   1.750 -0.3591 -0.3425  0.3447
 4348W        W23882   0.482   5.367  13.695 -0.0001  0.0280  0.3504
 4349W        W23883   9.217   2.201  12.240  0.0743 -0.1390  0.1634
 4350W        W23884  13.980   1.439   3.633  0.0227  0.1783 -0.1152
 4351W        W23885   0.810  12.756   2.343 -0.0185  0.1791  0.0200
 4352W        W23886  18.014   2.292   1.527 -0.1552  0.0298  0.1527
 4353W        W23887  14.406   0.042   2.925  0.0854  0.1936 -0.0947
 4354W        W23888  15.975  13.249  14.353  0.0783 -0.2522 -0.0065
 4355W        W23889  15.144   9.874  13.066 -0.2215  0.1402  0.0613
 4356W        W23890  13.614   5.510  15.086  0.2204 -0.0809  0.1455
 4357W        W23891   3.886   3.301   3.865 -0.0079 -0.3642 -0.0271
 4358W        W23892  16.739  16.885  14.478 -0.0682  0.1226 -0.1154
 4359W        W23893   5.973   2.067  15.804  0.0676  0.1232 -0.1819
 4360W        W23894  11.049  11.222   2.777  0.0809  0.2804  0.0047
 4361W        W23895  16.651   3.215  12.979 -0.2096 -0.1582  0.2354
 4362W        W23896   3.626   0.492  12.177  0.3240  0.0748  0.0505
 4363W        W23897  17.853   7.783   1.512  0.3086 -0.1111  0.4089
 4364W        W23898  15.861   3.390   1.761 -0.0559  0.2293 -0.0837
 4365W        W23899   3.866   8.681   3.727  0.2608 -0.0822  0.2578
 4366W        W23900  12.096  13.587  11.847  0.0362  0.1238 -0.1765
 4367W        W23901  15.343   1.863   4.117  0.0922  0.6144  0.3694
 4368W        W23902   8.068   5.040  11.107  0.1922 -0.0759 -0.0573
 4369W        W23903  16.805  14.508   4.652 -0.4201  0.1276 -0.0819
 4370W        W23904  13.552  12.252   4.431  0.3226 -0.0293  0.2323
 4371W        W23905  12.747  16.639  13.646  0.1265  0.1779  0.0892
 4372W        W23906  12.203   5.734  14.490  0.2149  0.0393 -0.0372
 4373W        W23907  12.412  15.723   0.064 -0.1691 -0.2557  0.0269
 4374W        W23908  11.419   8.960  14.042 -0.0019 -0.0286  0.0818
 4375W        W23909  16.871   8.547  12.922  0.2377  0.3533  0.1064
 4376W        W23910   8.443  16.850   1.426 -0.0256 -0.0064  0.0986
 4377W        W23911  13.518   2.242   2.489  0.1694  0.1966 -0.1776
 4378W        W23912  16.677   9.574   2.951 -0.0685 -0.0529  0.0540
 4379W        W23913  10.718   7.654  15.253 -0.3123 -0.1412 -0.0735
 4380W        W23914  15.200  17.600   4.406  0.1868 -0.0019 -0.0022
 4381W        W23915   8.064  12.336   5.113 -0.1476 -0.1112 -0.1417
 4382W        W23916   0.988  15.512  12.692 -0.0399  0.2674 -0.1092
 4383W        W23917   6.200   3.464   3.088  0.1465  0.1270 -0.0122
 4384W        W23918   8.487   9.502   4.526  0.2746  0.1236  0.2547
 4385W        W23919  10.781   6.384  12.702 -0.1249 -0.0089 -0.3180
 4386W        W23920   3.961   7.428  15.545  0.0197  0.0642 -0.4740
 4387W        W23921  15.297  16.270   0.717  0.4989 -0.0562  0.2312
 4388W        W23922  13.808   1.506  15.844  0.0368 -0.3935 -0.3287
 4389W        W23923  13.366  18.083   2.967  0.1346  0.0587  0.1284
 4390W        W23924   6.634  11.010  11.290 -0.0909  0.3682  0.0105
 4391W        W23925   1.019  17.977   3.070  0.0137 -0.1702  0.0823
 4392W        W23926  14.163  13.180  13.508  0.0755  0.1416  0.0964
 4393W        W23927   5.703  15.063   1.886 -0.2333  0.1822  0.1535
 4394W        W23928  11.328   4.612  11.635 -0.0847  0.3452 -0.3224
 4395W        W23929  11.863   9.156  12.440 -0.3251 -0.0064 -0.0727
 4396W        W23930  16.965  11.849   4.784  0.1156  0.0472  0.2014
 4397W        W23931  17.477   3.964   3.154  0.1375 -0.0253 -0.0492
 4398W        W23932  11.628  17.140   4.052  0.1339  0.1019  0.0040
 4399W        W23933   4.481   4.371   0.615  0.1842  0.0296 -0.1345
 4400W        W23934   0.589  11.284   1.116  0.0854  0.0509 -0.1616
 4401W        W23935  13.218   3.565   5.150  0.1643  0.1923  0.0589
 4402W        W23936   0.799   8.068   4.040  0.1137  0.3549  0.0209
 4403W        W23937  10.076   8.159   1.537 -0.1043 -0.1226  0.0440
 4404W        W23938  17.126  15.776  12.461 -0.3548  0.0381  0.2839
 4405W        W23939  13.710   7.802  12.616  0.1196 -0.2390 -0.0027
 4406W        W23940  12.596  12.522  15.908  0.0359 -0.0893 -0.1929
 4407W        W23941  17.954  13.702  12.514 -0.0329 -0.0958 -0.2763
 4408W        W23942   5.782   1.120   1.591 -0.1479 -0.1390  0.1834
 4409W        W23943  18.099   4.853   4.750  0.0900  0.3325 -0.0550
 4410W        W23944  16.913   5.213  14.701 -0.1370  0.0067 -0.0593
 4411W        W23945  14.388  15.023   1.679  0.0401 -0.1882  0.3657
 4412W        W23946  17.532   8.454  13.439  0.0075 -0.0522  0.0585
 4413W        W23947   8.735  17.319  15.005  0.0053  0.1128  0.0772
 4414W        W23948   9.128   8.491   3.115  0.0143 -0.0235  0.1894
 4415W        W23949   7.238   7.113  12.240 -0.0861 -0.0293 -0.1628
 4416W        W23950  14.450   8.258  15.475  0.0246 -0.1262 -0.1845
 4417W        W23951  15.658  15.083  14.835  0.0070 -0.0332 -0.1344
 4418W        W23952   1.701  13.461   3.394 -0.0246  0.1335 -0.2098
 4419W        W23953   8.818  17.778   5.277  0.0775 -0.1175 -0.2894
 4420W        W23954   9.908  17.342   1.542 -0.0119 -0.0118 -0.0215
 4421W        W23955   9.539   7.636   2.063 -0.0415 -0.0036  0.3267
 4422W        W23956   8.195  14.989  13.267  0.0941  0.0600  0.1773
 4423W        W23957   6.068   0.958   2.016  0.0432 -0.2245 -0.0253
 4424W        W23958  12.984  11.985   3.582  0.1839  0.0736  0.1590
 4425W        W23959  16.262  10.732  13.503 -0.3783 -0.1644 -0.1652
 4426W        W23960  13.850  10.022  15.874  0.0166  0.0368 -0.3668
 4427W        W23961  12.950   0.899  13.316 -0.0755 -0.0236 -0.0387
 4428W        W23962  16.856   9.916   5.190  0.0514 -0.4300  0.2467
 4429W        W23963  11.277   7.442   1.214  0.1713  0.3911 -0.2178
 4430W        W23964  13.507   8.064   4.006 -0.3046  0.0349 -0.0848
 4431W        W23965   2.436   3.000  11.318  0.4563  0.1578  0.0765
 4432W        W23966  16.496   4.369  14.981  0.4386 -0.1230 -0.3735
 4433W        W23967  16.744   7.650  12.460 -0.1879  0.0416 -0.1612
 4434W        W23968   0.830  12.722  13.619  0.1388 -0.0326 -0.1946
 4435W        W23969  12.739  15.345  15.717 -0.1394  0.1576 -0.0260
 4436W        W23970  17.384   8.038   1.445 -0.2306  0.1003 -0.1415
 4437W        W23971  13.172  12.712  15.803  0.0856 -0.2438  0.1884
 4438W        W23972   5.660  14.854  14.655 -0.2982  0.0805  0.0349
 4439W        W23973   9.990   2.674  13.263  0.1306  0.0986  0.1361
 4440W        W23974   1.494   2.312  11.877  0.0516  0.2552 -0.0860
 4441W        W23975  14.100   8.664   3.744  0.1358  0.1390  0.0978
 4442W        W23976  12.059  10.175  14.445 -0.1255  0.2810  0.0875
 4443W        W23977   0.831   1.276   4.262 -0.0816  0.3286  0.0225
 4444W        W23978   1.776   2.294  14.712 -0.0287  0.0306 -0.1187
 4445W        W23979   7.662  18.109   1.434  0.3457  0.1984 -0.0005
 4446W        W23980   7.054   7.314  11.401  0.0529 -0.0399 -0.0796
 4447W        W23981   3.794  11.357   1.186  0.1060  0.0196  0.1073
 4448W        W23982  12.055   7.029  15.951 -0.0139 -0.0279  0.1118
 4449W        W23983   6.966   1.019   2.007 -0.0815 -0.2475 -0.0154
 4450W        W23984  13.376   4.836   0.672  0.1703  0.4231 -0.2338
 4451W        W23985   4.267   7.857   0.672 -0.1302  0.1983  0.0637
 4452W        W23986  13.427   2.080   3.393  0.0575  0.0124  0.0472
 4453W        W23987  15.232   0.262   0.340  0.2255 -0.1648 -0.4298
 4454W        W23988   8.775  11.196   0.774  0.1510  0.1631  0.0597
 4455W        W23989  10.097  14.422  15.743  0.0403 -0.0622  0.1677
 4456W        W23990   5.743   3.374  15.646  0.0751  0.1902  0.1199
 4457W        W23991   4.214  15.209   0.502 -0.4164 -0.0776 -0.1592
 4458W        W23992   5.988   9.868   1.902  0.2822 -0.0654  0.1799
 4459W        W23993  11.311   1.929   3.049 -0.1592 -0.2186  0.1432
 4460W        W23994   6.457   1.647  15.583 -0.0909 -0.1196 -0.0391
 4461W        W23995   6.815  10.071  12.924  0.1464  0.0947 -0.0361
 4462W        W23996  12.868   1.368  14.841 -0.0497 -0.3097 -0.1381
 4463W        W23997  12.746  12.461   1.611 -0.0475 -0.5011 -0.1441
 4464W        W23998  18.039  13.946   4.525 -0.0361  0.1609 -0.0414
 4465W        W23999  15.479  10.641  15.386 -0.0983 -0.1420  0.2381
 4466W        W24000   7.321  15.273  13.809 -0.5289 -0.3364  0.3317
 4467W        W24001  15.493  16.816  13.659  0.3849 -0.1871  0.0271
 4468W        W24002  14.291   3.283   1.857 -0.0973 -0.3813  0.2073
 4469W        W24003  15.058  14.766  15.427 -0.1431  0.2027 -0.2280
 4470W        W24004   4.340   5.092   3.165 -0.0710  0.0429  0.0917
 4471W        W24005  11.968  15.553  14.355  0.1821  0.0629  0.0494
 4472W        W24006   8.967  17.963  14.521  0.0826  0.3868 -0.0366
 4473W        W24007  17.805   3.471   6.111  0.0495  0.0098 -0.0463
 4474W        W24008   8.629  14.437   3.853 -0.1307  0.1416 -0.2870
 4475W        W24009  17.242   1.349   0.977 -0.1515 -0.2318  0.0266
 4476W        W24010  15.809  15.758   5.135 -0.0660  0.1083  0.1207
 4477W        W24011   1.650   5.828   3.063 -0.3562  0.0048 -0.3068
 4478W        W24012  15.691  15.432  12.357  0.1481  0.3920  0.0497
 4479W        W24013  17.135   3.114  12.965 -0.0141  0.0442  0.2195
 4480W        W24014  13.356   3.655  12.553 -0.1698 -0.0389  0.0047
 4481W        W24015   8.144   1.231  15.417  0.4698 -0.2643  0.2360
 4482W        W24016  11.302   8.435   0.359  0.0254 -0.0871  0.1512
 4483W        W24017   8.041   2.714  13.300 -0.1613  0.1249  0.0094
 4484W        W24018  10.090  15.908  13.314 -0.2097  0.0273 -0.2588
 4485W        W24019  12.557   9.623   0.057  0.1262 -0.0774 -0.3238
 4486W        W24020  16.034  16.001   4.716  0.3176 -0.1962 -0.1243
 4487W        W24021   8.182  16.702  14.541  0.0690  0.2223  0.4750
 4488W        W24022   2.768  13.244  13.687  0.0687  0.0984 -0.1601
 4489W        W24023   9.107   4.703  15.833  0.0189  0.2336 -0.3124
 4490W        W24024   2.146   8.081  14.623 -0.0937  0.3051  0.0542
 4491W        W24025  15.798   2.566   3.705  0.0609  0.1577  0.2575
 4492W        W24026   0.206  11.238  12.151 -0.0301 -0.2563 -0.0774
 4493W        W24027  11.740   7.532  15.154  0.0071  0.0102 -0.4122
 4494W        W24028   9.731   8.033   4.536  0.3890 -0.1317  0.0151
 4495W        W24029  10.505   8.752  13.885  0.1762 -0.0232 -0.1487
 4496W        W24030   0.360  18.110   0.220 -0.1734 -0.2128 -0.2126
 4497W        W24031   8.612   9.822   4.927 -0.1314 -0.0229 -0.0882
 4498W        W24032   8.509  15.311  12.794 -0.1291  0.2721  0.3444
 4499W        W24033   1.854   8.981   3.036  0.1413  0.4031  0.0146
 4500W        W24034  11.423   7.890  13.851 -0.2409  0.0758 -0.0273
 4501W        W24035  13.871  16.976   1.741  0.2098  0.0264  0.0553
 4502W        W24036   3.367  15.484  10.377  0.2344  0.0748 -0.0895
 4503W        W24037  13.946  15.286   2.466  0.0500 -0.1127  0.0369
 4504W        W24038  12.418   3.310  12.758  0.0388 -0.3150 -0.3054
 4505W        W24039   9.168   1.298   2.866 -0.1223 -0.1937  0.1171
 4506W        W24040  15.821   6.379  15.884 -0.0609  0.1565  0.3973
 4507W        W24041  17.652   2.818  13.541 -0.1419  0.2673  0.1068
 4508W        W24042  14.495  11.880   2.820 -0.2350  0.0729  0.1544
 4509W        W24043  17.230   8.041   4.323  0.0776  0.0798 -0.1627
 4510W        W24044   9.677  16.125   1.162 -0.3119  0.0142  0.2364
 4511W        W24045   0.267  13.896  13.840 -0.1028  0.0236 -0.1619
 4512W        W24046  14.841  17.966   2.965 -0.2179 -0.1567  0.1987
 4513W        W24047  11.410   0.530   4.033  0.0451 -0.2822 -0.0464
 4514W        W24048  15.349  17.176   4.683  0.2749 -0.1747 -0.0458
 4515W        W24049   6.242  10.863  14.651 -0.1006 -0.1009 -0.2380
 4516W        W24050   4.228  10.397  10.953 -0.1465 -0.2800  0.0129
 4517W        W24051   9.669   8.396  12.293  0.4068 -0.2349  0.0786
 4518W        W24052  12.409   7.558  13.715  0.0183 -0.1431 -0.2426
 4519W        W24053  15.889   5.308   2.394 -0.3951  0.1701 -0.0737
 4520W        W24054   7.894  11.474  14.450  0.1405  0.0870 -0.3452
 4521W        W24055   3.447  11.433  11.738 -0.0381 -0.0989  0.1639
 4522W        W24056   8.529   0.028  12.349 -0.1450 -0.0471  0.0418
 4523W        W24057   8.724  15.762   4.891  0.2637  0.3615 -0.0449
 4524W        W24058   9.958   5.335  10.279  0.2477 -0.1142  0.3830
 4525W        W24059   0.680   8.545  13.998  0.0710  0.0257 -0.1918
 4526W        W24060   3.570   4.305   4.630  0.0890  0.1108  0.1423
 4527W        W24061   4.607  10.952   0.190 -0.1293  0.1434  0.1883
 4528W        W24062  14.749  10.722   2.050 -0.0320  0.0593  0.0698
 4529W        W24063  12.969   1.607   1.566 -0.3194 -0.1381 -0.0906
 4530W        W24064  14.720   4.951  12.883 -0.0542 -0.0770 -0.0024
 4531W        W24065  12.722   2.118   0.028 -0.0561  0.2779  0.1566
 4532W        W24066   2.567  10.078  11.305  0.2915  0.1760  0.4015
 4533W        W24067   5.203   4.174  15.458 -0.1834 -0.0919  0.1011
 4534W        W24068   5.712  14.640  11.134  0.1883  0.2791  0.2299
 4535W        W24069  17.541  15.790  14.301 -0.1607 -0.0470 -0.0724
 4536W        W24070   8.609   5.999   1.973  0.2686 -0.3144  0.0282
 4537W        W24071   9.458   6.419   1.312 -0.0335 -0.1667 -0.2689
 4538W        W24072   6.309   1.490  13.733 -0.0978  0.0513  0.0960
 4539W        W24073   3.889  11.958  12.175 -0.0182  0.1253 -0.0943
 4540W        W24074   3.734  13.896  15.400  0.2834  0.0452 -0.0423
 4541W        W24075  12.876  12.776  14.926  0.3081  0.5818  0.0940
 4542W        W24076  15.770   1.227  15.361  0.2118 -0.0470 -0.1547
 4543W        W24077   8.261   5.039   0.866 -0.0674 -0.0489 -0.1609
 4544W        W24078  11.377  10.238  13.116  0.4831 -0.0720  0.0587
 4545W        W24079   3.013  13.229   3.216 -0.0949  0.3959 -0.1301
 4546W        W24080   1.545   8.866  11.229  0.0071  0.0387  0.0924
 4547W        W24081   9.679   2.330  14.580  0.0093  0.1333 -0.0135
 4548W        W24082   2.570  12.820   3.970 -0.1199  0.0525  0.1573
 4549W        W24083  14.182   8.576  15.091 -0.2314 -0.0291 -0.0458
 4550W        W24084  10.855  17.523  14.346  0.1300  0.2805 -0.0380
 4551W        W24085  14.031  10.402  14.530  0.2828  0.3493  0.1340
 4552W        W24086   7.294  16.526   1.854  0.2916 -0.2245 -0.0917
 4553W        W24087  11.013  17.427  10.784 -0.3252  0.0263 -0.1872
 4554W        W24088   8.578   4.486   1.127  0.1279 -0.0799  0.2806
 4555W        W24089   2.333   7.191   2.689 -0.1497 -0.0204  0.1686
 4556W        W24090  17.002   2.806  11.822  0.0587 -0.2222  0.1247
 4557W        W24091  14.835   9.852   1.667  0.2458  0.0804  0.3605
 4558W        W24092   7.148  10.803  14.351  0.2525  0.1504  0.0844
 4559W        W24093  11.592   3.873  11.893  0.1400 -0.2049 -0.2138
 4560W        W24094  13.801  16.566   0.071 -0.2950  0.0752  0.3564
 4561W        W24095  13.941  18.054   1.053  0.2386 -0.1495 -0.0745
 4562W        W24096  12.543  15.669  13.501 -0.1464  0.1408 -0.2897
 4563W        W24097   3.381   7.074  14.354  0.0698  0.1510 -0.0414
 4564W        W24098   0.935  16.147  12.907 -0.0220  0.0512 -0.2484
 4565W        W24099   8.234   4.815   4.721 -0.2077  0.0325 -0.0234
 4566W        W24100  14.926   7.110  16.052  0.1409 -0.1723  0.0304
 4567W        W24101  11.816  14.782   3.910  0.3433 -0.4157 -0.4652
 4568W        W24102  12.367  13.958   0.118 -0.0267 -0.1665 -0.0462
 4569W        W24103  12.186  11.908   0.981  0.2501 -0.1873  0.3088
 4570W        W24104   3.376  14.673  13.872  0.3246 -0.1438  0.0100
 4571W        W24105  17.397  17.784   2.855  0.0726 -0.1046  0.0723
 4572W        W24106   4.124  14.523  12.797  0.1239  0.2838 -0.0774
 4573W        W24107  11.938   5.165  15.557 -0.0095 -0.1799 -0.1071
 4574W        W24108   2.138   6.514   0.240 -0.0767  0.0115  0.1646
 4575W        W24109   3.612  18.096   1.752 -0.1487 -0.4730 -0.1106
 4576W        W24110   8.733   9.390   1.283 -0.2519  0.2038 -0.3222
 4577W        W24111   8.369   1.331  13.268 -0.4244  0.2329 -0.1938
 4578W        W24112   6.965  15.339  11.894 -0.0760  0.0048 -0.2112
 4579W        W24113  14.943   7.831  12.184  0.0202 -0.1350  0.0344
 4580W        W24114   3.795   6.528   2.463  0.1769 -0.0439 -0.0642
 4581W        W24115  17.293   9.050   2.731  0.2081 -0.0504  0.1642
 4582W        W24116   1.393  17.423  13.114  0.0544 -0.0521 -0.1964
 4583W        W24117   2.225  14.963   1.856  0.2308  0.0770  0.1181
 4584W        W24118  17.368   6.407  14.725  0.0344  0.0419 -0.0265
 4585W        W24119  13.974  12.941   1.161 -0.0104  0.0536 -0.2052
 4586W        W24120   4.443   2.379  12.872 -0.1630 -0.1977  0.0391
 4587W        W24121   4.909   2.624  12.006 -0.0860 -0.3934 -0.2720
 4588W        W24122  13.423   9.109  13.235 -0.1630  0.1931 -0.2397
 4589W        W24123   2.242  14.377   3.828  0.0128 -0.1720  0.0962
 4590W        W24124   3.914   1.276  12.696  0.0788  0.0744 -0.3047
 4591W        W24125  10.280  14.038  12.597  0.0574 -0.1845 -0.0714
 4592W        W24126  11.287   9.318   3.877 -0.2069 -0.2754 -0.2239
 4593W        W24127  13.465  10.197   4.177  0.0722 -0.3105  0.0124
 4594W        W24128   5.927  17.432  13.505 -0.2371  0.3153  0.1574
 4595W        W24129   6.269  15.152   1.866 -0.1027  0.1502  0.0339
 4596W        W24130   6.951  13.362  13.778 -0.0183  0.2094 -0.0700
 4597W        W24131   0.120   0.808  13.250  0.1211 -0.0425 -0.1361
 4598W        W24132  11.321  10.472  12.331  0.1443  0.0131  0.0551
 4599W        W24133  17.934   5.326  12.497  0.0190 -0.1129 -0.1030
 4600W        W24134   7.715   6.358   4.502  0.0919 -0.1002  0.0222
 4601W        W24135   4.851   0.804   2.872  0.2037 -0.2844 -0.1811
 4602W        W24136   2.258   3.874   0.317 -0.1268 -0.0944  0.3030
 4603W        W24137   8.327   5.842   0.895  0.0351  0.1457  0.2348
 4604W        W24138   0.370   6.389   5.483 -0.3901 -0.1070  0.4469
 4605W        W24139   6.732   2.223   4.175  0.2280  0.1988  0.1975
 4606W        W24140   0.851   5.340   0.674  0.2229 -0.3767 -0.0128
 4607W        W24141  12.121  10.944  13.615 -0.0381  0.2296 -0.0729
 4608W        W24142   9.726  12.578   1.468 -0.0087 -0.1778 -0.0546
 4609W        W24143  15.153   9.298   3.962 -0.3105 -0.0580  0.0490
 4610W        W24144   1.317  13.561   2.008 -0.0201 -0.0978  0.2172
 4611W        W24145  16.685   0.436   5.306 -0.0194 -0.1687 -0.4138
 4612W        W24146   9.950   9.587   3.625 -0.0732 -0.0653 -0.0356
 4613W        W24147  14.843   8.676  15.471  0.3737 -0.0658  0.3861
 4614W        W24148  14.876   3.893  14.846 -0.0840  0.0811  0.1621
 4615W        W24149  10.600   4.436  15.117  0.0047  0.1132 -0.2795
 4616W        W24150   8.149  12.080  10.901  0.0896  0.0073 -0.1079
 4617W        W24151   9.376   8.653  14.769 -0.0502  0.1790 -0.0191
 4618W        W24152  12.627  13.353   0.061 -0.1473 -0.0056 -0.1638
 4619W        W24153   0.696   7.087   2.081 -0.4099  0.1773 -0.0159
 4620W        W24154  10.887   5.412   2.941 -0.4048  0.3279 -0.0014
 4621W        W24155   3.736   1.993   0.714  0.2158 -0.1946 -0.0787
 4622W        W24156   3.118   8.265  13.595 -0.0022 -0.1498  0.1740
 4623W        W24157  13.310   3.396   2.891  0.0732  0.0948 -0.0563
 4624W        W24158  16.428   9.234   3.218 -0.0622  0.1349 -0.1710
 4625W        W24159  16.132  11.833   2.532 -0.2507  0.0409  0.1474
 4626W        W24160  13.044   0.132  11.897  0.2053 -0.0236 -0.0656
 4627W        W24161  13.661   6.960  12.049 -0.1192 -0.0708 -0.2507
 4628W        W24162   8.763   9.740  13.674  0.0223 -0.1034  0.0298
 4629W        W24163  13.809   9.577  12.671 -0.0684 -0.2117  0.0224
 4630W        W24164   9.124   6.403  15.564  0.0061 -0.0287  0.1624
 4631W        W24165   8.381  17.383  13.667  0.1095 -0.0909 -0.0062
 4632W        W24166  16.801  14.515  12.122  0.1592 -0.1194 -0.0867
 4633W        W24167   3.053   9.848  14.575  0.3369 -0.1175 -0.1679
 4634W        W24168  15.685  15.638   2.509  0.0764 -0.1299 -0.1480
 4635W        W24169   4.028  10.837  16.001  0.1715  0.0106 -0.1061
 4636W        W24170  12.873   6.309   4.661  0.1031 -0.1319  0.0293
 4637W        W24171   6.796  11.894   0.643 -0.0140  0.1700  0.0789
 4638W        W24172   6.331  14.214  14.612 -0.1534 -0.1064 -0.1264
 4639W        W24173  17.276  14.132  13.008  0.0613 -0.0612 -0.2756
 4640W        W24174   4.412   4.142  12.617  0.4578  0.3672  0.0375
 4641W        W24175  14.871  16.787   2.545 -0.1444  0.3144 -0.2624
 4642W        W24176   4.836   8.413   2.093 -0.0064  0.2761 -0.0252
 4643W        W24177   5.019   1.531   0.754  0.4102  0.0341  0.2561
 4644W        W24178   4.325  14.746   1.154  0.1115 -0.0874 -0.2454
 4645W        W24179   6.224   1.531  11.424  0.0191  0.0518 -0.2140
 4646W        W24180   8.602   4.099   4.562  0.2390 -0.1545  0.0496
 4647W        W24181   8.894  10.368   0.578  0.1026  0.1022 -0.1039
 4648W        W24182   4.521  11.669   4.275  0.3867 -0.2271  0.0284
 4649W        W24183   6.884  13.440   1.226 -0.2083 -0.4367 -0.0781
 4650W        W24184  13.675   3.637   1.143 -0.1629 -0.0230  0.1509
 4651W        W24185  12.917   6.950  11.530 -0.0473 -0.0774 -0.1315
 4652W        W24186   5.163   5.045   1.532 -0.0244 -0.0961  0.0952
 4653W        W24187  13.860   1.216   3.068 -0.0242 -0.1664 -0.1312
 4654W        W24188   3.139   8.345   4.786  0.2569 -0.0066 -0.0188
 4655W        W24189   2.660  12.385   1.250 -0.0413  0.0191 -0.1196
 4656W        W24190  11.263   2.944  15.779 -0.1818  0.1448  0.0479
 4657W        W24191  10.539  16.657   3.715 -0.4250  0.0780 -0.0344
 4658W        W24192   6.224   2.431  11.776  0.0799 -0.0160  0.2049
 4659W        W24193  16.488   1.244  13.924  0.1071  0.3431  0.2981
 4660W        W24194   9.470   5.789   3.304  0.0106  0.0324 -0.2116
 4661W        W24195  17.173   8.761   1.222  0.0167 -0.1469 -0.2018
 4662W        W24196   0.259  17.647   0.397  0.2945  0.2403  0.0440
 4663W        W24197   7.408   8.398  12.142 -0.0459 -0.0671 -0.2877
 4664W        W24198   7.863   0.732  12.987 -0.1123  0.2586  0.0988
 4665W        W24199  16.258   3.437   0.810  0.2372  0.0035 -0.0694
 4666W        W24200  12.296   2.636  14.592 -0.0635 -0.1802  0.1786
 4667W        W24201  10.277   3.043   0.216 -0.0509  0.1218 -0.0201
 4668W        W24202   0.427   3.914  15.274 -0.0708 -0.3109 -0.0453
 4669W        W24203  12.962  10.707   3.530 -0.1628  0.2037  0.1750
 4670W        W24204  17.608  18.190  12.094  0.1468 -0.2438 -0.2634
 4671W        W24205  13.513  17.072  11.445  0.1763  0.1622 -0.0145
 4672W        W24206   9.575  10.318  15.987  0.1830  0.1420  0.3225
 4673W        W24207  16.887  17.202   2.544  0.2694 -0.2075 -0.3118
 4674W        W24208  13.029   2.302  12.186  0.1121 -0.3053 -0.0502
 4675W        W24209   6.463  11.800   2.001 -0.1220  0.0698 -0.2882
 4676W        W24210  16.522  18.028  13.866  0.1625 -0.1359 -0.0973
 4677W        W24211   8.945   7.305  13.576  0.2899  0.0314 -0.0991
 4678W        W24212   5.956   5.383  13.225 -0.2955  0.1232  0.1289
 4679W        W24213   8.441   5.868  12.857 -0.1095  0.0746 -0.1223
 4680W        W24214   5.682  14.823   2.744  0.2043  0.2910  0.0560
 4681W        W24215   4.711  16.034   1.435 -0.1132  0.1352 -0.1150
 4682W        W24216  16.714  14.684   5.163 -0.1568 -0.1263 -0.0650
 4683W        W24217   4.400  13.967   2.924 -0.0096 -0.3067 -0.1660
 4684W        W24218   2.984  10.170  12.602 -0.0358  0.1323 -0.1078
 4685W        W24219   4.975  17.187   2.574 -0.1556 -0.4056  0.1397
 4686W        W24220  14.881   6.833  14.220 -0.2389  0.0755 -0.1649
 4687W        W24221  17.926   6.967  14.016 -0.0624  0.1464  0.1382
 4688W        W24222   0.184  16.393   1.009 -0.1740  0.3054  0.0247
 4689W        W24223   1.462   4.707   3.924 -0.0398 -0.0586 -0.3422
 4690W        W24224  16.326   3.340  13.868 -0.1510 -0.4416 -0.3304
 4691W        W24225   6.467   5.480  10.975 -0.1595 -0.0188 -0.2626
 4692W        W24226  17.445   8.447   1.856 -0.0538  0.0010 -0.2068
 4693W        W24227  11.533  11.195  15.566  0.0760 -0.0283  0.1554
 4694W        W24228   0.733  14.960  15.718 -0.0380  0.0832 -0.0908
 4695W        W24229  14.216   1.734   5.749 -0.0363 -0.0196  0.1983
 4696W        W24230   9.343  15.336   2.283 -0.0681 -0.3783 -0.1050
 4697W        W24231  13.634  12.350  13.281  0.0232 -0.1370  0.1193
 4698W        W24232   6.941   9.200  13.368 -0.1913 -0.0719 -0.1873
 4699W        W24233  12.361  14.009   2.813 -0.2363 -0.3527  0.2199
 4700W        W24234  15.204   6.378   1.814  0.1835 -0.1119 -0.0507
 4701W        W24235  12.391   8.733  13.115 -0.0009  0.0215  0.0812
 4702W        W24236   5.546  16.612   0.452 -0.0143  0.0273  0.1972
 4703W        W24237   4.940  17.324   0.734  0.0860 -0.1425  0.0254
 4704W        W24238  12.962   3.294  13.849  0.0742  0.0166 -0.0402
 4705W        W24239   5.027   4.263  11.529 -0.0197 -0.0087 -0.1440
 4706W        W24240  15.146   6.206   1.210  0.1074 -0.0395  0.1631
 4707W        W24241  14.080  11.379  14.660 -0.0134  0.2382  0.4261
 4708W        W24242  13.119   4.112  12.696  0.0786  0.2127  0.1421
 4709W        W24243  13.095  15.335   0.512 -0.1179 -0.1234  0.0406
 4710W        W24244   2.175  17.817   2.304  0.1334  0.0441  0.0590
 4711W        W24245   1.995   7.467  13.899 -0.0506 -0.0968  0.0601
 4712W        W24246   8.217  14.189   4.041  0.1250 -0.1058  0.3336
 4713W        W24247   7.053  17.727   2.591 -0.1175  0.1703  0.1522
 4714W        W24248  11.120   3.405   4.182 -0.2424  0.1639  0.0750
 4715W        W24249   3.603   2.463   4.333 -0.0920 -0.0995  0.1587
 4716W        W24250   8.851  10.784   3.697  0.2461 -0.0843  0.1240
 4717W        W24251   1.919   8.612   2.622 -0.2188 -0.1352 -0.1000
 4718W        W24252   3.125   7.610   1.620 -0.2631 -0.2855 -0.0958
 4719W        W24253  12.909   8.734  13.272 -0.2163  0.2495 -0.2474
 4720W        W24254  18.017   5.995  14.500  0.1607 -0.2576 -0.0589
 4721W        W24255   3.552   1.418  14.976  0.0983  0.0627  0.1887
 4722W        W24256  16.631  17.730   3.836  0.0539  0.1053 -0.0825
 4723W        W24257  11.910  14.307   2.486  0.0694  0.2528  0.2886
 4724W        W24258   8.533   3.552  13.070  0.0848 -0.1452  0.0483
 4725W        W24259  17.453   2.231   1.106  0.0253  0.1450  0.1328
 4726W        W24260  10.504   6.741   2.889 -0.2493  0.7529  0.2246
 4727W        W24261   9.528   4.619   2.569  0.1885  0.0344 -0.0876
 4728W        W24262  11.871  14.877   4.443  0.1172  0.0494 -0.1583
 4729W        W24263   4.738  12.484  15.402 -0.2022 -0.0210  0.1858
 4730W        W24264  12.664  18.010  12.854 -0.1622 -0.0835  0.1974
 4731W        W24265   2.594  15.355   4.011 -0.0073  0.0463 -0.4850
 4732W        W24266   4.410  10.965  11.358  0.1680  0.0039  0.2923
 4733W        W24267   8.638   4.592   4.617 -0.1309 -0.0908  0.0978
 4734W        W24268  13.981   8.331  13.779 -0.0125 -0.0677  0.3059
 4735W        W24269  17.060  14.867   0.514  0.0069 -0.3181  0.4151
 4736W        W24270   6.103  16.767  11.058 -0.0948  0.2003  0.2143
 4737W        W24271   6.264   4.556  12.231 -0.2071  0.1300  0.1603
 4738W        W24272   7.431   4.891  12.399 -0.2084  0.0770  0.0416
 4739W        W24273  11.367   0.724   4.509  0.2174 -0.1490  0.1470
 4740W        W24274  15.297  10.453  10.651  0.6155  0.2233  0.0906
 4741W        W24275  13.118  10.880  15.136  0.1532  0.0680 -0.2578
 4742W        W24276   8.032   4.036   0.121 -0.0285  0.1795  0.1499
 4743W        W24277   7.224  17.908  13.443  0.2143  0.1488  0.2226
 4744W        W24278  15.917   9.887   1.508  0.3737  0.2068 -0.2667
 4745W        W24279   8.998   8.644   0.297 -0.1486  0.0977  0.1064
 4746W        W24280  16.712   7.874  13.402 -0.0461  0.0821 -0.2000
 4747W        W24281  12.763  16.378  15.007 -0.0761  0.3364 -0.4228
 4748W        W24282   1.006  10.751   1.376 -0.1488  0.0990 -0.0547
 4749W        W24283   7.190  16.033   1.902  0.2855  0.0612 -0.0411
 4750W        W24284   9.692  13.949   5.186  0.4546  0.2059 -0.0201
 4751W        W24285  10.717  17.536  12.152  0.3568 -0.1733  0.1765
 4752W        W24286  16.672  12.096   3.848 -0.2157  0.3159 -0.6946
 4753W        W24287  16.080   8.847  13.309  0.0918  0.0689  0.1833
 4754W        W24288   7.436   1.745  12.056 -0.1861 -0.1417  0.0852
 4755W        W24289   2.463   0.637  13.187 -0.3721  0.0093  0.5685
 4756W        W24290   8.709   9.172  15.836  0.1912  0.2727 -0.0305
 4757W        W24291  12.729   2.337   2.145  0.0739 -0.2058 -0.0123
 4758W        W24292   4.822   9.528  15.869 -0.0884 -0.0058  0.1295
 4759W        W24293  15.069  15.157   3.613  0.0220  0.0051 -0.2426
 4760W        W24294   1.405  14.021   4.150  0.3077  0.2519 -0.2705
 4761W        W24295  14.582   8.022   2.296  0.0859  0.0547  0.0772
 4762W        W24296   0.233  13.343  13.800  0.0085  0.0046  0.1214
 4763W        W24297   0.469  15.032   2.192  0.0416  0.2403  0.0389
 4764W        W24298   0.356  14.466   4.382  0.1381  0.0557 -0.0006
 4765W        W24299  14.410  12.012   1.638 -0.0714  0.1426 -0.0724
 4766W        W24300   9.143   9.624   4.032 -0.0469  0.4009 -0.5833
 4767W        W24301   8.324   3.275  13.973  0.0466  0.0452  0.1506
 4768W        W24302  17.045  18.050   5.847 -0.0451  0.1254 -0.1390
 4769W        W24303  17.841   8.351   2.212  0.3166 -0.1481 -0.1968
 4770W        W24304  12.965  10.879   0.853  0.2761  0.1870  0.2918
 4771W        W24305  15.519  14.121  14.697 -0.1734 -0.0115 -0.0199
 4772W        W24306  10.526  16.507  14.687 -0.2057 -0.0420 -0.0029
 4773W        W24307   2.577  13.545  14.051 -0.7028  0.1364  0.2614
 4774W        W24308  16.002   9.612   4.606 -0.0480 -0.1192 -0.0423
 4775W        W24309  15.352   5.809  15.357  0.2063  0.0001 -0.1098
 4776W        W24310   2.394   8.359  12.126  0.2585  0.2976  0.2292
 4777W        W24311  15.909  15.776  13.312  0.1453  0.0066 -0.0140
 4778W        W24312   3.415  14.248   2.109  0.0002 -0.0934 -0.0235
 4779W        W24313  15.396   8.424   3.438 -0.2207  0.1532 -0.2883
 4780W        W24314   5.164   8.347  15.754  0.0815 -0.2438  0.0644
 4781W        W24315   6.242  17.875  14.752 -0.0869 -0.0013 -0.1561
 4782W        W24316  15.562  15.847   3.268  0.0151 -0.1738 -0.0845
 4783W        W24317  13.401   6.950  11.536  0.2348 -0.0706 -0.2143
 4784W        W24318   6.093   2.257   4.142  0.0329 -0.0047 -0.0836
 4785W        W24319   3.239   1.997   0.783  0.0372 -0.0870 -0.0385
 4786W        W24320   2.581  10.856   1.250 -0.1249  0.2151 -0.0843
 4787W        W24321   8.245   7.075  12.990  0.2299  0.2552 -0.2994
 4788W        W24322   1.285   8.360   1.099  0.1514 -0.1008  0.0323
 4789W        W24323   1.257  17.777   1.485  0.1725  0.2964 -0.2607
 4790W        W24324   9.609  11.824   5.764  0.2088 -0.2659 -0.0489
 4791W        W24325   8.308  11.173   3.062  0.0367 -0.0715  0.1597
 4792W        W24326   2.181   7.216   2.164 -0.1520 -0.1085  0.3776
 4793W        W24327  11.857   3.785   2.730  0.3442  0.0179  0.1462
 4794W        W24328   7.313   9.554   0.559  0.0138 -0.0266  0.2029
 4795W        W24329   7.435   5.354   0.159  0.2693  0.1141 -0.2080
 4796W        W24330   6.040  13.378  15.125  0.0130  0.2647  0.1974
 4797W        W24331  17.876   9.080   1.392 -0.0778  0.1945 -0.2101
 4798W        W24332   8.663   6.105  14.462 -0.3433  0.2736  0.2846
 4799W        W24333   2.629  17.242   5.412 -0.1037 -0.0690  0.1085
 4800W        W24334  17.187   4.907   4.960 -0.2246  0.3055  0.2822
 4801W        W24335  17.491  17.383   3.573 -0.0926 -0.1199 -0.1639
 4802W        W24336   2.086   1.922  15.097 -0.0269  0.2712 -0.1307
 4803W        W24337   2.415  13.489  15.678  0.1343  0.1628  0.2032
 4804W        W24338   8.891   1.546   1.754  0.0446 -0.0026 -0.1186
 4805W        W24339  16.350   5.018   4.173 -0.0865  0.0286 -0.0121
 4806W        W24340  10.620  15.452   3.987  0.1381  0.1700  0.3740
 4807W        W24341  15.707   7.654  14.865 -0.1651  0.1163 -0.0323
 4808W        W24342   6.548  11.619   1.383 -0.0219 -0.1972 -0.0229
 4809W        W24343   9.589  11.618   5.310  0.0070 -0.0619  0.1620
 4810W        W24344   9.822   6.059   4.143 -0.1594 -0.0264 -0.0337
 4811W        W24345   9.513  11.898  14.638  0.2876  0.2551  0.0987
 4812W        W24346   3.010  14.372   1.374 -0.0412  0.0566  0.4380
 4813W        W24347  10.882   7.582  15.760  0.2534  0.0652 -0.1587
 4814W        W24348  17.762   6.443  12.686 -0.1416 -0.0033  0.1962
 4815W        W24349  15.794   1.266  13.561 -0.1288  0.1783 -0.1815
 4816W        W24350   7.136   5.571   0.552  0.1170 -0.0883  0.0039
 4817W        W24351   1.381   1.624  15.577 -0.0143 -0.1447 -0.1292
 4818W        W24352   9.158   1.887   0.050  0.3450 -0.1747 -0.1056
 4819W        W24353   2.391  16.992   0.063 -0.1729  0.2050  0.0712
 4820W        W24354  14.492  13.690   0.006 -0.0836  0.3286 -0.0391
 4821W        W24355   0.780   2.393   3.994 -0.0385  0.1496 -0.0076
 4822W        W24356  13.663  12.214   0.562  0.0142  0.3034  0.0224
 4823W        W24357  10.422  13.920   2.795  0.0780 -0.3352  0.0082
 4824W        W24358  12.678   7.577  14.156  0.0000  0.0784  0.3766
 4825W        W24359   5.230   6.673   2.280  0.2739 -0.0855 -0.0346
 4826W        W24360   8.057  10.458  12.149  0.1932  0.1999  0.3799
 4827W        W24361  15.951   3.609   3.929 -0.0035 -0.3638 -0.1380
 4828W        W24362   4.187  12.668   2.625 -0.0510 -0.4917 -0.1727
 4829W        W24363   5.180  11.140   2.972  0.1479 -0.0525  0.1478
 4830W        W24364   9.579   6.456  13.611 -0.1718 -0.2918 -0.0079
 4831W        W24365  13.541  14.115   0.883 -0.0044  0.1236 -0.0170
 4832W        W24366   9.063  16.522  11.684 -0.1596 -0.1071 -0.3370
 4833W        W24367  10.779  17.116  13.080 -0.0356  0.0155  0.0351
 4834W        W24368   5.395   2.924   0.761 -0.3775 -0.1846  0.0917
 4835W        W24369   9.856   3.696   4.026 -0.3738  0.2027  0.3947
 4836W        W24370  12.501  12.554   1.171  0.2592 -0.1546  0.0476
 4837W        W24371   2.495  10.319  12.970  0.0306 -0.0178  0.1688
 4838W        W24372   4.079   8.730  13.236 -0.0597  0.2325 -0.0851
 4839W        W24373   2.248   9.461   0.894 -0.2236  0.1985  0.4332
 4840W        W24374   1.931  15.338  13.374  0.0436 -0.1627 -0.3872
 4841W        W24375   9.625  11.900   2.120  0.1288  0.0493  0.2859
 4842W        W24376  16.794   0.993  11.741 -0.2429  0.2618  0.1221
 4843W        W24377   4.465   1.215  13.939  0.1105 -0.2672 -0.0285
 4844W        W24378  17.510   7.373  12.670  0.3117  0.1518 -0.3919
 4845W        W24379   4.760  12.419   4.079 -0.0186 -0.2526  0.3447
 4846W        W24380  13.880   6.171  15.395  0.2103 -0.2072 -0.0524
 4847W        W24381   5.687   9.213   4.680  0.0957  0.0876 -0.1765
 4848W        W24382   8.238   6.805  11.819  0.1082  0.2551 -0.2352
 4849W        W24383  11.361   2.479  13.654  0.1172 -0.0143 -0.1268
 4850W        W24384   5.250   9.140  14.634 -0.0993 -0.0497 -0.1603
 4851W        W24385  14.993  11.090  15.612  0.0083 -0.0234 -0.1835
 4852W        W24386   7.242   1.639  12.503  0.2570 -0.2140  0.0099
 4853W        W24387   1.789   7.705  14.800  0.0991 -0.1456  0.4920
 4854W        W24388  13.459   7.774  13.037 -0.3003 -0.1881  0.2139
 4855W        W24389  10.885  14.910  13.741  0.3059 -0.0371 -0.3044
 4856W        W24390  12.871   9.755   1.318  0.0817 -0.3084  0.0594
 4857W        W24391   0.339  12.865   1.495  0.1546 -0.3468 -0.0875
 4858W        W24392  10.187   5.124   0.878  0.0227 -0.0126 -0.0456
 4859W        W24393   8.643   7.472  15.963  0.4633 -0.2000 -0.0986
 4860W        W24394   8.429   6.786  12.638 -0.3346 -0.4000  0.2763
 4861W        W24395   2.352  15.123  13.622  0.3229  0.1689 -0.1757
 4862W        W24396   3.617   8.095  14.721  0.1116  0.2023  0.1794
 4863W        W24397  17.666   6.573  13.194 -0.1334 -0.1331  0.2795
 4864W        W24398   7.995   1.337  15.881  0.2030 -0.0418 -0.1178
 4865W        W24399  15.902  14.762  11.228 -0.1627  0.2900 -0.3692
 4866W        W24400   7.415   7.145  15.943  0.2359  0.0534  0.0114
 4867W        W24401  11.474  10.158  15.416  0.1706  0.0664 -0.2200
 4868W        W24402   3.834  16.445  12.455  0.0180  0.3040  0.0334
 4869W        W24403   3.895   5.733  11.770  0.0643  0.2547 -0.3310
 4870W        W24404  13.383  16.744   2.675 -0.0126  0.1453  0.0124
 4871W        W24405  16.735  12.068  12.059  0.0555 -0.2403  0.2306
 4872W        W24406   6.488   3.091  16.023  0.0819 -0.2206  0.2550
 4873W        W24407   8.099  11.209  13.369 -0.1388  0.0414 -0.1334
 4874W        W24408  10.103  14.465  14.400 -0.0743  0.1267  0.2285
 4875W        W24409  12.941   7.482  12.213 -0.2123 -0.1374 -0.2271
 4876W        W24410  14.600  10.098  12.198  0.0060  0.0531  0.0022
 4877W        W24411   5.988   5.399   1.308  0.0689  0.0032 -0.0221
 4878W        W24412   1.040   1.381   1.679  0.1912 -0.0625  0.1353
 4879W        W24413  11.797   4.567   2.290 -0.2216 -0.0427  0.1763
 4880W        W24414  11.663  14.222  13.865  0.0181 -0.1577  0.0560
 4881W        W24415  14.929  15.831  11.996  0.1956 -0.2668  0.0547
 4882W        W24416   2.976  13.449   4.090 -0.3444  0.2665  0.1432
 4883W        W24417   4.929   3.053  13.283 -0.3106  0.0840  0.0363
 4884W        W24418   4.276   6.871  15.022 -0.0425  0.3648  0.1036
 4885W        W24419   3.335   2.964  15.814  0.0640  0.4347  0.0636
 4886W        W24420   6.235  12.177  14.840  0.1494 -0.0054  0.2434
 4887W        W24421   5.699   6.346  14.971 -0.2708  0.2814 -0.0101
 4888W        W24422   0.043  13.178  14.521  0.0858  0.1189  0.1161
 4889W        W24423   2.099   8.562   1.291 -0.0596 -0.0133 -0.0516
 4890W        W24424  13.272  11.464  11.344  0.1729 -0.0543 -0.1236
 4891W        W24425   7.932  13.294  15.800 -0.0081  0.1335  0.2718
 4892W        W24426   5.692   8.889   3.745  0.0899 -0.0707 -0.1758
 4893W        W24427   1.382   2.097  10.872  0.0244  0.0003  0.2809
 4894W        W24428   7.443  10.646  14.727  0.0584 -0.3340 -0.2925
 4895W        W24429   5.966  12.029   3.102  0.0655  0.0985  0.0699
 4896W        W24430   9.081   9.853  15.501 -0.1045  0.0371  0.1046
 4897W        W24431   2.198  16.075   2.134 -0.1580 -0.1127 -0.0942
 4898W        W24432  16.446  11.918   0.200  0.2358 -0.1265 -0.1275
 4899W        W24433   3.146   2.681   3.295  0.3705  0.1860  0.1758
 4900W        W24434  10.096   8.828   3.576  0.1021  0.0794 -0.1169
 4901W        W24435  16.131   1.316  11.833 -0.0629  0.0161 -0.2179
 4902W        W24436  14.256   2.856  13.161 -0.0478  0.1077  0.1287
 4903W        W24437   6.174   6.055   3.056 -0.1349  0.2956  0.2478
 4904W        W24438  14.109  16.037   3.084 -0.2385 -0.2595 -0.0953
 4905W        W24439   3.754  15.974  14.411 -0.0485  0.1384 -0.1158
 4906W        W24440   3.086   6.356  12.976  0.1607 -0.1096  0.0087
 4907W        W24441   3.320  13.368   4.474 -0.1453  0.1744 -0.1875
 4908W        W24442  17.529  11.877   2.940 -0.3083 -0.3189  0.2015
 4909W        W24443  15.236   9.458  15.760  0.1271 -0.1152  0.1124
 4910W        W24444   2.989  13.973   1.086  0.1044  0.0181  0.0943
 4911W        W24445  17.747  11.968  12.500  0.0535 -0.1633 -0.2460
 4912W        W24446   5.266   8.922  13.889 -0.1463  0.0032 -0.2212
 4913W        W24447  10.600   6.466   3.727  0.0701 -0.0173  0.0806
 4914W        W24448   5.553   7.420  14.362  0.0951 -0.2337  0.4048
 4915W        W24449   2.994  11.814   3.133 -0.0949 -0.2172 -0.3029
 4916W        W24450   9.603   6.830  11.330  0.1729 -0.1405  0.0236
 4917W        W24451   2.996  12.631   0.490  0.0335 -0.0847 -0.0119
 4918W        W24452  16.441  13.390  11.650  0.2187 -0.0648 -0.1294
 4919W        W24453  17.676  13.422   1.369  0.0143 -0.1717  0.1733
 4920W        W24454   4.223  16.636   0.950  0.2482 -0.1083 -0.1869
 4921W        W24455   1.111   9.234  15.783 -0.2602 -0.2457  0.2508
 4922W        W24456   6.026  12.379  13.419  0.0830 -0.1333  0.0866
 4923W        W24457  10.352  13.121  15.871 -0.0713  0.1098 -0.1344
 4924W        W24458  15.830  10.732  15.064 -0.1201  0.1163 -0.0259
 4925W        W24459  16.781  12.763  14.092 -0.0416 -0.0520 -0.0888
 4926W        W24460   5.766   0.395   0.461  0.0794  0.0622 -0.1784
 4927W        W24461   5.088  13.508  13.243  0.0134  0.2840 -0.1643
 4928W        W24462   2.234   1.192  13.849 -0.1196 -0.0026 -0.1764
 4929W        W24463   0.336  11.821  13.799  0.0668  0.1315  0.2570
 4930W        W24464  12.913  14.742  15.100 -0.0316  0.0342 -0.0401
 4931W        W24465  15.445   4.398  11.836  0.0294 -0.1154 -0.2893
 4932W        W24466   5.009   5.389   5.621 -0.1181  0.2341 -0.2092
 4933W        W24467  11.326  16.786  12.374  0.0319 -0.0871  0.1740
 4934W        W24468   8.786   4.112  15.523 -0.2445 -0.1445 -0.0468
 4935W        W24469   3.643   3.249  12.958  0.0398  0.2457  0.0805
 4936W        W24470   4.240   4.444   2.454  0.1520 -0.0622 -0.0970
 4937W        W24471  17.330  10.433  14.371 -0.2166  0.0197  0.2523
 4938W        W24472   9.717  14.033  14.234  0.0143  0.1179 -0.0813
 4939W        W24473   6.720   0.854  11.444 -0.0236  0.1379  0.0012
 4940W        W24474   5.752  12.265  14.565 -0.3669 -0.0385 -0.2268
 4941W        W24475   1.793   2.446   3.484 -0.3052 -0.1509 -0.0881
 4942W        W24476  15.609   9.381   0.873 -0.0823 -0.0184  0.0018
 4943W        W24477  12.284   0.463  13.843  0.1549  0.0818  0.1425
 4944W        W24478  14.592  10.469   2.541 -0.1364 -0.1676  0.1491
 4945W        W24479   1.532  15.976  15.528 -0.1163  0.1762 -0.1240
 4946W        W24480   3.013  14.682  15.566 -0.1145 -0.4158 -0.0567
 4947W        W24481  14.640   7.118  13.297 -0.1049  0.0509  0.1395
 4948W        W24482  15.938  14.900   4.750  0.3117  0.0631 -0.0764
 4949W        W24483   2.311  10.277  14.496  0.2651 -0.1153  0.3421
 4950W        W24484   4.817   4.239   0.981 -0.0922  0.0283 -0.1470
 4951W        W24485  12.867   9.001   1.863 -0.0479 -0.0109  0.1857
 4952W        W24486   1.719  17.062  11.818 -0.2777 -0.0195 -0.0516
 4953W        W24487  13.729  12.481   0.979 -0.3327  0.2771 -0.1453
 4954W        W24488  14.688   5.377  12.575 -0.0195  0.2297  0.5436
 4955W        W24489   8.300   6.012  15.852  0.0971  0.0233 -0.1929
 4956W        W24490  11.838   5.582  12.596  0.1226  0.2706 -0.1925
 4957W        W24491  15.693   7.947   4.644  0.2064  0.2445 -0.0492
 4958W        W24492   4.413   6.535   2.772 -0.0077 -0.0055  0.1473
 4959W        W24493   1.022   0.580  12.647  0.0332 -0.1061  0.0461
 4960W        W24494   9.005   1.010  12.217 -0.0165 -0.0790 -0.0426
 4961W        W24495  16.903   3.015  15.092  0.2473 -0.0851 -0.1024
 4962W        W24496  14.001   0.340  12.358  0.1882 -0.2396  0.0386
 4963W        W24497   8.970  10.617  13.577  0.1023  0.2063 -0.1642
 4964W        W24498   5.845  10.217  13.158 -0.2240  0.0422 -0.1810
 4965W        W24499   8.001   9.507   4.693  0.1471  0.0560 -0.0235
 4966W        W24500  13.182   6.959  15.821 -0.1320 -0.1171  0.0075
 4967W        W24501  16.144   9.449  14.795 -0.0516  0.1336 -0.0123
 4968W        W24502   7.827   7.191   3.942  0.0836 -0.1010 -0.1822
 4969W        W24503   9.575  17.234  14.303  0.1486 -0.0201 -0.0734
 4970W        W24504   5.246   3.029  13.661  0.1414  0.0879  0.0409
 4971W        W24505   4.152   2.582  14.433  0.1914 -0.0350  0.0618
 4972W        W24506   7.882   1.980  13.339 -0.0239 -0.1651  0.1817
 4973W        W24507   8.667   4.153   3.472  0.1115  0.1700  0.2744
 4974W        W24508  11.638  11.907   1.162  0.2225 -0.2800  0.0832
 4975W        W24509   1.065   4.069   1.352  0.1438  0.0961 -0.0920
 4976W        W24510   7.615   0.730   4.182 -0.0344  0.1979 -0.0385
 4977W        W24511  14.232  17.679   1.290  0.1070  0.1902 -0.0254
 4978W        W24512  17.770  17.213  15.956  0.2020  0.0314 -0.0251
 4979W        W24513   6.400  16.896   1.020  0.1295  0.2246 -0.0314
 4980W        W24514  16.365   6.405  15.820  0.1614 -0.0695 -0.3397
 4981W        W24515   0.733  17.436  13.198  0.0722 -0.2698  0.0107
 4982W        W24516   2.165  16.905  11.950  0.1399 -0.0921  0.3472
 4983W        W24517   8.784   5.211   2.577 -0.2312 -0.2264 -0.3458
 4984W        W24518  10.653  15.668  15.075 -0.5179 -0.0452  0.4129
 4985W        W24519   5.265  10.681  15.824  0.0433  0.1980  0.1159
 4986W        W24520   7.913  16.596   1.650  0.0043 -0.0927 -0.0920
 4987W        W24521  14.713  11.189   0.044  0.0332 -0.1559  0.0990
 4988W        W24522  10.610   9.140   0.010  0.0608 -0.2203 -0.0216
 4989W        W24523  15.979  13.905  12.569 -0.0798 -0.0802  0.0001
 4990W        W24524  17.321   6.455  12.435  0.1796  0.2767  0.0088
 4991W        W24525  12.153   9.241  15.283 -0.0254 -0.1691  0.2108
 4992W        W24526   1.522   0.390   0.871  0.0596 -0.1524  0.0773
 4993W        W24527  10.298   5.109  15.716  0.1858  0.2895  0.4001
 4994W        W24528   6.765   0.352   2.419 -0.1040  0.0224 -0.0545
 4995W        W24529   8.470  10.591   2.734  0.0397 -0.1506 -0.0633
 4996W        W24530   4.419   8.637  12.556  0.1204  0.2106  0.0159
 4997W        W24531   9.214  16.849   3.209 -0.1708  0.1995 -0.0427
 4998W        W24532   2.185   5.526   1.967 -0.0540 -0.0483 -0.2549
 4999W        W24533  12.801  10.312   3.132 -0.0699 -0.1011  0.0484
 5000W        W24534   9.302   7.929   1.682 -0.0634 -0.0620 -0.2534
 5001W        W24535   2.014  17.755  15.129  0.2151  0.4183  0.1584
 5002W        W24536   8.460   1.796   4.625  0.1684 -0.0218 -0.1073
 5003W        W24537   5.306   6.369  15.310 -0.1680  0.2302 -0.0585
 5004W        W24538   5.891   9.181  12.452  0.2624 -0.1506 -0.4242
 5005W        W24539   5.566   9.629   0.642  0.2594  0.2675 -0.1716
 5006W        W24540   1.837  14.286   0.652 -0.3111 -0.0062  0.1640
 5007W        W24541  15.538  12.256  12.727 -0.2234  0.2874 -0.1109
 5008W        W24542   3.727  15.161  13.071  0.2733 -0.1396  0.0698
 5009W        W24543  12.643   1.354  13.949  0.1674 -0.1600  0.1158
 5010W        W24544   1.746  10.652   2.675  0.0086 -0.1612  0.1657
 5011W        W24545  11.913   1.342   1.735  0.1151 -0.0474 -0.1716
 5012W        W24546   4.670  16.034   2.535  0.0345  0.0109  0.0273
 5013W        W24547   0.851   4.910   3.560 -0.0278  0.3046 -0.0649
 5014W        W24548   8.917   8.268   2.483  0.1792 -0.3052 -0.1404
 5015W        W24549   1.783   4.662  12.661  0.0687  0.0168  0.1236
 5016W        W24550   2.667   9.985   3.905 -0.1165  0.3100 -0.0518
 5017W        W24551  12.189  15.960   4.034 -0.0212  0.0959 -0.0413
 5018W        W24552   8.194   6.956  15.552  0.1867 -0.0500 -0.0468
 5019W        W24553   5.587   2.615  13.922  0.0738 -0.0473  0.1741
 5020W        W24554   6.097  15.245  12.317  0.0074 -0.1569  0.1038
 5021W        W24555  14.691  12.225  12.971  0.1754  0.0943 -0.2687
 5022W        W24556  11.453   8.265   1.798 -0.1675  0.2532  0.1393
 5023W        W24557   1.127  18.079   4.013  0.0528 -0.1951  0.2531
 5024W        W24558   3.771   2.155  12.423 -0.1459 -0.1278 -0.2458
 5025W        W24559  14.051   0.925   3.507  0.1687  0.2965 -0.0520
 5026W        W24560   0.593   1.731  14.490 -0.0620  0.0668 -0.0227
 5027W        W24561   2.765  17.494   1.075  0.3015 -0.1163  0.1246
 5028W        W24562  17.780   6.039   1.048 -0.1059 -0.2307 -0.1809
 5029W        W24563   4.981   5.878   1.831 -0.2590 -0.0912  0.1310
 5030W        W24564  10.367   9.286  12.625 -0.0202 -0.0056 -0.1695
 5031W        W24565  18.091   1.365   2.024 -0.3671  0.0031 -0.0947
 5032W        W24566  11.878   9.128   0.073  0.1143 -0.0301 -0.0303
 5033W        W24567  14.010  17.453   4.313 -0.2251  0.0021 -0.1946
 5034W        W24568   2.791  14.602  11.554  0.1074  0.2483  0.0604
 5035W        W24569  12.513   0.536   2.368 -0.1019  0.1044 -0.0200
 5036W        W24570  12.436  14.636   2.704  0.0766 -0.0537 -0.1052
 5037W        W24571   9.559  16.447  11.656 -0.3178 -0.0158 -0.1231
 5038W        W24572   8.293   5.823   4.315 -0.2338  0.1388 -0.1860
 5039W        W24573  17.921   4.236   1.704 -0.0768 -0.1640  0.0065
 5040W        W24574   7.785   4.500  12.411 -0.2432  0.0044  0.0520
 5041W        W24575   9.141   4.433  11.665  0.0822  0.0840 -0.0282
 5042W        W24576   6.979  15.532   3.615 -0.0342 -0.2266  0.0048
 5043W        W24577  10.433  13.575  11.733 -0.3983  0.1074 -0.0115
 5044W        W24578  17.829   2.694   2.935  0.2552 -0.1021 -0.2471
 5045W        W24579   6.298   2.855   3.149  0.0715  0.1329  0.3128
 5046W        W24580  13.768  10.223   1.223  0.0197 -0.2400 -0.1480
 5047W        W24581   9.042   2.545  13.026 -0.2808 -0.0552 -0.4016
 5048W        W24582   4.198   2.148   1.546  0.1146 -0.6117 -0.0043
 5049W        W24583  10.236  11.821  15.985  0.0815 -0.0675 -0.0032
 5050W        W24584   5.971  11.860  11.975 -0.0344 -0.0714  0.0080
 5051W        W24585   4.745   1.429  15.470 -0.0037 -0.0691  0.1178
 5052W        W24586  17.040  10.356  12.010 -0.4721  0.0005  0.0730
 5053W        W24587  13.231   8.605   4.001 -0.1233 -0.0632 -0.0051
 5054W        W24588   5.794   3.479  11.197 -0.1114 -0.1940 -0.2076
 5055W        W24589   0.391   9.542   1.757 -0.0118  0.1571 -0.1063
 5056W        W24590  15.766  13.877   4.132 -0.0234 -0.2325  0.0287
 5057W        W24591   2.626  18.037   3.734  0.2315  0.1963 -0.1483
 5058W        W24592  12.231  14.630  11.879  0.2495  0.1514 -0.0502
 5059W        W24593  11.972   2.509  13.177 -0.1492  0.1597 -0.3671
 5060W        W24594   5.015   3.765  15.711 -0.0274  0.2971 -0.0040
 5061W        W24595   3.023  15.364   1.160 -0.0593 -0.0132 -0.1669
 5062W        W24596  11.457   9.727  11.373 -0.0141  0.0793  0.0669
 5063W        W24597  17.234   3.191  11.591 -0.0989  0.1037  0.1117
 5064W        W24598  13.223  17.937   1.412 -0.0064  0.1483  0.2514
 5065W        W24599  16.703   8.697   4.088  0.3755 -0.3699 -0.0332
 5066W        W24600   9.507   7.332   1.141 -0.1111  0.1500  0.3561
 5067W        W24601  10.314   9.994  13.729  0.0430 -0.0209  0.1917
 5068W        W24602   7.404  16.204  12.961  0.0218  0.0502 -0.0021
 5069W        W24603  15.553  13.060   4.406 -0.1818  0.1056 -0.0805
 5070W        W24604  17.356   8.502   2.855  0.0129 -0.2703  0.0434
 5071W        W24605   8.746   0.469   2.622 -0.1487 -0.0470  0.1120
 5072W        W24606   0.630  12.613  14.154  0.1086 -0.0176  0.1306
 5073W        W24607  16.264   6.909   2.413  0.0467  0.1816 -0.1446
 5074W        W24608   6.218   5.579   0.024  0.2946  0.0754 -0.0878
 5075W        W24609   7.817   3.524  15.036 -0.0814 -0.1291 -0.1032
 5076W        W24610  10.532   4.034   3.009  0.1123  0.2026 -0.1160
 5077W        W24611  16.742   5.687  14.724 -0.1134 -0.2958 -0.0123
 5078W        W24612  15.675  12.389   5.893  0.1627  0.1241 -0.1405
 5079W        W24613  16.881   2.795   0.818  0.0758 -0.3227 -0.3002
 5080W        W24614  13.445  14.622  12.660 -0.0911  0.3255 -0.0729
 5081W        W24615  11.861  13.149   3.304 -0.0279 -0.1507 -0.3355
 5082W        W24616  12.604   7.937  11.933 -0.2660 -0.1152  0.0045
 5083W        W24617  16.586  16.224  12.595  0.2827 -0.0072 -0.1502
 5084W        W24618  10.745  14.444   3.965 -0.0182  0.1989 -0.1876
 5085W        W24619   4.809   3.793  12.786  0.1014 -0.3105  0.1849
 5086W        W24620  12.173   3.062  15.510 -0.0198  0.0778  0.4335
 5087W        W24621   9.680  14.601   3.190  0.1625  0.1013  0.1177
 5088W        W24622   5.651  15.850   5.033 -0.1319 -0.2531  0.1995
 5089W        W24623  11.679  13.663   3.272 -0.1343  0.1944 -0.3104
 5090W        W24624  13.733   2.537   0.772  0.0922 -0.2157 -0.0924
 5091W        W24625   3.291   6.865   1.757  0.1401  0.1713  0.2614
 5092W        W24626   8.621  10.270  13.722  0.1253 -0.0531  0.1851
 5093W        W24627   0.931  15.939  15.926 -0.1319 -0.0087  0.0714
 5094W        W24628   2.719   4.825  12.019  0.0085  0.0654 -0.2774
 5095W        W24629   7.983   9.552   1.919 -0.1438 -0.0520 -0.1630
 5096W        W24630   7.026  12.166   0.199 -0.3531 -0.2739  0.1724
 5097W        W24631   4.452   8.464  13.524 -0.0929 -0.0937  0.0642
 5098W        W24632  14.187  16.530  15.795  0.3150  0.0329  0.0914
 5099W        W24633   3.286   0.842  13.479 -0.0912 -0.2048 -0.1084
 5100W        W24634   6.615  17.243  11.612  0.2371  0.4281  0.1004
 5101W        W24635  13.933  14.176  12.441 -0.3226  0.1862 -0.0173
 5102W        W24636   1.652   4.703   3.409  0.0961  0.2621  0.1073
 5103W        W24637   1.045   4.539  12.499 -0.0032 -0.0996 -0.2847
 5104W        W24638   6.022  17.027  12.387  0.1747 -0.0570  0.1887
 5105W        W24639  17.536   1.177  12.597  0.1475  0.2520 -0.0738
 5106W        W24640   8.759   0.619  11.272  0.0115  0.2307  0.1955
 5107W        W24641   7.313   3.263  15.837  0.1210  0.3782 -0.1665
 5108W        W24642  10.935   7.970  13.929  0.0417  0.1968  0.1357
 5109W        W24643   2.243   2.747   1.373 -0.1023 -0.1440 -0.1459
 5110W        W24644   2.714   8.878   4.559  0.0314  0.0871 -0.2707
 5111W        W24645   9.930  13.256   3.935 -0.1021  0.4719 -0.1433
 5112W        W24646  15.799  14.393   4.894 -0.1905 -0.0424 -0.0640
 5113W        W24647  12.785   3.962   0.347 -0.1597  0.1750 -0.2078
 5114W        W24648   0.784  15.910   1.730 -0.2126  0.3257 -0.0217
 5115W        W24649  10.691   7.453   2.986  0.0051 -0.1258  0.0450
 5116W        W24650  10.592  14.136   0.390 -0.1581 -0.2103 -0.1136
 5117W        W24651  12.962   3.697  11.894  0.0985  0.0921  0.3104
 5118W        W24652  15.495   6.132   0.858  0.0673 -0.1738 -0.1701
 5119W        W24653  10.568   6.715   0.289  0.2035  0.0911  0.2347
 5120W        W24654  17.390  15.079   4.124 -0.1808 -0.2107 -0.3003
 5121W        W24655  17.923   3.969  12.896 -0.1603 -0.0660  0.0736
 5122W        W24656  11.897   7.529  14.646  0.0372 -0.0585  0.0303
 5123W        W24657   1.416  14.483  14.319  0.0514  0.0469 -0.0402
 5124W        W24658   2.174  14.523   4.342  0.0634  0.1747  0.1761
 5125W        W24659  14.520  16.670   0.626 -0.0506  0.1057  0.1892
 5126W        W24660  15.315   7.231  15.071  0.1072  0.0443 -0.1578
 5127W        W24661   7.944   2.095   1.007 -0.1249 -0.1625 -0.1157
 5128W        W24662   4.325  17.442  14.688 -0.1192  0.1736 -0.4032
 5129W        W24663  17.456  11.456   0.217  0.4003  0.1878  0.1914
 5130W        W24664   0.235   9.475  11.113 -0.0702 -0.0752 -0.0564
 5131W        W24665  10.464   4.606  10.677 -0.0969  0.1342 -0.1012
 5132W        W24666  18.005   9.535   3.973  0.0250 -0.2353  0.0518
 5133W        W24667  12.748  11.726  15.995 -0.1640  0.0127  0.1444
 5134W        W24668  18.069   7.791  12.079  0.3215  0.1304  0.0074
 5135W        W24669  10.846  10.124   2.414 -0.1804  0.0636  0.0763
 5136W        W24670  14.002   0.701   2.120 -0.2841 -0.1747 -0.0981
 5137W        W24671   1.780  15.166  12.416 -0.2260 -0.1319  0.0551
 5138W        W24672   5.341   1.378  11.968 -0.1500 -0.0612 -0.0450
 5139W        W24673   6.010   8.804  11.675  0.0840  0.0597  0.4459
 5140W        W24674  12.281  16.356  14.893  0.1956  0.0824  0.0721
 5141W        W24675  13.485  11.129   0.865 -0.0574  0.0053 -0.1773
 5142W        W24676  15.241   3.866  14.280  0.2503  0.0613  0.0392
 5143W        W24677  18.071   8.606  13.559 -0.0672  0.2461 -0.3055
 5144W        W24678   5.685  16.033   1.158  0.1737  0.0187  0.1045
 5145W        W24679   7.622   3.482   3.055  0.0695 -0.0036 -0.0447
 5146W        W24680   9.840   8.422   3.690 -0.2453  0.0632 -0.4667
 5147W        W24681  13.981   8.240   2.214  0.0830 -0.4360 -0.1583
 5148W        W24682   7.556   5.059   3.273 -0.1074 -0.0264 -0.2158
 5149W        W24683   3.159  10.410   0.966  0.1318  0.2226  0.1550
 5150W        W24684   6.568   0.852  12.870 -0.1145 -0.2633 -0.1737
 5151W        W24685   5.573  17.614   0.050 -0.2298  0.0029 -0.0504
 5152W        W24686  11.473   1.739  14.463  0.0686  0.2408  0.0092
 5153W        W24687   9.706   2.177  12.453 -0.0654 -0.1384 -0.0595
 5154W        W24688   6.032   3.881   1.594 -0.2712  0.2258 -0.2162
 5155W        W24689   4.157   1.165  11.792 -0.0074 -0.1720 -0.0057
 5156W        W24690   2.159  12.070   3.004  0.1949  0.1113  0.2929
 5157W        W24691   7.268   4.340  12.316  0.1229 -0.0947  0.0637
 5158W        W24692   9.300   6.053   0.987  0.1300  0.1015  0.1642
 5159W        W24693  15.506   5.144   0.533  0.2037  0.1553 -0.1971
 5160W        W24694   4.243  12.105   2.549 -0.2369 -0.0892  0.0657
 5161W        W24695   9.210  14.194  14.535  0.0655 -0.1375  0.2131
 5162W        W24696  10.557   2.259  13.267  0.1905 -0.2619 -0.2548
 5163W        W24697   8.642   8.302  14.895 -0.1673  0.0617 -0.0948
 5164W        W24698   4.198  15.261  13.291  0.3330  0.1283  0.3922
 5165W        W24699  13.462   3.498   0.710 -0.1146  0.1609  0.0815
 5166W        W24700  12.400   5.660  15.634 -0.1115 -0.5007  0.1383
 5167W        W24701   9.393   3.444  15.400 -0.3752 -0.0607 -0.2001
 5168W        W24702   9.117  14.809  15.531  0.4668 -0.1236 -0.1982
 5169W        W24703   5.306  11.338   2.508  0.0727 -0.2108  0.1048
 5170W        W24704   0.024  14.039   0.286 -0.1816 -0.1239  0.0216
 5171W        W24705   0.942   6.029  12.567  0.2261 -0.1008 -0.0521
 5172W        W24706  12.415   3.500  11.826  0.0488  0.1926 -0.3355
 5173W        W24707   2.307   6.929  12.738  0.0693 -0.0808 -0.1271
 5174W        W24708   8.738   7.306  11.284  0.2041  0.1202  0.3023
 5175W        W24709   4.890  13.108  14.147 -0.0005 -0.1610  0.1511
 5176W        W24710   1.557   7.781  13.756  0.0794 -0.0517  0.0750
 5177W        W24711   0.347   6.783   2.798  0.1234  0.0099  0.3294
 5178W        W24712  15.961   1.089   0.385 -0.0802  0.2147 -0.2908
 5179W        W24713   6.897   0.648   2.775  0.1178 -0.1921 -0.0303
 5180W        W24714   1.172   4.884   3.079  0.1274  0.0505  0.0036
 5181W        W24715   4.397   9.891   2.930 -0.0378 -0.1667  0.0344
 5182W        W24716  12.080   6.605   2.269 -0.0902 -0.1828  0.1117
 5183W        W24717   3.224  14.494   0.923  0.1319 -0.1809  0.0545
 5184W        W24718   0.545  10.527  14.197  0.2503  0.0312 -0.0033
 5185W        W24719  12.438  17.371   2.078  0.0427  0.0630 -0.1380
 5186W        W24720  14.386   5.833   1.505 -0.0390 -0.0076  0.0715
 5187W        W24721  15.350   0.058   4.367  0.2776  0.0680 -0.2266
 5188W        W24722   2.496   6.791   2.097 -0.0544 -0.3120  0.0684
 5189W        W24723  10.655   1.437  15.980 -0.1156  0.0072 -0.0577
 5190W        W24724  14.265   7.714   1.452 -0.1100 -0.0801 -0.2013
 5191W        W24725  16.768   9.274  13.161 -0.1024  0.4037  0.0869
 5192W        W24726   6.215   6.468   0.675  0.0771 -0.0526  0.3657
 5193W        W24727   5.831  17.766   2.954 -0.0575  0.1579 -0.0927
 5194W        W24728  11.691  13.637  12.224  0.1495 -0.1772 -0.0846
 5195W        W24729   8.644  14.450  12.842 -0.0305  0.1557 -0.1475
 5196W        W24730  17.250  15.213  13.938 -0.0226 -0.0293  0.1718
 5197W        W24731  13.964  11.103  15.090 -0.0130  0.1069  0.1790
 5198W        W24732   4.276   7.047  15.952  0.0542 -0.1299  0.0831
 5199W        W24733  15.742  17.747   4.253 -0.1389  0.0976  0.0161
 5200W        W24734  14.824  14.907  15.812  0.0927 -0.0304 -0.1104
 5201W        W24735   8.908  12.975  14.482  0.0477 -0.0198 -0.0202
 5202W        W24736  17.359  15.489  12.846  0.1662  0.0510 -0.1606
 5203W        W24737   4.481  11.179  13.550  0.1117 -0.0607  0.2037
 5204W        W24738   0.189  17.004  15.298 -0.0915  0.1809 -0.2142
 5205W        W24739  16.879   6.543  11.340 -0.3683  0.1115  0.1356
 5206W        W24740   7.334  11.191  12.639 -0.3044  0.0038  0.2132
 5207W        W24741  15.836   5.058   3.040  0.0123  0.1118 -0.1491
 5208W        W24742   4.317   9.210   0.980  0.0799  0.1168  0.0418
 5209W        W24743  14.776   7.928  14.944  0.2394  0.1056  0.1248
 5210W        W24744  15.709  10.301  14.798  0.4127 -0.1672 -0.0694
 5211W        W24745   9.752   1.001   0.600 -0.2399  0.0480 -0.0299
 5212W        W24746   0.759   0.737   2.293 -0.2064 -0.1921  0.1072
 5213W        W24747  11.467  17.175  15.567 -0.0171 -0.0831 -0.0230
 5214W        W24748  12.326  17.105   0.231 -0.1688  0.0503  0.1291
 5215W        W24749   7.763   7.821   3.304  0.0303 -0.2223  0.2531
 5216W        W24750   5.438   4.211  12.601  0.0683 -0.0457  0.0634
 5217W        W24751  18.058  10.846  12.847 -0.3424  0.1703  0.2941
 5218W        W24752   7.491  14.718  11.832 -0.1300  0.0520 -0.0877
 5219W        W24753   5.284  14.275  15.653 -0.1303  0.1437 -0.0701
 5220W        W24754  14.624   3.271  11.314  0.0335  0.1304 -0.2455
 5221W        W24755  14.863  13.873   1.766  0.0263 -0.2529 -0.1729
 5222W        W24756   0.587   6.027  14.925  0.0551 -0.2179  0.2161
 5223W        W24757  17.232  16.893  12.515  0.1547 -0.4631 -0.0639
 5224W        W24758   3.552   5.492   1.641  0.1385  0.1446 -0.1185
 5225W        W24759  16.898   8.195   2.644  0.2142 -0.0409 -0.2204
 5226W        W24760  15.862   1.644  13.188 -0.1891 -0.0118  0.0735
 5227W        W24761  16.725   0.623   0.189  0.2002  0.0572  0.0440
 5228W        W24762   0.791   8.160  11.754 -0.0023 -0.1635 -0.0468
 5229W        W24763   4.649   3.054   0.174  0.4052  0.0070  0.0387
 5230W        W24764  15.590   0.214  12.795 -0.0149 -0.1657 -0.1731
 5231W        W24765  13.746  13.170   0.728 -0.1740  0.1164  0.0042
 5232W        W24766  11.391  15.123  13.065  0.1239  0.2298 -0.1285
 5233W        W24767  16.797  10.877   4.672  0.3426  0.1847  0.1894
 5234W        W24768   0.675  14.772   0.971 -0.1345 -0.1250 -0.1998
 5235W        W24769   2.269   0.478  12.127  0.0293 -0.1597  0.1162
 5236W        W24770   0.503   8.881   3.037  0.2559  0.1571 -0.2710
 5237W        W24771   0.753   5.125   2.223 -0.2833 -0.3766  0.0596
 5238W        W24772   0.265   6.228  13.861  0.1963  0.2578 -0.0220
 5239W        W24773   7.679   0.747   3.299 -0.0325  0.0421 -0.2738
 5240W        W24774   3.640   6.262   4.305  0.1177  0.1076 -0.1672
 5241W        W24775   5.053   3.676  15.093  0.0731  0.1177  0.3003
 5242W        W24776   9.720   7.715  15.168  0.1197 -0.0834  0.0339
 5243W        W24777   2.209  16.235  14.983  0.0012 -0.0005 -0.1679
 5244W        W24778  10.892   6.833  15.112  0.0644  0.0160  0.1264
 5245W        W24779  14.777   9.779   0.436  0.1339 -0.3997  0.2244
 5246W        W24780  16.901  15.686   2.197  0.1224  0.2294 -0.0558
 5247W        W24781  12.932  12.230   2.065 -0.2944 -0.4177  0.2152
 5248W        W24782   3.322  14.509  12.446  0.1307 -0.1436 -0.0264
 5249W        W24783  13.246  15.085   3.126 -0.1186 -0.2222 -0.6002
 5250W        W24784   9.003   3.918  13.603  0.5774  0.1372  0.1922
 5251W        W24785   4.248   4.063   1.004 -0.2629  0.1748 -0.0282
 5252W        W24786  17.806   0.691  14.156 -0.3158 -0.0668 -0.1613
 5253W        W24787  11.840   9.626  11.116 -0.1389  0.1600 -0.1880
 5254W        W24788   8.507   6.537  13.710  0.1988  0.1640 -0.0047
 5255W        W24789  16.043   8.645   5.192  0.1094 -0.2592  0.2303
 5256W        W24790  14.445  13.184   1.407 -0.1601 -0.1935  0.0964
 5257W        W24791   5.717  11.883  10.433 -0.0210  0.1268  0.1726
 5258W        W24792   1.046  12.764  13.108  0.0393 -0.2363  0.2356
 5259W        W24793   6.725   4.452  15.181  0.2712  0.0776 -0.1680
 5260W        W24794  17.368   9.842  13.519  0.0268  0.0071 -0.1199
 5261W        W24795   0.326  12.784  13.607  0.0802 -0.0321 -0.2166
 5262W        W24796   9.863   4.891   5.078  0.3894  0.2635 -0.2283
 5263W        W24797  17.625   1.552   4.758  0.3361  0.2394  0.1044
 5264W        W24798   7.101  12.711  14.358 -0.1275 -0.1068 -0.0984
 5265W        W24799   2.603   0.346  14.214  0.2042 -0.0595 -0.0802
 5266W        W24800  11.663  14.418  15.626 -0.1323  0.0956 -0.1666
 5267W        W24801  17.721   8.854   3.644 -0.1311 -0.0646 -0.1634
 5268W        W24802   1.990  14.326   2.798 -0.1401  0.1046 -0.0167
 5269W        W24803   0.276  17.089   1.672 -0.0886 -0.2277 -0.2949
 5270W        W24804  10.229  11.774   3.952 -0.0496 -0.1548 -0.1506
 5271W        W24805  17.901  17.599  14.146  0.0419  0.2921  0.0835
 5272W        W24806  12.906  12.177   1.157 -0.1497 -0.1495  0.0982
 5273W        W24807   8.114   7.319  11.776  0.0434 -0.1393 -0.0702
 5274W        W24808  14.150  13.425  11.431 -0.0204  0.0412  0.0705
 5275W        W24809   3.795  10.416   4.343  0.1054  0.1530 -0.1257
 5276W        W24810  13.139   5.907   4.823 -0.0972  0.0501  0.0472
 5277W        W24811   8.663   2.961   1.331 -0.2432  0.0952 -0.0268
 5278W        W24812   3.242   2.559  14.106  0.0653 -0.0583 -0.0568
 5279W        W24813  11.784   6.877   0.360  0.1025 -0.0446  0.3118
 5280W        W24814   2.368  12.622   3.533  0.1064  0.0809 -0.1254
 5281W        W24815   7.301  15.970  11.726 -0.3058  0.3478 -0.0558
 5282W        W24816  14.293  10.623   1.189  0.1696 -0.3285 -0.0322
 5283W        W24817   0.009  15.212  14.988 -0.0390 -0.1171  0.1489
 5284W        W24818  16.705  12.184   1.190  0.1163  0.0110  0.0168
 5285W        W24819  13.236   5.634  14.462 -0.2357  0.2660  0.2091
 5286W        W24820   1.688  11.448   1.546  0.2635  0.3566  0.1244
 5287W        W24821  13.966   7.663   3.953 -0.1981 -0.0221  0.2203
 5288W        W24822   2.383  14.987   0.443 -0.1858  0.2304  0.1912
 5289W        W24823  12.181  17.770   2.473  0.0260  0.2225  0.0311
 5290W        W24824  17.115   0.300  14.675  0.0580 -0.0237  0.0523
 5291W        W24825  17.718   7.006   2.688  0.3476  0.0960 -0.1539
 5292W        W24826   9.170   0.839   4.138 -0.1894  0.2064 -0.0007
 5293W        W24827   3.591  11.116  14.765  0.0604 -0.0665 -0.3212
 5294W        W24828  18.129   3.646  11.928 -0.0516 -0.0011 -0.0841
 5295W        W24829  14.502   1.418  14.457  0.1692 -0.1714 -0.1457
 5296W        W24830  10.366  10.342   1.242 -0.1658 -0.4633 -0.0741
 5297W        W24831  18.044   7.877   2.010  0.1804 -0.2236 -0.0884
 5298W        W24832   4.834  17.153  14.472 -0.0547 -0.2258  0.0275
 5299W        W24833   8.267   2.974   0.558 -0.0644  0.0714 -0.1791
 5300W        W24834  16.774  10.888  13.708  0.0161 -0.1335  0.0472
 5301W        W24835  10.215   4.477  14.403  0.0256 -0.2366  0.2712
 5302W        W24836   0.080  13.651  13.379  0.2550  0.2696 -0.0992
 5303W        W24837  10.750   8.980   0.893  0.1182 -0.0735  0.1065
 5304W        W24838  13.937  11.923   2.522  0.1430 -0.0644  0.0005
 5305W        W24839   1.369  13.283  15.199 -0.2130  0.0350 -0.2272
 5306W        W24840  17.554   9.418   1.639  0.0922 -0.1383 -0.0020
 5307W        W24841   0.889   3.324   2.480  0.1752 -0.0789  0.0228
 5308W        W24842   8.895   3.105   1.882  0.0883  0.0798 -0.0054
 5309W        W24843   7.484  11.384   0.365  0.0506  0.0925 -0.2927
 5310W        W24844   5.943  11.434   4.192 -0.0690 -0.0530  0.2147
 5311W        W24845   3.840  14.812   1.414 -0.0201 -0.0151 -0.1450
 5312W        W24846   2.988   6.049   4.453 -0.1350 -0.0792  0.1045
 5313W        W24847   2.889  13.781  15.908  0.2556  0.1565 -0.1265
 5314W        W24848   0.824  12.780   1.502  0.0810  0.0323 -0.0072
 5315W        W24849  16.940  16.149   3.835 -0.0306 -0.2369  0.0666
 5316W        W24850   9.996   0.069  14.728 -0.2244 -0.1051  0.0270
 5317W        W24851   0.444  16.643   3.100 -0.0439  0.1195 -0.1577
 5318W        W24852  14.313  14.447  12.706 -0.0139  0.2324 -0.0401
 5319W        W24853   1.126  11.195  12.954 -0.0541 -0.1190 -0.0135
 5320W        W24854  18.088   1.152   2.932 -0.4090 -0.0716 -0.0390
 5321W        W24855  17.145  12.189   3.941 -0.1552 -0.0359  0.0725
 5322W        W24856   5.178  12.827   3.015  0.2407  0.0030 -0.1174
 5323W        W24857  13.938   3.250   4.422  0.0019  0.2454 -0.1857
 5324W        W24858   9.510   5.239   4.029  0.0932 -0.1657 -0.2588
 5325W        W24859  15.572   1.247  12.966 -0.0766 -0.0326  0.1806
 5326W        W24860   1.383  14.992  13.997 -0.0022 -0.0675 -0.0625
 5327W        W24861   8.301  13.201   4.359  0.0814  0.1047 -0.0823
 5328W        W24862  13.970   0.823   0.242 -0.0651 -0.2582 -0.2605
 5329W        W24863  17.495  14.702  16.016 -0.0784  0.0753  0.0156
 5330W        W24864   7.434  15.215  12.068  0.2144  0.1081 -0.1724
 5331W        W24865  12.989   7.986  12.985  0.0756 -0.1254 -0.0564
 5332W        W24866   5.024  13.339   3.624 -0.3407 -0.1791 -0.1436
 5333W        W24867   7.787   9.631  13.965  0.1662 -0.3099  0.0813
 5334W        W24868   0.979  15.655   0.286 -0.1219  0.3799 -0.0681
 5335W        W24869  16.027   1.399  14.867  0.0781 -0.0477 -0.1335
 5336W        W24870   2.790   6.628   2.528 -0.0890  0.0579 -0.0801
 5337W        W24871  12.894   2.274   1.589 -0.3354  0.0366  0.0583
 5338W        W24872  13.725   6.814   3.071  0.1159  0.1585 -0.0769
 5339W        W24873  10.782   2.561   1.171  0.1671 -0.1582  0.0192
 5340W        W24874  17.533   5.203  12.082  0.3429 -0.1153  0.1767
 5341W        W24875   2.300   1.940  13.851  0.1612  0.1183 -0.4469
 5342W        W24876  15.256  13.044   3.428 -0.0414  0.2389 -0.0127
 5343W        W24877   2.774   6.016   2.651 -0.0358  0.0279  0.1770
 5344W        W24878   1.199   5.554  15.113  0.0918 -0.0907 -0.1432
 5345W        W24879  10.322  18.039  11.493  0.2287 -0.1136 -0.0282
 5346W        W24880  12.082   6.085   1.451  0.2401 -0.2164 -0.1007
 5347W        W24881   9.896  11.924  14.371  0.0287 -0.0742  0.0364
 5348W        W24882   5.024   5.529   1.397 -0.2162 -0.1197 -0.1217
 5349W        W24883   4.075  15.603  15.217  0.1748 -0.1414  0.1260
 5350W        W24884  11.510   9.031   5.598 -0.0768 -0.3119  0.1072
 5351W        W24885   3.216   6.135   3.986 -0.2029  0.3230 -0.1476
 5352W        W24886   3.728  11.090   3.101 -0.0596  0.0575 -0.0486
 5353W        W24887  12.511  14.243   3.934 -0.0306  0.1029  0.2004
 5354W        W24888  11.673  10.896   2.013  0.0971 -0.1982 -0.0752
 5355W        W24889  13.809   0.611  12.958  0.0019 -0.0207 -0.0534
 5356W        W24890  13.512   3.921   1.825  0.0365  0.0162  0.0403
 5357W        W24891  13.327  16.891  15.436 -0.2036 -0.1700  0.1100
 5358W        W24892  14.892  16.716  13.552 -0.0811  0.3175 -0.1349
 5359W        W24893  16.251  10.501  12.989  0.0180 -0.0616  0.1193
 5360W        W24894   1.207   7.653   4.348  0.0268  0.2096  0.2237
 5361W        W24895  16.884  14.020  14.930 -0.1848  0.4686  0.2552
 5362W        W24896   3.744   0.588  13.309 -0.0160 -0.1042 -0.1337
 5363W        W24897  13.944   2.460   1.671 -0.0895  0.3328 -0.2650
 5364W        W24898   4.841  10.538   0.697 -0.2139 -0.1475  0.1668
 5365W        W24899   7.344  13.461  12.915 -0.0031 -0.1657  0.0842
 5366W        W24900  11.486   3.630   1.706  0.1991  0.1621 -0.0777
 5367W        W24901  15.500  12.850  14.855 -0.0749 -0.2999  0.1117
 5368W        W24902   3.944  14.688   4.541  0.0729  0.0762 -0.2558
 5369W        W24903   9.935  13.925   2.071  0.1544  0.0559  0.0801
 5370W        W24904   1.265  13.655   3.305  0.0073 -0.0666  0.0730
 5371W        W24905  12.678   0.406  12.775 -0.1455  0.2324 -0.1783
 5372W        W24906   4.232   2.202  15.789  0.0060 -0.0974  0.0611
 5373W        W24907  13.348  13.396  12.774 -0.3555  0.0289 -0.0346
 5374W        W24908  12.340   4.658   3.972 -0.1759 -0.0542  0.2384
 5375W        W24909   9.938   1.531  14.916 -0.1227  0.2089  0.0303
 5376W        W24910  17.726  11.733   2.385  0.1532  0.2205 -0.1229
 5377W        W24911  10.135   7.461   0.938 -0.2267 -0.3015 -0.2208
 5378W        W24912   5.306   1.776  13.053  0.3440  0.1272 -0.1485
 5379W        W24913   3.004   7.752  15.153  0.1633  0.0818 -0.0471
 5380W        W24914   5.735   0.417  14.628  0.1828  0.1313  0.1179
 5381W        W24915   3.401   3.951  15.307 -0.2051  0.1616  0.1477
 5382W        W24916   2.708   0.499   0.623 -0.0511  0.2476  0.2929
 5383W        W24917   1.774   2.163  13.596 -0.2414 -0.1004  0.0450
 5384W        W24918  15.724   9.594  14.467  0.0379 -0.0892 -0.0301
 5385W        W24919  15.532   9.613   4.301  0.2342 -0.0226 -0.0638
 5386W        W24920  15.978   9.525  12.689 -0.0055 -0.1243  0.1208
 5387W        W24921  10.997  12.838   2.246 -0.0084 -0.1411 -0.0577
 5388W        W24922  10.261  17.694   2.297 -0.0115 -0.0323 -0.0503
 5389W        W24923   9.773  10.617  15.187 -0.4554 -0.0824 -0.4749
 5390W        W24924   5.875  12.911  15.412 -0.1445 -0.0785 -0.1390
 5391W        W24925   4.690  14.121  14.367 -0.0963  0.2241 -0.0496
 5392W        W24926  16.322   7.600   3.669  0.0265 -0.0200  0.2652
 5393W        W24927  18.024  11.227   2.403 -0.0547 -0.2499  0.0406
 5394W        W24928   7.699   1.185  15.233 -0.1184  0.2188 -0.0570
 5395W        W24929   0.873   4.519   1.225  0.2059  0.0746  0.0288
 5396W        W24930  15.458   3.064  13.298 -0.2518  0.1911 -0.0678
 5397W        W24931   0.496  17.057   3.993 -0.1528  0.2537  0.1051
 5398W        W24932  16.948  17.598   2.872 -0.0578 -0.1227  0.3383
 5399W        W24933   1.003   2.427  15.678  0.1373  0.0258  0.0708
 5400W        W24934   3.301   1.799   3.645  0.2660  0.0938 -0.0678
 5401W        W24935   6.904   3.127  14.679 -0.0225  0.0088  0.2331
 5402W        W24936  10.275  14.155  13.564  0.1601 -0.0118 -0.0596
 5403W        W24937   6.595   9.717  12.364 -0.2446  0.3283  0.0637
 5404W        W24938   0.812  10.279   1.330  0.1689 -0.0874  0.0097
 5405W        W24939  16.259   7.295   0.024 -0.1442 -0.2816 -0.3125
 5406W        W24940   3.913  14.280  14.408 -0.0076 -0.2183 -0.3929
 5407W        W24941   7.998   0.182  10.232 -0.1034  0.0309  0.2942
 5408W        W24942   4.570  13.827   3.728 -0.1962  0.3373 -0.0701
 5409W        W24943   1.553   6.543  13.898  0.2812 -0.0527  0.2724
 5410W        W24944  12.000   1.292  15.431 -0.2335  0.0223 -0.0197
 5411W        W24945   2.100   9.356   0.397 -0.3651  0.1007 -0.0150
 5412W        W24946   9.350  18.000   0.050 -0.1348 -0.1080  0.1327
 5413W        W24947   5.758   6.484  13.515  0.2234  0.1859  0.1954
 5414W        W24948  13.369   8.462  14.609  0.1796  0.3648 -0.0409
 5415W        W24949   7.671   5.836   0.741 -0.0866  0.1022 -0.2266
 5416W        W24950   2.196   0.965  11.433 -0.0648  0.1034  0.1841
 5417W        W24951   3.098  16.240  13.711 -0.2850 -0.3540  0.0259
 5418W        W24952   0.993  16.274   2.526  0.2333 -0.0907  0.4993
 5419W        W24953   3.025   7.577   2.490  0.0384  0.1673  0.1785
 5420W        W24954   2.981  16.663   2.145 -0.1299  0.3260  0.0098
 5421W        W24955   4.569   4.293  11.246 -0.1415  0.0221 -0.1519
 5422W        W24956  14.726  11.313   5.048 -0.0630  0.1959 -0.2905
 5423W        W24957  12.387  15.884  14.417  0.1406  0.0172  0.0667
 5424W        W24958  13.911  13.385   3.907  0.1436 -0.0265 -0.0627
 5425W        W24959  15.365   2.007   1.522 -0.0422 -0.1089  0.1026
 5426W        W24960   3.408   9.783   0.411  0.0615 -0.2030 -0.2946
 5427W        W24961  12.786  16.896  15.138 -0.1432  0.3638  0.2511
 5428W        W24962   9.855   8.431   0.045 -0.1436  0.0312  0.2231
 5429W        W24963   3.268   5.505   4.478  0.2309 -0.0124 -0.1843
 5430W        W24964  10.362  15.054  12.518 -0.3997  0.3500 -0.0878
 5431W        W24965   8.347  18.190  16.044  0.3188 -0.0124  0.1349
 5432W        W24966  16.201  13.492  15.311 -0.0935  0.1968  0.2384
 5433W        W24967  17.160   1.155  12.181  0.0059 -0.3612  0.2487
 5434W        W24968  16.800   3.454   3.528 -0.0408  0.0850 -0.2141
 5435W        W24969   2.848   4.528   2.272  0.1391  0.0072 -0.3458
 5436W        W24970   6.643   7.938   2.446  0.1126 -0.0998 -0.1482
 5437W        W24971  18.168   0.133   0.083  0.0132 -0.1924  0.0149
 5438W        W24972  13.552  17.622  12.669  0.2147  0.0702  0.1048
 5439W        W24973  15.834   7.278   2.140  0.0943 -0.0839  0.0894
 5440W        W24974  11.695   7.069  14.351  0.1797  0.2389 -0.1087
 5441W        W24975  11.386   2.762  14.435  0.0833  0.2259 -0.1584
 5442W        W24976   7.395   3.107   0.365  0.0973  0.0010  0.0064
 5443W        W24977  13.142   0.020  13.720  0.1761  0.1059  0.1628
 5444W        W24978   9.574   0.167   2.369 -0.0918 -0.0503  0.1459
 5445W        W24979  12.668  18.145   1.065  0.5803  0.1461  0.3142
 5446W        W24980   3.515  10.162   2.040  0.0529 -0.0134  0.0051
 5447W        W24981  16.569  12.681  12.260 -0.0123 -0.1203 -0.1805
 5448W        W24982  10.612  10.205  15.374  0.1932 -0.1007 -0.0623
 5449W        W24983  16.022   4.855  14.817 -0.0831 -0.1683 -0.1214
 5450W        W24984   2.309   7.809   2.004  0.3285 -0.1384  0.0545
 5451W        W24985   9.366  10.217   3.475 -0.2825 -0.0456  0.1283
 5452W        W24986   1.854   0.999  14.464  0.2948 -0.2555 -0.1010
 5453W        W24987  15.210  16.536   3.539 -0.1178  0.1650  0.1380
 5454W        W24988   9.760  10.895   0.677  0.0490  0.1971 -0.2883
 5455W        W24989  17.544   7.136  13.253  0.0360  0.1271  0.2809
 5456W        W24990   1.155   0.870   0.863  0.3033  0.2049 -0.0790
 5457W        W24991   6.715  13.876  12.342 -0.0126  0.1613  0.0837
 5458W        W24992   4.074  16.176   0.460 -0.1723 -0.0691 -0.0165
 5459W        W24993   6.721   4.143  12.040  0.0384  0.0742  0.1025
 5460W        W24994   3.580   0.597  11.594 -0.1408  0.2197  0.3130
 5461W        W24995  11.016  10.829   0.682 -0.0041  0.0914  0.3456
 5462W        W24996   3.980  16.504   2.405  0.2681  0.1535  0.2446
 5463W        W24997   6.167   4.919   1.260 -0.1499  0.2228  0.0901
 5464W        W24998   5.202   9.158   3.043  0.2414  0.0235 -0.2483
 5465W        W24999  16.583   4.014  12.264 -0.0254  0.1311 -0.0064
 5466W        W25000  10.105  15.243   0.185 -0.1152  0.2723  0.0163
 5467W        W25001   1.488  15.391  12.807  0.2221  0.0102 -0.0539
 5468W        W25002   2.154   8.083   3.304 -0.1481  0.5543 -0.1382
 5469W        W25003   4.411  10.495   0.303  0.1260  0.0081  0.2206
 5470W        W25004  16.394   9.147   0.580  0.1287  0.1310  0.2920
 5471W        W25005   1.713  17.511  12.748  0.0893  0.0643 -0.0763
 5472W        W25006   8.458   2.986   4.230  0.0265 -0.0691  0.0975
 5473W        W25007  12.295  16.400   4.868  0.0757  0.1043  0.4746
 5474W        W25008   5.617   1.304   3.657  0.2043  0.1860  0.0106
 5475W        W25009  16.442  15.939   4.489 -0.1544 -0.0149  0.0138
 5476W        W25010   6.443   3.721   0.463 -0.1932 -0.0202 -0.0757
 5477W        W25011  11.988  16.443  15.520 -0.1828  0.1963 -0.0239
 5478W        W25012   9.332  13.755  11.921 -0.0237 -0.0137 -0.2918
 5479W        W25013  14.069   4.410   4.804 -0.2029  0.2246 -0.0008
 5480W        W25014   7.735   6.799   2.294  0.1267 -0.1578  0.1108
 5481W        W25015  12.228  16.633  13.552 -0.1202  0.0131 -0.0463
 5482W        W25016  16.586   9.369  13.990  0.1851  0.2441 -0.0785
 5483W        W25017   4.832  14.682   1.318  0.0562 -0.2226  0.0360
 5484W        W25018  12.616  12.390  14.136 -0.1403 -0.0482  0.0243
 5485W        W25019   6.427  13.359   3.177  0.0312  0.2009 -0.0965
 5486W        W25020  15.522   0.516  13.290 -0.0510  0.0736  0.3383
 5487W        W25021   3.874  15.273  10.315 -0.0369 -0.0505 -0.2316
 5488W        W25022  17.896   9.472  14.086 -0.0925 -0.3630 -0.0138
 5489W        W25023  12.239   7.987  13.563 -0.2877 -0.0778 -0.0728
 5490W        W25024   0.060   6.973   1.533  0.1457 -0.1017 -0.1419
 5491W        W25025   7.329   5.725   4.602  0.3631  0.1462  0.0762
 5492W        W25026   6.527   5.667  12.679 -0.1714 -0.2850 -0.1696
 5493W        W25027  13.394  14.297  15.260  0.1880 -0.1599  0.1218
 5494W        W25028   9.978  10.186  13.379 -0.1007  0.0170  0.1530
 5495W        W25029  17.590   4.070   1.386  0.1516  0.0261 -0.0284
 5496W        W25030  16.086   7.724  14.494  0.0297  0.1380 -0.3007
 5497W        W25031  15.185   1.389  13.891 -0.0672 -0.3903  0.1044
 5498W        W25032   0.658  14.484  13.585  0.1687 -0.2304 -0.1014
 5499W        W25033  10.358  12.541  14.531  0.1743 -0.2620  0.2419
 5500W        W25034  10.468   8.940   1.291  0.2748 -0.2153  0.0098
 5501W        W25035  10.760  11.087   2.047  0.0823  0.4707 -0.0438
 5502W        W25036   0.681   5.752  13.939 -0.2271 -0.3987  0.1181
 5503W        W25037  15.705   3.807   0.155  0.0863  0.3936  0.0426
 5504W        W25038  14.988  13.854  15.633  0.0680  0.1457  0.0663
 5505W        W25039   3.478   2.232  10.542 -0.4191  0.0656  0.0362
 5506W        W25040  13.688  14.392   3.654  0.0410 -0.0033  0.1405
 5507W        W25041   0.022   0.535  12.080 -0.1517  0.1532 -0.1976
 5508W        W25042   8.341   1.621  15.695  0.0452 -0.1749  0.0579
 5509W        W25043  16.180  12.518  13.275  0.1767 -0.1827  0.1537
 5510W        W25044   5.438   0.360  12.332 -0.3561  0.1519 -0.0483
 5511W        W25045  17.466   9.752   4.569  0.0711  0.1156 -0.0480
 5512W        W25046  14.950  17.188  12.700 -0.0260 -0.1126 -0.2774
 5513W        W25047   1.481   3.290   0.093 -0.0216  0.0649 -0.2663
 5514W        W25048  11.279  12.600  15.452 -0.2381 -0.1657  0.3950
 5515W        W25049  13.292  10.755  15.658 -0.2274 -0.0117  0.2381
 5516W        W25050  11.530  12.126   4.373  0.3210  0.2180 -0.0081
 5517W        W25051   1.374  10.457   2.394 -0.0270 -0.0493  0.1166
 5518W        W25052  13.003  10.729   1.375  0.3918 -0.1449 -0.1628
 5519W        W25053   8.488   6.419   1.253  0.2338  0.2392  0.0285
 5520W        W25054  14.421  15.872   2.749 -0.2961 -0.1476  0.3326
 5521W        W25055   4.012   9.787  15.914  0.2124  0.0129  0.2974
 5522W        W25056  15.307   8.974   0.977 -0.1849 -0.1531 -0.3120
 5523W        W25057   1.732  13.088   0.375  0.1475 -0.0471 -0.1380
 5524W        W25058   0.992  10.907   0.435  0.1933 -0.1821  0.1299
 5525W        W25059  12.034  10.908  12.607  0.1418  0.1936  0.1002
 5526W        W25060  16.517  12.695   5.087 -0.2128 -0.0623  0.1301
 5527W        W25061  16.742  10.834   1.654  0.2063  0.4283  0.3319
 5528W        W25062  12.517   4.383  10.617  0.0990  0.1217 -0.0235
 5529W        W25063   5.568  11.055  15.816 -0.4787 -0.1640  0.2700
 5530W        W25064   7.626   6.255  11.523 -0.2545  0.1780  0.0917
 5531W        W25065  11.809   6.773  11.693  0.0848  0.1601  0.1324
 5532W        W25066  11.351  12.744  14.651  0.1704 -0.1449 -0.4292
 5533W        W25067   2.607   8.840  14.265 -0.0167 -0.2449  0.1540
 5534W        W25068   7.456  13.581   0.592 -0.0063  0.1169  0.1796
 5535W        W25069  17.711  14.434  13.897 -0.1456 -0.0995  0.4270
 5536W        W25070  14.390   9.003   1.481  0.1040  0.0824 -0.0397
 5537W        W25071  16.844   4.452  15.727 -0.0857  0.1749 -0.3738
 5538W        W25072   8.057  14.872   2.358  0.0017 -0.1923 -0.0632
 5539W        W25073  14.248  14.311   2.703  0.1381 -0.2957  0.0285
 5540W        W25074   0.719   2.633   4.479  0.2360  0.1081  0.1140
 5541W        W25075   2.090  12.666  13.909 -0.2690  0.0620  0.0074
 5542W        W25076   3.246  15.455   3.203 -0.1817 -0.0889 -0.0494
 5543W        W25077   1.698  13.936   0.314  0.0432 -0.1499  0.3410
 5544W        W25078  14.170   2.812   2.066  0.1205  0.0900 -0.1660
 5545W        W25079  12.327   1.522   1.518 -0.0845 -0.2673  0.0245
 5546W        W25080  15.008   6.719   1.272  0.0053 -0.0508 -0.2474
 5547W        W25081  16.324  16.679  14.699  0.1819  0.3638  0.1291
 5548W        W25082   0.759  10.209   2.218  0.2324 -0.0509 -0.1196
 5549W        W25083  16.720  10.246   4.332  0.1875 -0.1033  0.3757
 5550W        W25084  14.800  13.846   3.696  0.1584 -0.2328 -0.1348
 5551W        W25085   8.829  12.751  15.633  0.0884  0.1995  0.1004
 5552W        W25086   9.653   5.961  11.099 -0.0250 -0.0542 -0.0962
 5553W        W25087  15.124   6.899   1.743  0.1525  0.1647 -0.0081
 5554W        W25088  16.847  11.363   1.762  0.0723  0.1061 -0.0536
 5555W        W25089   6.815   6.969   1.635  0.1692  0.0707  0.0006
 5556W        W25090  10.837  12.169   4.927 -0.0124  0.2163  0.2527
 5557W        W25091  13.975   7.492   1.818 -0.0166 -0.0697  0.0427
 5558W        W25092   3.543  12.684  11.124 -0.2852 -0.0829 -0.1529
 5559W        W25093  11.647   7.167   1.566  0.1825 -0.3194  0.1504
 5560W        W25094  14.225  13.369   4.695  0.0186 -0.0135  0.0405
 5561W        W25095   3.272  11.204   3.310 -0.0201  0.2249 -0.0796
 5562W        W25096  15.100  14.918   2.773  0.3368 -0.1765 -0.0419
 5563W        W25097   1.265  18.051   2.348 -0.0377  0.1018  0.1395
 5564W        W25098  13.359   0.680  13.155 -0.1169 -0.4297  0.0119
 5565W        W25099   8.462   8.937   3.849 -0.1883  0.1686 -0.1876
 5566W        W25100   2.702  16.310   2.989  0.0884 -0.1163 -0.1091
 5567W        W25101   3.259  10.840  13.324  0.2605 -0.2633  0.0614
 5568W        W25102   1.572   0.899  15.302  0.2387  0.2088 -0.0115
 5569W        W25103   4.733   0.823  13.881 -0.2048 -0.0280  0.1638
 5570W        W25104   0.260  17.251   2.690 -0.1915  0.4041 -0.1950
 5571W        W25105   8.445  11.936   3.691 -0.2581  0.0867  0.1419
 5572W        W25106   9.327  15.143   0.860  0.1298  0.0581  0.1600
 5573W        W25107   1.358   7.947  11.155  0.1042  0.1722 -0.0360
 5574W        W25108  12.197  13.631   3.116  0.2483  0.0446  0.0918
 5575W        W25109  13.424   7.636   2.499 -0.4619  0.2766  0.2765
 5576W        W25110  14.408   5.325   2.601 -0.3259  0.2054 -0.0851
 5577W        W25111   1.512  11.599  11.266  0.0786 -0.2296 -0.0890
 5578W        W25112   7.643  14.162  13.456 -0.2215 -0.4263  0.0731
 5579W        W25113   2.807   5.830  15.847 -0.1830  0.1926  0.0550
 5580W        W25114   3.275   5.735   1.947 -0.0743  0.0880 -0.3753
 5581W        W25115  17.250   6.070   4.456  0.2406 -0.0143 -0.2082
 5582W        W25116  13.023  15.088   0.045  0.3533 -0.1547  0.0371
 5583W        W25117   1.121  10.576  15.173  0.2854  0.2306  0.2516
 5584W        W25118   8.971  16.884   1.395  0.0718 -0.0525  0.4964
 5585W        W25119  11.612  11.201  12.816  0.2539 -0.0172  0.1816
 5586W        W25120   9.379   5.606  15.667 -0.5496 -0.0724 -0.1110
 5587W        W25121  14.223   5.190   0.497  0.2118 -0.2147 -0.0618
 5588W        W25122  10.667   6.478   1.895  0.0633  0.2995 -0.0240
 5589W        W25123   3.668  17.617   1.364  0.0330  0.2359  0.1325
 5590W        W25124   9.261   5.043   5.703 -0.2258 -0.0679 -0.1316
 5591W        W25125  13.954  12.026  15.460 -0.3310  0.1006 -0.1987
 5592W        W25126   6.004  14.394   1.347 -0.0551  0.0663  0.0131
 5593W        W25127  15.166  12.737   0.529  0.1780  0.2441  0.2465
 5594W        W25128  17.215   6.957   3.599  0.1276  0.2673  0.0634
 5595W        W25129  18.170   0.579  12.810 -0.2021 -0.0232 -0.2098
 5596W        W25130   3.033   4.034   2.901  0.1632  0.0742 -0.1984
 5597W        W25131  13.604  14.311   4.723 -0.0740  0.1361 -0.2721
 5598W        W25132  15.477   1.242   4.815 -0.0293  0.0539 -0.1743
 5599W        W25133  17.937   8.962  15.320 -0.2292 -0.1914 -0.0887
 5600W        W25134  11.132   5.682  15.748  0.3089 -0.1957  0.1191
 5601W        W25135   0.694  15.341  16.028 -0.1049 -0.2194  0.0484
 5602W        W25136   7.285  16.196   4.148  0.1270  0.1009  0.1022
 5603W        W25137   6.539   5.926  13.569 -0.0090 -0.1116  0.3606
 5604W        W25138  13.078   8.149   4.185 -0.0363  0.0498 -0.3910
 5605W        W25139  16.156   1.477   1.137  0.0197 -0.2421 -0.2579
 5606W        W25140  13.757   2.700   2.553  0.0980 -0.0423  0.1585
 5607W        W25141   6.078   5.304  15.448  0.2497  0.2539  0.0351
 5608W        W25142   9.457   2.352   0.903 -0.1940 -0.2080 -0.0141
 5609W        W25143  13.193   9.377   4.321  0.0070  0.2533 -0.0729
 5610W        W25144  10.187   9.573  13.961  0.1310 -0.1576 -0.0903
 5611W        W25145   8.424   0.937  11.462  0.0027 -0.1009 -0.0901
 5612W        W25146   2.893  11.045  12.399 -0.0324 -0.2151 -0.2492
 5613W        W25147   3.325  17.272   0.242  0.1188 -0.1193  0.0162
 5614W        W25148  16.471   6.515  14.496 -0.3144  0.1736 -0.1472
 5615W        W25149  15.275   5.891  15.851  0.0177 -0.3792 -0.3052
 5616W        W25150   7.713  14.582   0.215  0.0621  0.1505 -0.0208
 5617W        W25151  10.261  14.779   0.010 -0.1390 -0.1671  0.1897
 5618W        W25152  13.506  12.623   4.781  0.0239 -0.1688 -0.0404
 5619W        W25153   7.434   9.739  12.489  0.0841 -0.2708  0.0248
 5620W        W25154   1.500   2.129   1.410 -0.0355  0.0718 -0.0246
 5621W        W25155   8.421  12.825   2.939  0.0124 -0.2149 -0.2510
 5622W        W25156   3.714  14.478  12.077  0.0272  0.2161  0.0920
 5623W        W25157   8.570   0.014  11.457  0.2030 -0.2246 -0.1004
 5624W        W25158   1.202  15.531   0.837 -0.1498  0.0391 -0.1253
 5625W        W25159  15.678   9.889   0.557  0.0038 -0.0448 -0.3413
 5626W        W25160   8.218  12.560  12.033  0.2758  0.1348 -0.0660
 5627W        W25161  15.842   3.398  14.911 -0.0286 -0.1444 -0.0786
 5628W        W25162   0.744  10.979  14.978 -0.1251 -0.3834 -0.0767
 5629W        W25163  16.238   4.357  12.209 -0.0619 -0.0854  0.0849
 5630W        W25164   6.941  18.090  15.853  0.1500  0.4013 -0.1282
 5631W        W25165   7.121  11.122   1.193  0.1245 -0.0590  0.0534
 5632W        W25166  10.920   6.988  13.846 -0.1316 -0.1880 -0.0997
 5633W        W25167  17.680   8.709  13.925 -0.0842  0.0305 -0.0344
 5634W        W25168  15.407   0.651  11.928  0.0334 -0.0900 -0.0261
 5635W        W25169   5.162   7.212  12.760  0.3029  0.4046 -0.2528
 5636W        W25170   2.072  17.423   0.848  0.1881 -0.0031  0.2285
 5637W        W25171   4.333  11.914   3.881  0.5109 -0.2246 -0.2400
 5638W        W25172  12.465  10.582   3.433  0.2870 -0.1948  0.1883
 5639W        W25173   9.740   7.512   1.596  0.3238 -0.0369  0.0318
 5640W        W25174  15.557   0.519   3.591  0.2123 -0.0829 -0.2478
 5641W        W25175   7.218   7.901   4.505 -0.0109  0.0732  0.2278
 5642W        W25176  16.466  11.624  12.208  0.2436  0.2926  0.1684
 5643W        W25177  13.255   9.156  15.659 -0.0184 -0.1719  0.1961
 5644W        W25178   7.410  14.117   0.695  0.0745 -0.0377 -0.0509
 5645W        W25179   5.738   8.767   1.118  0.1085  0.0785  0.2188
 5646W        W25180   2.098  16.345   0.199  0.0913  0.2230  0.0850
 5647W        W25181  16.871   1.622   0.026  0.1472 -0.1965  0.0618
 5648W        W25182   9.961   1.785  15.887 -0.0397 -0.0368  0.1172
 5649W        W25183   7.862  13.942   1.903 -0.0212 -0.0290  0.0858
 5650W        W25184   8.267   2.230  11.724  0.2080 -0.2289  0.0648
 5651W        W25185  10.213   0.768   1.146  0.1466  0.1221 -0.0886
 5652W        W25186  16.644   0.922  14.919 -0.2849 -0.0870  0.2068
 5653W        W25187   9.512   5.244  15.300  0.1969 -0.3875 -0.1661
 5654W        W25188   5.203   4.040  13.039  0.2134  0.2026 -0.0384
 5655W        W25189   2.154   7.760  11.652 -0.1651  0.1029  0.2031
 5656W        W25190   8.022  11.925  15.932  0.1270 -0.0727  0.1858
 5657W        W25191  14.872   0.236   4.227 -0.1673 -0.3898  0.4911
 5658W        W25192   7.642   8.089  13.032  0.1648  0.0311  0.2564
 5659W        W25193  11.919   6.991  13.066 -0.1164  0.1794 -0.2928
 5660W        W25194   6.742  11.544   2.373 -0.0536 -0.3202  0.1380
 5661W        W25195  11.639   4.553  14.098  0.0681  0.3528  0.0945
 5662W        W25196  13.124  13.241  14.113  0.0836  0.0342 -0.0795
 5663W        W25197   8.184   4.218  12.730 -0.1531 -0.0570 -0.2759
 5664W        W25198   1.217  10.224  14.854  0.0513  0.0152 -0.0031
 5665W        W25199  14.786   5.169  14.787 -0.1292 -0.1938  0.1949
 5666W        W25200  10.628  15.024  12.032  0.0946 -0.1455 -0.2005
 5667W        W25201   5.890  17.940  15.568 -0.2939  0.1355 -0.1164
 5668W        W25202   9.487   5.422   1.406 -0.0806  0.1904 -0.1208
 5669W        W25203   6.071   0.786   1.009  0.3054 -0.0842 -0.1362
 5670W        W25204  12.205   5.339   3.020  0.1424  0.1614 -0.2640
 5671W        W25205   6.145   2.421   3.305  0.3862  0.0928 -0.2315
 5672W        W25206   9.339  13.021  13.843  0.1569  0.1675  0.0284
 5673W        W25207  15.905  17.644   3.776  0.0272 -0.2000  0.1568
 5674W        W25208  11.386   3.106  12.044 -0.1168 -0.1164 -0.2084
 5675W        W25209   4.204  12.434  15.660 -0.0496  0.2450 -0.0930
 5676W        W25210  13.585  17.162   0.553  0.2594 -0.0799  0.0216
 5677W        W25211   4.905   5.917  12.387 -0.2336  0.0203  0.0063
 5678W        W25212  15.425  13.263   0.540 -0.0100 -0.1159  0.0933
 5679W        W25213  12.278  12.097   2.433  0.3037 -0.1181  0.2078
 5680W        W25214  16.314   7.226  12.989 -0.4508 -0.1491 -0.1352
 5681W        W25215  12.432   3.069   4.520  0.0253 -0.2925  0.0078
 5682W        W25216   7.489  14.277   1.808 -0.1893 -0.3757  0.3544
 5683W        W25217   2.822   1.286   0.272  0.0178 -0.1495  0.0793
 5684W        W25218   0.722  14.661  14.826  0.1059 -0.2665 -0.0408
 5685W        W25219   9.184   4.206  12.106  0.0688  0.0682  0.2001
 5686W        W25220   5.259   0.391  14.678  0.0672  0.1771 -0.1806
 5687W        W25221   2.236   3.296  13.472  0.0253 -0.2070 -0.2012
 5688W        W25222   4.679  15.369   0.221 -0.2098  0.1906  0.1922
 5689W        W25223  11.902  16.311  13.162  0.0261 -0.1616 -0.2842
 5690W        W25224   9.452   8.806   3.494  0.2315  0.0327  0.0172
 5691W        W25225   3.782   7.329   2.414 -0.1516  0.0616 -0.0719
 5692W        W25226   8.715  14.650  14.159 -0.3574  0.0651  0.1658
 5693W        W25227  13.489  16.223   4.969  0.0318  0.3376 -0.2256
 5694W        W25228  16.531  11.173   3.709  0.0980  0.0008 -0.1593
 5695W        W25229   8.916   7.001  15.926  0.0971  0.1217  0.0177
 5696W        W25230  17.950   0.845  12.358  0.0348 -0.2020 -0.0314
 5697W        W25231  17.396   0.252  11.635 -0.2795  0.0023  0.0890
 5698W        W25232  14.210  10.181   3.943  0.1187  0.1927 -0.1112
 5699W        W25233  13.783  14.730   3.996  0.0623  0.2177  0.2271
 5700W        W25234   0.785  10.239  12.876  0.1828  0.3172 -0.0469
 5701W        W25235   7.487   3.408   2.125  0.0141  0.1294 -0.0645
 5702W        W25236   9.132   0.493   2.965  0.0327  0.0901 -0.0188
 5703W        W25237   3.722   8.303  12.011 -0.2177 -0.1262  0.1765
 5704W        W25238  17.901  13.957   1.423  0.0568  0.1848  0.1761
 5705W        W25239   2.042  17.316   2.559 -0.0204  0.1872 -0.1290
 5706W        W25240   4.780   8.813   3.830  0.1570 -0.0945 -0.0734
 5707W        W25241  13.255   1.036   4.091 -0.2032  0.0315 -0.0517
 5708W        W25242  10.979  15.251   0.288 -0.0650 -0.0508  0.0021
 5709W        W25243  16.295   0.274  13.828 -0.0523  0.0088 -0.0287
 5710W        W25244  14.313   9.007   4.076  0.1149 -0.0961 -0.1386
 5711W        W25245  17.143   5.373   5.754  0.2092  0.0816  0.1941
 5712W        W25246  18.150  14.427  15.949 -0.0391 -0.0327 -0.1498
 5713W        W25247  13.087   0.242   3.134  0.1727 -0.3898 -0.0263
 5714W        W25248  14.222   1.067   1.352  0.0049 -0.0290  0.1176
 5715W        W25249  10.537   0.330   1.941  0.2099 -0.0711 -0.2238
 5716W        W25250  13.450  14.758  15.302  0.0974 -0.0274 -0.1746
 5717W        W25251  15.156  15.831   1.601 -0.0935  0.1142  0.1623
 5718W        W25252   1.007  12.321   1.483  0.2576  0.0538  0.1661
 5719W        W25253   6.982   4.533   0.684  0.0242 -0.3293  0.0666
 5720W        W25254   7.552  14.689  15.078 -0.2811  0.0440  0.1537
 5721W        W25255   7.259   6.723   2.049 -0.0423  0.1197  0.0325
 5722W        W25256  10.149  10.958   4.607 -0.2055 -0.0601 -0.3538
 5723W        W25257   7.957  13.933  14.944 -0.0505  0.0226  0.0908
 5724W        W25258  16.982   7.981   0.022  0.1243  0.3102 -0.1803
 5725W        W25259   1.604  13.041  13.282 -0.1045  0.1126  0.1119
 5726W        W25260  14.201   6.336   1.620 -0.5161  0.1214 -0.0705
 5727W        W25261  11.432  10.536   4.395  0.0686 -0.0659 -0.1378
 5728W        W25262  12.931   1.371  15.335 -0.1492  0.0247 -0.1009
 5729W        W25263  17.668   2.045   4.347  0.1772 -0.2755 -0.2030
 5730W        W25264   9.060  11.084  13.751  0.3704  0.1280  0.0641
 5731W        W25265   8.060   7.303   2.397  0.1282  0.0993 -0.2454
 5732W        W25266  12.630   6.769   4.576  0.0269  0.1532  0.0566
 5733W        W25267   4.814  10.582  10.457 -0.0431  0.2184 -0.2979
 5734W        W25268   1.576   3.881  14.302  0.1786  0.0539 -0.1459
 5735W        W25269  11.872   8.604   3.780  0.1154 -0.0325  0.1755
 5736W        W25270   8.022   6.677  11.078 -0.0413 -0.0077 -0.1809
 5737W        W25271  10.973   2.732   0.156 -0.0691  0.3129 -0.0532
 5738W        W25272   8.518  13.844  11.727 -0.0765  0.1677 -0.0894
 5739W        W25273   0.983   3.458  12.590  0.2714  0.0882 -0.1859
 5740W        W25274   6.123   5.823  15.178 -0.1800 -0.0065 -0.2958
 5741W        W25275   6.522   9.347   5.082  0.0513  0.0824  0.2828
 5742W        W25276   7.018  10.623   1.367  0.1829 -0.3436  0.0739
 5743W        W25277   1.944   0.913   0.158  0.0746 -0.0450  0.1927
 5744W        W25278   8.642  10.909  12.184 -0.0043 -0.1250  0.1179
 5745W        W25279  11.861   5.314  13.597 -0.0653 -0.1452  0.0785
 5746W        W25280   8.616  10.951  11.627  0.2235 -0.2410 -0.2770
 5747W        W25281  12.786   1.982  14.815  0.0431 -0.1444 -0.1107
 5748W        W25282   3.955   0.877  15.289 -0.1265 -0.0693  0.0344
 5749W        W25283   2.873   3.103   3.265  0.1913 -0.2834 -0.1894
 5750W        W25284  13.863  16.021  12.958 -0.0965  0.0336  0.0148
 5751W        W25285   9.773  17.411  12.066 -0.2986  0.2278  0.2210
 5752W        W25286   3.733  16.148   5.195  0.1369 -0.2494  0.2139
 5753W        W25287   5.656  16.097  13.430  0.0028  0.0791 -0.1718
 5754W        W25288  14.178   9.473  12.093  0.2463 -0.4213  0.0155
 5755W        W25289  14.885  13.308   1.664 -0.1533  0.0404 -0.0084
 5756W        W25290   1.670   5.745  15.813  0.2396  0.0880  0.2480
 5757W        W25291  16.724   8.947   4.525 -0.0904 -0.1862  0.2493
 5758W        W25292   1.092   9.755   4.606 -0.0153 -0.2007 -0.1270
 5759W        W25293   4.736   9.733  15.368  0.0221 -0.0241  0.1240
 5760W        W25294   4.545   1.240   1.226 -0.1654 -0.1443 -0.1216
 5761W        W25295   0.947   1.173   2.193 -0.0112 -0.2816 -0.5629
 5762W        W25296   8.924  14.786   4.182  0.2627 -0.0401 -0.0296
 5763W        W25297  11.989   1.091  12.158  0.0039  0.0962 -0.3616
 5764W        W25298   8.639   1.718   0.151 -0.2873  0.3522  0.0334
 5765W        W25299  17.602   3.273   1.149  0.2985 -0.1055  0.0355
 5766W        W25300  10.232   8.923  15.756 -0.1448 -0.1036  0.1074
 5767W        W25301   8.958   5.691   1.345  0.1891  0.2368 -0.0390
 5768W        W25302   7.937  14.369  15.310  0.0756 -0.0440 -0.1977
 5769W        W25303   3.946  12.732   3.048  0.1010 -0.1102  0.0105
 5770W        W25304  14.217   0.776  15.430  0.2476 -0.2762 -0.0676
 5771W        W25305  16.558   7.714   3.250 -0.2237 -0.0261  0.0557
 5772W        W25306   0.375   8.784   4.942 -0.0767 -0.4048  0.0244
 5773W        W25307  14.590  14.173   2.273  0.1944  0.0962 -0.0709
 5774W        W25308  17.655   2.167  12.664 -0.2070  0.0966 -0.0269
 5775W        W25309   6.424  12.964   4.155  0.1605  0.0661 -0.1662
 5776W        W25310  15.640   4.920   2.602 -0.1759  0.0341 -0.0723
 5777W        W25311   9.978   8.187   0.553  0.2786 -0.1561 -0.1405
 5778W        W25312   5.176  13.114   0.165 -0.0761 -0.3317  0.2259
 5779W        W25313   0.190   7.138  11.530  0.1269 -0.0299  0.1659
 5780W        W25314   5.066   6.206  12.024  0.0121  0.1409 -0.3168
 5781W        W25315   7.945   8.106   1.303 -0.1368  0.0826 -0.0781
 5782W        W25316  16.643  17.291  11.636  0.1839  0.2687 -0.0304
 5783W        W25317  15.831  10.173  13.008 -0.1648 -0.1344  0.0178
 5784W        W25318  13.247   2.638   1.009 -0.1238  0.0541 -0.4840
 5785W        W25319  17.925  17.452  12.264 -0.1617 -0.2097 -0.0068
 5786W        W25320   6.591  14.530  11.814  0.1471 -0.1308  0.1427
 5787W        W25321   0.087  15.859   2.695  0.0294  0.0037  0.3073
 5788W        W25322   2.598   5.445  14.457 -0.0426  0.0855 -0.1435
 5789W        W25323   7.371   1.377   3.976 -0.0045 -0.2408  0.2313
 5790W        W25324  17.560  15.042  15.633  0.0235 -0.0826 -0.0700
 5791W        W25325   7.106   8.497   0.259  0.2813 -0.3578 -0.2653
 5792W        W25326   9.286   8.794  13.772  0.2145 -0.0891 -0.0663
 5793W        W25327  14.814   7.356   4.759  0.0832  0.1170  0.0658
 5794W        W25328   4.055  14.197   4.643 -0.0907  0.1655  0.1596
 5795W        W25329  17.471  16.662   4.774 -0.4601 -0.4092  0.0171
 5796W        W25330  16.219  16.152  13.951 -0.0845  0.1077 -0.0927
 5797W        W25331   4.315  10.700   2.487 -0.1716 -0.0694  0.3045
 5798W        W25332  14.268   9.117   3.552  0.0705 -0.1491  0.2490
 5799W        W25333  17.978  11.630  13.723 -0.0906 -0.1644  0.1903
 5800W        W25334  13.123   6.759  11.978  0.2492 -0.1723  0.1556
 5801W        W25335  14.543   5.540   0.672 -0.2941  0.0205 -0.0794
 5802W        W25336  16.520   1.651   4.094 -0.1479 -0.2703 -0.0432
 5803W        W25337   5.519   4.232   2.132 -0.1247 -0.1466 -0.0940
 5804W        W25338  15.333   1.215  11.730  0.1423 -0.0840  0.1733
 5805W        W25339   3.310   0.083   3.053  0.1658 -0.0419  0.0769
 5806W        W25340   9.393   1.177  12.472  0.1057 -0.0256 -0.1656
 5807W        W25341  12.927   9.534   3.937  0.2425 -0.1566  0.2577
 5808W        W25342  10.285   1.900   4.761 -0.4238  0.1770  0.0639
 5809W        W25343   6.316   4.655  13.688  0.1922  0.1316  0.4149
 5810W        W25344   6.413  14.793  11.061 -0.3679  0.1474  0.0698
 5811W        W25345  13.324  17.055   4.793 -0.1505 -0.2066 -0.1578
 5812W        W25346   7.402   8.119  15.571  0.1799  0.1103 -0.0081
 5813W        W25347  11.422   9.299  14.414  0.1185 -0.1209 -0.0352
 5814W        W25348   0.605  13.594  15.633 -0.0321 -0.0599 -0.1198
 5815W        W25349  17.312   8.334  12.985  0.2228  0.1365 -0.2779
 5816W        W25350   7.100  16.203   0.391 -0.3091 -0.0700  0.2705
 5817W        W25351   5.728   8.374   3.926 -0.6379  0.0439  0.2116
 5818W        W25352  16.319  16.326  11.671  0.0569 -0.2013 -0.1767
 5819W        W25353   3.880   4.248   2.175 -0.1649  0.0856  0.2212
 5820W        W25354   3.626   4.013   2.951  0.0338  0.0510  0.0998
 5821W        W25355   1.796   4.131   2.352 -0.1837  0.3284 -0.0314
 5822W        W25356  17.912  16.294   0.132  0.1675  0.1990  0.0125
 5823W        W25357   8.982   1.334  12.690  0.0975 -0.1348  0.0312
 5824W        W25358  11.348   0.146  15.253  0.0432 -0.0631  0.3063
 5825W        W25359   7.599   4.542  13.574 -0.0496 -0.0817  0.3098
 5826W        W25360   9.154   5.774  10.873 -0.1907  0.1174  0.0270
 5827W        W25361  12.432  11.152  12.463  0.2209  0.1907  0.0002
 5828W        W25362  11.259   2.846  15.151  0.1192 -0.0464  0.3392
 5829W        W25363   0.786   5.748  15.408  0.3291  0.0268  0.1942
 5830W        W25364   3.888   3.742   2.025 -0.1458 -0.1359 -0.0388
 5831W        W25365   2.030   2.630  15.581 -0.1880  0.0234 -0.1104
 5832W        W25366   1.799   3.647   2.717 -0.2483 -0.2290  0.1787
 5833W        W25367  10.253   8.543  13.551  0.4787 -0.0514 -0.0360
 5834W        W25368   6.105  14.732   1.704  0.0132 -0.2225 -0.2666
 5835W        W25369   4.090  10.873  13.273 -0.1527 -0.0001  0.1180
 5836W        W25370   7.989   2.028  15.753 -0.1730 -0.1267  0.0454
 5837W        W25371  14.867  10.595   3.399  0.2759 -0.4294 -0.0586
 5838W        W25372  16.776  17.122  12.631 -0.0635 -0.0188  0.0754
 5839W        W25373   1.751   3.883  11.671  0.2313 -0.1367 -0.1005
 5840W        W25374   3.635   4.698   0.687  0.0161 -0.1438 -0.1243
 5841W        W25375  15.969   5.347   4.004 -0.2352 -0.2217 -0.0265
 5842W        W25376   5.929   4.031   5.280 -0.5147 -0.0193  0.3010
 5843W        W25377   1.479   7.000  11.687  0.0028  0.3634 -0.1132
 5844W        W25378   6.069   4.070   0.735  0.3381  0.2925 -0.0040
 5845W        W25379  18.150  17.060   4.418  0.0348  0.1951 -0.0585
 5846W        W25380  12.244  15.297  15.828  0.0317 -0.0883  0.0831
 5847W        W25381   5.855   5.992  11.898 -0.1646  0.0168  0.4021
 5848W        W25382   0.498  13.156   4.767 -0.2529 -0.1669  0.3604
 5849W        W25383   5.555  16.553  15.312 -0.4064 -0.0266 -0.1433
 5850W        W25384  10.617  17.232   4.454 -0.2529 -0.3679  0.0152
 5851W        W25385   4.974  12.229   1.061  0.0105 -0.2253  0.0226
 5852W        W25386   9.368   5.605  15.001 -0.0817 -0.1116  0.0273
 5853W        W25387  14.211  13.268  15.867  0.2641  0.1536 -0.2261
 5854W        W25388   4.521   8.984  15.650 -0.0392  0.0159 -0.2305
 5855W        W25389  13.608   4.375   4.657 -0.0174 -0.3941  0.0138
 5856W        W25390  17.495   8.955   1.756  0.2798  0.3193  0.2617
 5857W        W25391   7.564   8.808   2.598 -0.3901  0.1404  0.1111
 5858W        W25392   3.584  13.347  12.249  0.3907  0.2526 -0.3083
 5859W        W25393   9.291  15.467   3.610 -0.0394  0.3264 -0.2315
 5860W        W25394  10.033  15.915  14.959 -0.0689 -0.1270 -0.1184
 5861W        W25395   0.344  15.776  12.129  0.3261  0.1302  0.1278
 5862W        W25396   7.544  17.118  14.222  0.0832 -0.0974  0.1238
 5863W        W25397   3.141  10.307   3.437 -0.3089  0.2696  0.1409
 5864W        W25398   5.782   4.423  11.553 -0.0940 -0.0853  0.1450
 5865W        W25399   7.567  11.356  15.410  0.0000 -0.0452 -0.2088
 5866W        W25400   3.387  16.362   0.921  0.1157  0.2306 -0.2685
 5867W        W25401   4.004  17.273  15.066 -0.1454  0.0975 -0.0983
 5868W        W25402  16.890   2.846  12.388  0.0936  0.0540  0.0671
 5869W        W25403  16.895   7.379   0.825 -0.1400 -0.0052  0.0073
 5870W        W25404  11.523   5.417   3.527  0.3669 -0.3897 -0.0134
 5871W        W25405  11.164  16.193  12.653  0.5007  0.2101  0.1122
 5872W        W25406  14.911   6.952   3.085 -0.2199  0.0682  0.0640
 5873W        W25407  13.153  11.715  12.777  0.0215  0.2094  0.0180
 5874W        W25408  10.837   1.781   0.225  0.0612 -0.0232 -0.1258
 5875W        W25409  16.470  17.441  15.852 -0.0728 -0.3033  0.0295
 5876W        W25410  11.430   6.396  16.040 -0.2447 -0.2084 -0.0746
 5877W        W25411   3.671   2.043  10.924 -0.2139 -0.2456 -0.2387
 5878W        W25412   3.779   8.817   0.270 -0.0591  0.1284  0.0059
 5879W        W25413   1.630  17.544   0.568  0.0161  0.1361  0.1800
 5880W        W25414   9.026  13.872   4.336 -0.0060 -0.0824  0.2439
 5881W        W25415   9.723  10.342   3.825  0.2110 -0.4575  0.1387
 5882W        W25416  13.965  11.018  12.781  0.0597  0.1476  0.0529
 5883W        W25417   1.392   8.698   3.144  0.1108 -0.0381  0.0521
 5884W        W25418   0.770  10.177   5.581  0.0636  0.5200  0.2826
 5885W        W25419  17.337  10.995  16.016 -0.1709  0.2086 -0.0534
 5886W        W25420  13.295  18.004  11.593  0.0632 -0.2133  0.1980
 5887W        W25421   5.644   5.019   1.419 -0.3890  0.1183 -0.1875
 5888W        W25422   8.661  13.524  15.348 -0.1756 -0.3008 -0.1677
 5889W        W25423   8.274   7.802  11.778 -0.3694  0.1235  0.1668
 5890W        W25424  16.646   0.566  15.722  0.0125  0.3510 -0.3389
 5891W        W25425   2.611  17.598  13.879 -0.0143 -0.1507 -0.0137
 5892W        W25426   6.588  12.526  11.718 -0.1207  0.2429 -0.0216
 5893W        W25427  14.643  15.974  14.842 -0.0691 -0.0062 -0.0879
 5894W        W25428   6.735  14.143   0.102  0.0255 -0.1237  0.0768
 5895W        W25429   4.634  12.857   4.215 -0.1536 -0.1288  0.1839
 5896W        W25430  16.107  14.748  14.781 -0.1426 -0.2769  0.2219
 5897W        W25431   2.848   0.634   3.790 -0.0108  0.1000  0.2889
 5898W        W25432   9.720  11.771  13.062 -0.0783 -0.0995  0.2797
 5899W        W25433  15.825  14.652   2.135  0.1481  0.2991 -0.1111
 5900W        W25434   3.127  17.980  15.850 -0.1287  0.0151  0.1711
 5901W        W25435   8.304   4.130   2.786  0.1148 -0.0078 -0.0921
 5902W        W25436  10.904   6.378  13.174  0.2395  0.3078 -0.2052
 5903W        W25437   3.797   1.733   3.524  0.2503 -0.1066  0.0014
 5904W        W25438  13.498   5.394   3.089 -0.2466  0.1646 -0.0853
 5905W        W25439   8.061  11.459   0.141  0.0893 -0.1033  0.1671
 5906W        W25440  17.478  12.847  13.799 -0.1760  0.1572 -0.1233
 5907W        W25441   6.014   2.808  13.643  0.3826 -0.3939 -0.2361
 5908W        W25442   2.595  12.229   3.779  0.2576 -0.2446  0.1554
 5909W        W25443   9.382   4.560   1.044  0.3933  0.1119  0.1988
 5910W        W25444   9.777   6.219  14.412  0.1258 -0.1907 -0.1925
 5911W        W25445  17.280   5.103  13.776 -0.0720  0.0193 -0.2360
 5912W        W25446  14.293   0.626   4.573  0.1502  0.1690  0.0532
 5913W        W25447   6.808  14.747   1.163 -0.0791  0.0721 -0.4205
 5914W        W25448   9.104   8.987  15.505  0.1519 -0.0903 -0.0557
 5915W        W25449   0.662  11.533  11.439  0.1515  0.1424 -0.0342
 5916W        W25450   7.727   3.661  11.993 -0.1457  0.0025  0.0368
 5917W        W25451  16.352   1.464  15.952 -0.0185  0.0103 -0.0185
 5918W        W25452   4.323  16.919   5.341 -0.0281 -0.0333  0.0967
 5919W        W25453   7.864  14.270  11.890  0.3434  0.2190  0.0204
 5920W        W25454   9.462  14.294  11.212  0.2228  0.2013 -0.0961
 5921W        W25455  13.892   9.815   2.540 -0.0075 -0.0220  0.1871
 5922W        W25456   3.281  10.228  10.587  0.0983  0.1118 -0.0411
 5923W        W25457   2.998   6.149   1.768  0.0440  0.1685  0.0186
 5924W        W25458  16.854   0.974   5.147 -0.0151 -0.2408  0.2601
 5925W        W25459  11.002   9.894   3.744  0.0305 -0.1498  0.2427
 5926W        W25460   8.732   6.952  13.916  0.0112 -0.0548  0.2528
 5927W        W25461   6.529  11.826  12.806  0.1014  0.2852 -0.0670
 5928W        W25462   9.179  16.973  15.190  0.1519 -0.0967 -0.0303
 5929W        W25463   1.722   5.160   0.347  0.0311  0.0670  0.4151
 5930W        W25464  11.469  17.114  11.966  0.1703 -0.2043 -0.3148
 5931W        W25465   8.621   3.526   4.418 -0.0480 -0.1959  0.1774
 5932W        W25466   8.188  10.679   4.647 -0.2209 -0.1067 -0.2208
 5933W        W25467   7.713   5.070  13.940 -0.0725 -0.0474  0.3229
 5934W        W25468  17.350  10.437   0.234  0.0768  0.2329  0.0147
 5935W        W25469  14.652  13.917  13.151  0.3578 -0.1742 -0.1146
 5936W        W25470   9.142  16.169   4.319  0.0889  0.1112 -0.1935
 5937W        W25471   2.492   5.931   3.186 -0.0029  0.2242 -0.0021
 5938W        W25472  16.147   8.350   1.107 -0.0319 -0.0547  0.3730
 5939W        W25473   6.522  11.890  14.553  0.3226  0.1322 -0.0888
 5940W        W25474   5.302   7.694   5.610  0.1712 -0.1243 -0.1429
 5941W        W25475   7.220   4.105   0.924 -0.1700  0.4268  0.3089
 5942W        W25476  13.012   0.903  15.533  0.2476 -0.2031 -0.2939
 5943W        W25477   2.690   1.118  13.554  0.0754 -0.2063  0.1971
 5944W        W25478   4.528   2.671  13.361 -0.0762 -0.0912  0.0467
 5945W        W25479  14.882   1.542  13.511  0.0839 -0.0557  0.1576
 5946W        W25480   8.812   1.277   0.758 -0.3118 -0.0450 -0.2246
 5947W        W25481   4.069   7.946  14.819 -0.2226 -0.1075 -0.0699
 5948W        W25482   1.858   0.993  10.312  0.1866  0.1180  0.2418
 5949W        W25483   5.412  11.672   1.515 -0.0664  0.1753 -0.3352
 5950W        W25484  13.267   4.398   2.058  0.2396  0.0722  0.1865
 5951W        W25485  11.927   6.771  12.179 -0.1625 -0.2974  0.2668
 5952W        W25486   1.160   4.136   0.472  0.1096  0.0032  0.1198
 5953W        W25487   0.755  14.796  13.131  0.0924 -0.0321 -0.1934
 5954W        W25488  16.544  10.880   0.736  0.0857  0.0880 -0.0119
 5955W        W25489  17.680  12.988   0.513 -0.0910 -0.1318  0.0756
 5956W        W25490   6.792   8.939   0.248  0.3175  0.0481 -0.0732
 5957W        W25491   9.598  17.610   0.281  0.0875  0.1225 -0.3401
 5958W        W25492  12.704  14.389  12.117  0.0839 -0.0134 -0.0045
 5959W        W25493  17.254  12.250  10.638 -0.0920 -0.2509 -0.1067
 5960W        W25494  12.048   1.871  11.730 -0.1779 -0.0858  0.2551
 5961W        W25495  10.657   1.180  15.566  0.0526 -0.1550  0.0548
 5962W        W25496  14.958   4.767  15.013 -0.1229 -0.1125 -0.4043
 5963W        W25497   8.099   6.741   0.383 -0.3013  0.2175  0.1807
 5964W        W25498   3.895  17.257  10.646  0.2202  0.1332  0.0612
 5965W        W25499  17.510  12.511   3.623 -0.5102  0.0789  0.0338
 5966W        W25500   9.051   3.481  13.376  0.0229  0.2121 -0.5606
 5967W        W25501  10.442   7.830  16.007  0.0703 -0.2834  0.3668
 5968W        W25502  12.015  10.389   2.886 -0.3347  0.0090 -0.0185
 5969W        W25503   0.369   3.600   4.736  0.0915  0.1210 -0.1734
 5970W        W25504  12.114  11.313   0.544  0.1705  0.1059  0.0003
 5971W        W25505  14.160  14.690   3.594 -0.1310  0.1331 -0.0845
 5972W        W25506   6.302   6.001  12.257 -0.1156 -0.0085  0.1515
 5973W        W25507  14.294   4.722   1.934 -0.1293 -0.3035 -0.0887
 5974W        W25508  17.422   4.950   1.349  0.2712 -0.2470 -0.0779
 5975W        W25509   3.525  10.862  13.784 -0.2988  0.2416  0.1648
 5976W        W25510   9.598   1.541   1.478  0.0407  0.4994 -0.1596
 5977W        W25511  14.008   6.898   0.823  0.3645  0.3245  0.0611
 5978W        W25512  12.109   9.459   4.751  0.1394 -0.1459 -0.1676
 5979W        W25513   3.813  10.414  12.909  0.2106  0.2023  0.1192
 5980W        W25514   0.800  16.009   3.894  0.2215  0.1164 -0.0774
 5981W        W25515  11.016   9.663   1.499  0.1279  0.0619 -0.0602
 5982W        W25516   3.498   4.643   3.903 -0.1647 -0.0142  0.2409
 5983W        W25517   1.830  10.756  15.754 -0.0570 -0.1848 -0.0875
 5984W        W25518  17.451  16.829   0.065  0.0975  0.2808 -0.2673
 5985W        W25519  16.481  14.271  14.766  0.2027 -0.0901 -0.0665
 5986W        W25520   9.383  13.987  15.082  0.1331  0.1680 -0.0709
 5987W        W25521  16.491  12.445  16.034  0.0701  0.0819 -0.2237
 5988W        W25522   1.554  12.129  14.944 -0.1038 -0.2480  0.0018
 5989W        W25523   4.139  13.037  14.715 -0.2470 -0.1270 -0.1381
 5990W        W25524   6.801  17.832  12.654  0.0252 -0.3179 -0.0373
 5991W        W25525   6.144  17.834  13.351  0.1829 -0.1312  0.0894
 5992W        W25526   6.602   7.510  14.046  0.2918 -0.0459 -0.0351
 5993W        W25527   6.775   9.446  15.301 -0.0045 -0.0022  0.0789
 5994W        W25528   2.506   1.020  16.051  0.1600  0.1295 -0.2557
 5995W        W25529   0.819  13.549  11.442  0.0322  0.4386  0.2495
 5996W        W25530   4.866   3.209   2.821 -0.0346 -0.1918 -0.0288
 5997W        W25531   2.297   1.507   2.239 -0.0020 -0.0093 -0.1505
 5998W        W25532  13.993  11.702   3.397  0.2154  0.2293 -0.3795
 5999W        W25533   0.988   4.413  13.003  0.1238 -0.1376 -0.3789
 6000W        W25534   6.106  17.016   2.644 -0.0196  0.3508  0.0824
 6001W        W25535   1.136  12.666   1.051 -0.0355 -0.1772  0.2011
 6002W        W25536  13.324   4.137   4.284 -0.1063 -0.0968 -0.0786
 6003W        W25537  15.985  16.913  12.735  0.1359  0.1259 -0.1905
 6004W        W25538  10.995  13.258   1.101  0.1931  0.2266  0.2417
 6005W        W25539  17.552   5.966  13.382 -0.0541  0.0773  0.0210
 6006W        W25540   8.050   5.854  12.282 -0.3248 -0.1884  0.0289
 6007W        W25541   0.564  14.022   3.642  0.1533 -0.1388  0.0563
 6008W        W25542  17.414  17.556   4.832 -0.2603 -0.1097  0.2079
 6009W        W25543  11.041   2.000   1.274 -0.0170 -0.1282 -0.2270
 6010W        W25544  11.890   8.395  15.614  0.0184  0.3830 -0.0681
 6011W        W25545   9.155   4.844  15.386 -0.1642 -0.0568  0.0462
 6012W        W25546  12.672   1.320   4.398 -0.0406  0.1279 -0.2953
 6013W        W25547   5.955  15.757  12.985 -0.0149  0.2899  0.1137
 6014W        W25548  12.864   8.482  12.818 -0.0189 -0.1533  0.2115
 6015W        W25549   9.801  14.290  15.320  0.3005  0.1555 -0.0900
 6016W        W25550   6.956  12.963  15.858  0.5296 -0.4462 -0.1240
 6017W        W25551   3.491   7.942   0.635 -0.0880 -0.0891 -0.1265
 6018W        W25552  12.008  10.609   1.603  0.0214  0.2185  0.0253
 6019W        W25553  13.368   3.756  11.548  0.0127  0.1295  0.2890
 6020W        W25554  14.359  16.088   4.604 -0.1492  0.0627 -0.2473
 6021W        W25555   8.690   1.069  15.106 -0.0161  0.0333 -0.1577
 6022W        W25556   2.474  12.058  14.455  0.0635 -0.1615  0.1386
 6023W        W25557   2.668   1.270   3.091 -0.1176  0.0124  0.0441
 6024W        W25558   1.705  11.325  13.813 -0.2884 -0.0479  0.0339
 6025W        W25559  17.821   6.029   4.917  0.3005  0.1768  0.0060
 6026W        W25560   8.706   4.194  12.499  0.2610 -0.2303  0.1521
 6027W        W25561   7.648  14.802  12.823 -0.0805 -0.0184 -0.2933
 6028W        W25562  13.306  11.160  12.559  0.1831  0.0313 -0.2528
 6029W        W25563  14.216   9.850   0.275  0.1541  0.0021  0.1900
 6030W        W25564  12.160  16.251   5.385 -0.0994 -0.3565  0.1496
 6031W        W25565   4.081   9.866  14.735  0.0535 -0.0656  0.0421
 6032W        W25566   3.281  17.154   2.754  0.1707 -0.1091  0.3826
 6033W        W25567  14.252   8.128   2.641  0.0232  0.1045 -0.1534
 6034W        W25568   8.139   4.781  15.704 -0.1102  0.4170  0.0071
 6035W        W25569  16.563  11.334  12.591  0.4875 -0.0607 -0.1882
 6036W        W25570   8.496  12.368  14.789  0.0340  0.1492  0.0999
 6037W        W25571   6.643  17.310  14.717  0.2892 -0.0989  0.1799
 6038W        W25572  15.603   0.109  14.947  0.0262 -0.0170 -0.0815
 6039W        W25573   5.416   5.420   3.509  0.0053  0.1512  0.2872
 6040W        W25574   9.258   1.119  15.727 -0.0435 -0.0754  0.2741
 6041W        W25575   4.287   9.259  14.549 -0.0427 -0.2009  0.1091
 6042W        W25576  13.188   9.938  15.061  0.0673  0.0220 -0.1528
 6043W        W25577  12.806   8.850   3.096 -0.1010 -0.1426  0.0403
 6044W        W25578  16.284   4.804  12.004  0.0966  0.3745  0.0394
 6045W        W25579   9.601   1.965  15.305 -0.0858 -0.0740  0.0209
 6046W        W25580   7.479  11.894   5.423 -0.0905 -0.1585  0.1076
 6047W        W25581  15.514   8.073   2.317  0.0104 -0.2025  0.1133
 6048W        W25582  14.055   7.657   3.437 -0.0669 -0.2489  0.1417
 6049W        W25583   3.583  11.146   0.450  0.1949 -0.0746  0.1978
 6050W        W25584   9.323   9.420  15.295 -0.0467  0.2760 -0.0057
 6051W        W25585  10.246  14.911  14.526  0.0437  0.0803  0.0625
 6052W        W25586  13.357  16.221   1.443 -0.5433  0.1304 -0.0585
 6053W        W25587   6.554   3.875  12.652 -0.0802  0.0965 -0.0896
 6054W        W25588  13.086  17.271  15.154 -0.1002 -0.0330 -0.2310
 6055W        W25589  14.760   7.923  15.842 -0.2442  0.0277 -0.3151
 6056W        W25590   9.244   3.480  11.570 -0.1895  0.3165 -0.1000
 6057W        W25591   9.121  12.820   2.368  0.0092 -0.0826  0.0399
 6058W        W25592   7.107   2.125  11.853 -0.3473  0.1428 -0.2767
 6059W        W25593   2.702   4.953   1.580 -0.3264  0.0532 -0.3711
 6060W        W25594   9.588   0.410   1.892 -0.0200 -0.6251  0.2506
 6061W        W25595  10.126   1.348  11.820 -0.1515 -0.1278 -0.0803
 6062W        W25596  15.752  17.121   3.664 -0.0798 -0.2801 -0.1912
 6063W        W25597  14.455   0.929   2.563  0.1588 -0.3088 -0.0273
 6064W        W25598  15.289  10.881   3.400  0.2282  0.1480  0.2047
 6065W        W25599  17.611   9.681   0.264 -0.0720 -0.0608 -0.1841
 6066W        W25600   6.949   8.382   2.346 -0.2186  0.0262  0.1906
 6067W        W25601  10.413   0.943  11.952  0.0652  0.1287  0.1654
 6068W        W25602  11.875  14.506  13.516 -0.3616  0.2761  0.0397
 6069W        W25603   8.772   1.707   2.989  0.0315 -0.1853  0.1059
 6070W        W25604  10.407   7.970  12.314  0.1199 -0.0700  0.2385
 6071W        W25605  16.696   6.291  15.477  0.4811  0.1519  0.0470
 6072W        W25606  15.405   1.523   3.768 -0.1190  0.0265  0.0829
 6073W        W25607  10.308   4.728  16.057 -0.2640  0.2576  0.2565
 6074W        W25608  16.614  13.205  12.711 -0.0026  0.0692 -0.0338
 6075W        W25609  11.575   4.197  10.725 -0.2406 -0.0077 -0.0089
 6076W        W25610  12.181   1.479   2.143  0.0321  0.1000 -0.0999
 6077W        W25611  18.080   3.708   4.730  0.0195 -0.1825  0.0134
 6078W        W25612  15.510   2.934   1.823 -0.0987  0.1933 -0.3062
 6079W        W25613  15.052   3.249  11.628 -0.0949  0.2204  0.2313
 6080W        W25614   1.779   9.148  13.593  0.2624  0.1357 -0.1243
 6081W        W25615   3.787  17.651   3.711  0.3366  0.2034 -0.0890
 6082W        W25616   3.165  16.505  12.235 -0.2165  0.1513  0.0749
 6083W        W25617  10.368  16.384   4.233  0.0751  0.0136 -0.1290
 6084W        W25618  15.773   4.701  14.427 -0.3168 -0.0340 -0.0907
 6085W        W25619  10.722  17.346   0.926 -0.2419 -0.1120 -0.1395
 6086W        W25620   3.189  13.900  11.527 -0.0021 -0.1388 -0.4193
 6087W        W25621  15.952   5.875  14.651  0.0897 -0.2085 -0.0693
 6088W        W25622   4.904  13.310   2.285 -0.1827  0.1554 -0.2640
 6089W        W25623  17.958   4.717  12.003  0.0205 -0.1800  0.1717
 6090W        W25624   1.670   3.439   1.092 -0.0813  0.0047 -0.2175
 6091W        W25625   2.897   7.741  14.068 -0.3462  0.0108  0.1690
 6092W        W25626  15.015   4.491  11.597  0.3845  0.2860 -0.0284
 6093W        W25627   7.076  13.903   5.081  0.0857  0.0567 -0.1233
 6094W        W25628   5.134   9.040   0.628  0.2001 -0.0193  0.1789
 6095W        W25629  15.646   1.469  14.498 -0.1453  0.1866 -0.3539
 6096W        W25630   7.862  14.228   0.516 -0.4292 -0.0551  0.0449
 6097W        W25631   3.683  12.172   3.508  0.1796 -0.3039 -0.1875
 6098W        W25632  17.778   1.816  14.842  0.0148  0.0469  0.2092
 6099W        W25633  10.193   9.751   0.024  0.0551 -0.1724  0.0786
 6100W        W25634  10.992   7.458   2.074 -0.2249  0.0106  0.0721
 6101W        W25635   1.271  13.616  11.665 -0.1430 -0.1396 -0.0199
 6102W        W25636  17.385   0.580  13.965 -0.0555  0.4097  0.1274
 6103W        W25637   3.768  13.763  12.468  0.1382  0.3359 -0.3420
 6104W        W25638  17.178   5.839   5.537 -0.0436 -0.0185  0.0718
 6105W        W25639   5.101   4.652  14.946  0.0933  0.0106 -0.0105
 6106W        W25640   6.620   4.777   3.164 -0.0434  0.1155 -0.1963
 6107W        W25641  14.879   6.688  13.230 -0.0458  0.1983 -0.0738
 6108W        W25642   8.660  14.664  15.279 -0.0599  0.0140 -0.3505
 6109W        W25643   7.898  15.334   3.250  0.2144  0.0944  0.2753
 6110W        W25644   5.860   7.843   0.213  0.0562 -0.2779 -0.1877
 6111W        W25645   3.453   1.950   4.563 -0.3789 -0.3658  0.0938
 6112W        W25646   8.933  13.298   3.770  0.0803  0.0526  0.3155
 6113W        W25647   1.120  12.228  12.124 -0.2812 -0.1626 -0.0606
 6114W        W25648   4.699   0.362  15.461  0.0626 -0.1533 -0.3358
 6115W        W25649   8.616   4.426   2.124 -0.0339 -0.0001 -0.0171
 6116W        W25650  15.677   4.685   0.769  0.1184  0.0793 -0.3026
 6117W        W25651   2.007   4.546  13.983 -0.0925 -0.0358 -0.1422
 6118W        W25652  17.763  16.144   2.638 -0.2230  0.2912 -0.3440
 6119W        W25653   6.473   5.842  11.361 -0.2958  0.1059 -0.0717
 6120W        W25654  12.569   9.681  10.746  0.0614 -0.1580 -0.2606
 6121W        W25655   7.605  14.918  15.557  0.1584 -0.2398 -0.2640
 6122W        W25656  10.942   0.380  14.154 -0.0287  0.0564 -0.0876
 6123W        W25657   0.682   3.570   4.316 -0.0908  0.1269 -0.1271
 6124W        W25658  14.083   2.124   4.936 -0.0291 -0.1339 -0.1040
 6125W        W25659  16.003   4.688   2.296  0.3326  0.3251  0.2072
 6126W        W25660  12.130   4.951   4.754 -0.0295  0.0600 -0.0614
 6127W        W25661   1.070  10.385   0.505 -0.0642  0.1508  0.1072
 6128W        W25662  16.326  11.278   5.722  0.0470 -0.0627  0.1282
 6129W        W25663   3.881   4.824   2.561 -0.0229  0.1177 -0.0770
 6130W        W25664   5.404   6.269   1.968  0.1620 -0.3442 -0.2017
 6131W        W25665   4.936  12.118  14.291  0.1681 -0.0415 -0.2176
 6132W        W25666  12.094  12.213   2.952 -0.2863 -0.0801 -0.1034
 6133W        W25667   5.692   7.534   1.685  0.0654 -0.0840 -0.2997
 6134W        W25668   4.989   2.107  15.920  0.4630  0.1836 -0.1028
 6135W        W25669   5.889   4.614   0.140 -0.1119  0.0248  0.0343
 6136W        W25670  15.836   0.081  12.352  0.2038 -0.0725  0.2593
 6137W        W25671  10.994   3.414  11.871 -0.2098 -0.1151 -0.1249
 6138W        W25672   6.054   1.264   1.118  0.0451 -0.0934  0.0902
 6139W        W25673  11.282   5.630   3.161 -0.4942  0.0296  0.1242
 6140W        W25674  15.967   0.395  15.185  0.1260 -0.1952  0.3983
 6141W        W25675  15.897  14.489  13.863  0.1392  0.1838  0.1633
 6142W        W25676   0.237  15.402   0.164  0.0536 -0.0221 -0.0963
 6143W        W25677   0.587   1.490   2.572 -0.0307  0.1300 -0.1790
 6144W        W25678  12.300  10.366  14.808  0.3713  0.0083 -0.1376
 6145W        W25679  10.302  16.958  11.576 -0.1123 -0.1822  0.3493
 6146W        W25680   0.400   9.923  12.859  0.2249 -0.0256  0.1944
 6147W        W25681  15.422  11.719  14.237  0.0521  0.0888 -0.2454
 6148W        W25682   8.646  14.013  12.571 -0.1200 -0.0602  0.2251
 6149W        W25683  10.850   4.458   4.195 -0.1622  0.1353 -0.0007
 6150W        W25684  13.529  16.718  14.538  0.0355 -0.1427 -0.5346
 6151W        W25685   7.140   2.926   1.634 -0.1517 -0.0734 -0.2316
 6152W        W25686   3.833   2.797   0.846  0.0217 -0.1751 -0.2137
 6153W        W25687  15.770   8.744   1.047 -0.2930  0.1749  0.1572
 6154W        W25688   4.608   5.013   4.459  0.4017 -0.1088  0.0349
 6155W        W25689  12.148   3.408   4.808 -0.0739  0.2827 -0.0535
 6156W        W25690   8.640  11.637   4.154  0.2074  0.0532  0.0050
 6157W        W25691   0.335  12.341   3.621  0.0038  0.0353 -0.1915
 6158W        W25692   9.276  17.717   2.811 -0.1704 -0.0016 -0.0561
 6159W        W25693  11.006   0.802   3.002  0.1366 -0.0237 -0.2356
 6160W        W25694  16.923   4.362  13.590 -0.2141 -0.0854 -0.0630
 6161W        W25695   3.065   9.217   0.654  0.2164  0.1086  0.0295
 6162W        W25696   4.336   3.625   3.620 -0.1502  0.1304  0.1547
 6163W        W25697   4.293   0.407  14.432 -0.1669  0.2476 -0.0063
 6164W        W25698   2.131  12.164  12.595  0.0260 -0.2169  0.1987
 6165W        W25699   7.344  17.302   1.423  0.2892  0.2894 -0.0429
 6166W        W25700   6.529   8.188   3.380  0.2236  0.0358  0.2356
 6167W        W25701   2.627   2.812  12.505  0.0243  0.1009 -0.0126
 6168W        W25702   5.191   7.640   1.543 -0.0981  0.1047  0.3561
 6169W        W25703  17.417   6.220   1.396 -0.1187 -0.3001  0.1353
 6170W        W25704  13.833   4.346   0.716  0.2584 -0.1156  0.1648
 6171W        W25705   9.789   0.431   1.397 -0.0653 -0.1297  0.1109
 6172W        W25706   3.263   8.544  15.102  0.0108  0.3576 -0.2019
 6173W        W25707   0.157  10.074  11.992 -0.0381  0.0028 -0.0770
 6174W        W25708   8.541   3.830  11.299  0.0426  0.0339  0.3883
 6175W        W25709   1.502  12.844  12.575 -0.0456 -0.0729  0.1524
 6176W        W25710  16.726  12.577  13.162  0.3022  0.0776  0.0927
 6177W        W25711  12.799  17.138   2.330 -0.1635  0.0415 -0.1517
 6178W        W25712  13.441  14.885  15.916  0.2157 -0.4167  0.1319
 6179W        W25713   3.079   0.265  14.433 -0.0707  0.2638  0.0121
 6180W        W25714  12.741   4.679   3.422 -0.1435  0.2595 -0.0051
 6181W        W25715   1.069   4.792  14.421 -0.2426  0.0487  0.0472
 6182W        W25716  12.798  15.721  13.969 -0.2442 -0.3935  0.0582
 6183W        W25717   0.882   5.010  13.576 -0.2708 -0.1895  0.1039
 6184W        W25718  13.514   2.361  12.079 -0.1218  0.0885  0.0713
 6185W        W25719  14.020   9.950  11.841 -0.1886  0.0312 -0.2650
 6186W        W25720   2.360   5.692   0.847 -0.1081 -0.1470 -0.0694
 6187W        W25721  11.395  13.629   4.249  0.0899  0.1109  0.0034
 6188W        W25722   9.273  14.997  11.922  0.0041  0.0706  0.0759
 6189W        W25723  16.934  12.024  13.406 -0.0826 -0.1132  0.0488
 6190W        W25724   2.428   0.036   0.563 -0.0090  0.2262 -0.1380
 6191W        W25725  15.569  15.923   4.137  0.1998  0.1817 -0.2065
 6192W        W25726   2.239   5.888  12.605  0.2771  0.0793 -0.2103
 6193W        W25727   5.916  15.677  13.472  0.0577  0.1369  0.2665
 6194W        W25728   7.683  10.794  12.171 -0.2033  0.1909 -0.0840
 6195W        W25729  13.135   9.690  11.410  0.1609 -0.2541  0.0989
 6196W        W25730  11.083   6.513  14.594  0.1707 -0.2642  0.0308
 6197W        W25731  15.002   1.884  13.200  0.0924  0.0785  0.0285
 6198W        W25732   1.669  13.497  11.976 -0.0096  0.0539  0.0034
 6199W        W25733  11.995   7.760   0.381  0.2057  0.3171 -0.0236
 6200W        W25734  15.108   0.339  13.013 -0.0178  0.3533 -0.0523
 6201W        W25735   7.541   4.207  11.462  0.1859 -0.0777  0.0103
 6202W        W25736   4.285   5.370   2.231 -0.1042 -0.2526  0.0428
 6203W        W25737  12.489  17.206   4.826  0.0554  0.3461 -0.0199
 6204W        W25738  17.326   3.744   3.673 -0.0410  0.1969  0.2669
 6205W        W25739   6.879   8.002   1.939  0.3017 -0.1583  0.1142
 6206W        W25740   7.358   4.693   1.682  0.3577 -0.3322  0.2681
 6207W        W25741   5.504  16.082   2.044 -0.1398  0.2806  0.0107
 6208W        W25742  17.783  17.970  14.967 -0.1377 -0.0382 -0.0318
 6209W        W25743   2.097   3.755   1.173 -0.3342 -0.1111 -0.3303
 6210W        W25744  15.800   4.420  11.329  0.3308  0.2555  0.0695
 6211W        W25745   2.986   6.209  15.329  0.2889  0.0745 -0.4091
 6212W        W25746   1.279  10.953  14.802 -0.0091  0.0221  0.1478
 6213W        W25747   2.327  17.545   4.210  0.2908 -0.0562 -0.1283
 6214W        W25748  18.049  11.542   0.275 -0.1567  0.1615 -0.2027
 6215W        W25749  10.777   5.040   3.264  0.0603  0.0406 -0.2515
 6216W        W25750  14.934  14.759   1.602 -0.0039  0.1563  0.0625
 6217W        W25751   4.902   9.951   2.525 -0.0191 -0.1724  0.0959
 6218W        W25752   9.006   9.806   5.260 -0.1973 -0.3265  0.0447
 6219W        W25753   5.005  15.746  15.519 -0.0471 -0.0745  0.0089
 6220W        W25754   1.243   8.533   1.600  0.0416 -0.0503 -0.1447
 6221W        W25755   2.510   1.750  14.823  0.0213  0.1400 -0.2674
 6222W        W25756  16.507   6.051  14.985 -0.0229 -0.3359  0.0674
 6223W        W25757   3.390   2.669   2.865  0.1272  0.2724 -0.2121
 6224W        W25758  10.613   5.390  14.165 -0.1011 -0.2865  0.2406
 6225W        W25759   2.026  18.121   1.049  0.0199 -0.3641  0.1067
 6226W        W25760  14.685   9.931  15.045 -0.0406  0.2854  0.0970
 6227W        W25761  10.126   1.793   1.498  0.0108  0.0849  0.0994
 6228W        W25762  14.501   5.588  15.208  0.1220  0.0270  0.1995
 6229W        W25763   3.354  10.218   2.991  0.0588  0.4817 -0.3335
 6230W        W25764  14.992  13.696   2.679 -0.0764 -0.1484  0.0076
 6231W        W25765   1.407  12.528   2.371  0.1355 -0.2971  0.0908
 6232W        W25766  14.436   0.560   0.553  0.0345  0.0914  0.0814
 6233W        W25767  10.505  16.820   0.278  0.1567  0.1633  0.0218
 6234W        W25768  13.646   2.118   4.688  0.0028 -0.3688  0.1411
 6235W        W25769  11.626   1.272  14.554 -0.0027 -0.1755 -0.0458
 6236W        W25770   8.062   8.450  15.515  0.1211  0.0349 -0.0095
 6237W        W25771  10.695   8.664  13.256  0.1699  0.0367  0.2189
 6238W        W25772   5.512   1.258  14.393  0.0190 -0.2483  0.2439
 6239W        W25773   4.591  16.847  11.830 -0.0865 -0.3657 -0.1261
 6240W        W25774   1.372  17.257   1.339  0.3116  0.1155 -0.1473
 6241W        W25775   2.331   5.921   2.422 -0.1942 -0.0109  0.2435
 6242W        W25776   3.260   8.033  13.104  0.0224  0.1921  0.0323
 6243W        W25777   1.945  14.878  11.941  0.1054 -0.1550  0.0931
 6244W        W25778  13.358   8.013   1.699  0.1629 -0.1982 -0.0244
 6245W        W25779  13.862  17.809  13.066  0.0704 -0.1618 -0.0533
 6246W        W25780  15.740  14.750   3.439 -0.2027 -0.0296  0.0673
 6247W        W25781  14.237   4.651   0.517  0.0109 -0.0724  0.3114
 6248W        W25782   8.882   1.443  13.398 -0.0273  0.1397 -0.0416
 6249W        W25783   4.282  18.130  15.548  0.0832  0.1447 -0.1755
 6250W        W25784  17.309  11.997  14.139  0.2063  0.2007  0.2359
 6251W        W25785  16.234  18.035   3.805 -0.3100 -0.2827 -0.0262
 6252W        W25786   9.443   3.634   0.198 -0.0574 -0.0541  0.1724
 6253W        W25787   8.330  17.672   5.078  0.0093 -0.2162 -0.0825
 6254W        W25788  13.889   5.102   5.903  0.3959 -0.0717 -0.1317
 6255W        W25789  16.085  10.954  12.523  0.0092  0.0183 -0.2246
 6256W        W25790  17.632   3.046  14.454  0.0900  0.1249  0.0009
 6257W        W25791   9.814   9.451  15.231  0.2853  0.0461  0.0176
 6258W        W25792   9.680   6.079   3.626  0.3633 -0.2531  0.3975
 6259W        W25793   2.030   7.525  15.201 -0.0747 -0.0421 -0.1851
 6260W        W25794   5.912   5.076  11.336 -0.1655 -0.0032  0.1768
 6261W        W25795   5.439  13.492   3.373  0.0790 -0.1149 -0.0778
 6262W        W25796   4.217  12.717  11.780 -0.0771 -0.1898 -0.2452
 6263W        W25797   1.550  16.198  11.504 -0.0769  0.2977  0.0989
 6264W        W25798  17.781  13.680  15.543 -0.1929  0.0582  0.1277
 6265W        W25799  16.288  10.221  13.445  0.0752  0.2354  0.1288
 6266W        W25800   6.013   0.108  13.478  0.0321  0.2439 -0.1343
 6267W        W25801   1.722   5.088  13.396 -0.1206 -0.1503  0.1980
 6268W        W25802  15.920   7.846   3.801 -0.0762 -0.2745 -0.3071
 6269W        W25803   3.040   2.317   2.448  0.2866 -0.0874 -0.3393
 6270W        W25804   5.804   3.107  14.579 -0.3842 -0.1015  0.0963
 6271W        W25805  14.305   7.330   2.167  0.2617  0.0551  0.0619
 6272W        W25806   4.993   9.177   4.192  0.2333 -0.1732  0.1550
 6273W        W25807   8.158  12.834  12.500  0.0628 -0.2778  0.2531
 6274W        W25808   9.859  17.366  14.707 -0.0178  0.0098 -0.3094
 6275W        W25809   2.862  14.809  14.794 -0.2595 -0.2438  0.2623
 6276W        W25810   3.749   8.685  15.282  0.1640  0.1428 -0.0107
 6277W        W25811   0.110   6.551   2.406  0.1479  0.0666 -0.1104
 6278W        W25812   9.107   1.477   3.328  0.1668 -0.3103  0.0262
 6279W        W25813  10.041  17.875   2.996  0.0331 -0.0905 -0.1579
 6280W        W25814   6.126   8.275   2.252  0.1890  0.4831  0.3054
 6281W        W25815  15.173   4.858  15.467  0.0072  0.2718 -0.1771
 6282W        W25816  13.259  14.766   2.191 -0.3699 -0.2593  0.0326
 6283W        W25817   8.176   4.375   1.452  0.2188  0.0688 -0.1551
 6284W        W25818  12.408  10.059  15.831  0.0295 -0.1014  0.0403
 6285W        W25819   3.489   8.931   0.706  0.1994  0.1092  0.2136
 6286W        W25820   8.370  13.531  15.708 -0.1951  0.1874 -0.1923
 6287W        W25821   4.454  17.090  12.628 -0.1774 -0.0334 -0.2068
 6288W        W25822   8.612  10.233   2.275 -0.0422  0.0297 -0.2341
 6289W        W25823  13.555   0.061   2.489  0.2025  0.2010  0.3162
 6290W        W25824   9.276  11.901  12.769  0.0166 -0.0631 -0.0327
 6291W        W25825   4.478   3.333  14.420  0.0224  0.0849  0.1985
 6292W        W25826  13.352  15.962  12.834 -0.4032 -0.0860  0.0883
 6293W        W25827  12.097   4.655   1.489  0.2684  0.1206  0.0258
 6294W        W25828  10.995   4.727  12.094 -0.0477 -0.3650  0.1585
 6295W        W25829  15.438   2.421   5.360  0.2648 -0.1014  0.0481
 6296W        W25830  11.842  10.538  12.343  0.0785 -0.0329 -0.0942
 6297W        W25831   3.258   7.763  14.763  0.0407  0.1691  0.1141
 6298W        W25832  13.559  12.652  11.787 -0.1216 -0.1156  0.0893
 6299W        W25833   6.032   6.581   2.656 -0.1894 -0.0075  0.0672
 6300W        W25834   7.371   0.056  13.025  0.0618  0.1893  0.1085
 6301W        W25835  16.462  15.633   1.784 -0.0097 -0.0157 -0.1607
 6302W        W25836   7.712  13.969  14.029  0.0099 -0.0274  0.2336
 6303W        W25837   1.692   6.777   2.346 -0.2028 -0.1148  0.0390
 6304W        W25838  12.537  13.645   1.098 -0.0149 -0.2623  0.1555
 6305W        W25839   1.940   7.446   3.431 -0.2551  0.0185 -0.1383
 6306W        W25840   9.030  16.388   3.895 -0.2413 -0.0027 -0.0647
 6307W        W25841   6.196  13.103   1.724  0.1485  0.1755  0.0229
 6308W        W25842   3.286  12.437  14.602  0.0980  0.0547 -0.0301
 6309W        W25843   6.598  14.170   3.495 -0.1094 -0.0468  0.0584
 6310W        W25844  14.993  13.346   3.796 -0.1140  0.1135 -0.0803
 6311W        W25845   9.094  10.612   4.767  0.0998  0.0704  0.0335
 6312W        W25846  14.737   6.094   1.786  0.0708 -0.1455 -0.1039
 6313W        W25847   4.350   9.656   0.681 -0.0217 -0.0649  0.2675
 6314W        W25848   2.301   1.321   3.815  0.2352 -0.0202 -0.0120
 6315W        W25849  17.812   8.929   0.564 -0.2365 -0.3102  0.2796
 6316W        W25850  10.399  15.667   2.564 -0.0405  0.1140  0.0102
 6317W        W25851   5.537  14.392   3.389 -0.0661 -0.1049 -0.1700
 6318W        W25852   6.181   2.332  13.206  0.1812  0.1846 -0.0293
 6319W        W25853  12.079   7.640   4.635  0.0750 -0.0296 -0.0823
 6320W        W25854   8.443  16.449  12.635  0.2209 -0.0889  0.0068
 6321W        W25855  16.449  10.986   0.158  0.0216 -0.1335  0.3438
 6322W        W25856   2.764   0.092   0.227  0.1027  0.0958  0.0376
 6323W        W25857  13.775   9.838  13.549 -0.1976  0.0656 -0.0859
 6324W        W25858   3.640   1.450  15.925  0.0641  0.0306 -0.1400
 6325W        W25859   3.108   9.914  16.054 -0.1405  0.2964 -0.0740
 6326W        W25860   5.462   2.020   0.113 -0.2327 -0.0460 -0.1389
 6327W        W25861   9.627  15.101  12.772 -0.2164 -0.2517  0.0696
 6328W        W25862   0.105   4.601   4.327 -0.1378  0.2666 -0.1187
 6329W        W25863  17.984   2.197  15.107  0.1242  0.2465 -0.0551
 6330W        W25864  15.896  11.065  13.292  0.1199  0.2358  0.1198
 6331W        W25865   5.651   8.815  13.380 -0.1022  0.1038 -0.1456
 6332W        W25866  14.606   5.976  14.850 -0.1717  0.1036  0.1214
 6333W        W25867  14.159  15.152  12.214  0.1185 -0.2103 -0.0184
 6334W        W25868   7.715   9.210  11.764  0.2457 -0.0434 -0.1487
 6335W        W25869   6.310   5.103   3.348 -0.1207 -0.3373  0.0268
 6336W        W25870  14.113  11.629  12.717 -0.3863 -0.1958 -0.1442
 6337W        W25871  10.949   0.652   3.649 -0.0909 -0.0463 -0.0049
 6338W        W25872  17.095   2.442   3.875 -0.1845 -0.1734  0.2078
 6339W        W25873   8.837  15.159   0.006  0.1317 -0.4649  0.0827
 6340W        W25874   5.893   6.297  12.333  0.1716  0.1847 -0.0479
 6341W        W25875  11.806   0.903   1.900 -0.1868  0.2780  0.0239
 6342W        W25876   0.291  13.659   1.866 -0.0737  0.1146  0.0663
 6343W        W25877   0.043  14.788   5.090  0.0029 -0.0235  0.4123
 6344W        W25878   4.493   7.681   1.533 -0.4577 -0.0410 -0.1047
 6345W        W25879   5.671  14.540   1.897 -0.0170  0.0645  0.1077
 6346W        W25880  10.098   0.691   3.013 -0.1533 -0.0480 -0.0499
 6347W        W25881   4.120   6.289   1.534 -0.0266 -0.0181  0.0671
 6348W        W25882  13.996  11.828   1.391  0.3876  0.3298 -0.0367
 6349W        W25883   4.444  15.028   3.956 -0.1410 -0.2901  0.2670
 6350W        W25884  15.429   5.246  15.949  0.1283  0.0042  0.0102
 6351W        W25885  13.970  18.161  13.438  0.3135  0.1278  0.0073
 6352W        W25886   4.958  13.515  15.457  0.2718  0.0067 -0.0728
 6353W        W25887  15.230   0.411   0.834  0.0827  0.1946 -0.3314
 6354W        W25888  14.438  12.006   1.142 -0.2594 -0.0882  0.0900
 6355W        W25889   4.626  17.654  11.177  0.0111  0.1389 -0.0252
 6356W        W25890  11.730  14.616  11.788  0.1329  0.3557  0.3166
 6357W        W25891   8.207  15.409   0.636  0.0366  0.1326  0.1289
 6358W        W25892  11.680   0.784  14.670 -0.0665 -0.1214  0.2199
 6359W        W25893   8.859  11.309  15.619 -0.1689  0.1747  0.0939
 6360W        W25894  15.205   1.297   1.941 -0.3881 -0.1861  0.0617
 6361W        W25895  10.082  10.878   3.100  0.0494 -0.0280  0.0079
 6362W        W25896  10.891  18.023  15.250  0.1085  0.0981 -0.1258
 6363W        W25897   1.800  14.177   1.779  0.2261 -0.1804 -0.1679
 6364W        W25898  15.773   5.343   0.976 -0.2093  0.1500 -0.1752
 6365W        W25899   4.245   0.368   4.822  0.0672 -0.0370 -0.1218
 6366W        W25900  10.705  13.363   0.708  0.1473  0.3349  0.1363
 6367W        W25901   2.037  11.958  11.865 -0.1563  0.0574 -0.1149
 6368W        W25902  15.485  10.824  11.879 -0.1530  0.0519  0.1052
 6369W        W25903   7.872   8.217  12.532  0.1703 -0.1391 -0.1861
 6370W        W25904   2.456  16.820  15.132 -0.2065 -0.0008 -0.2220
 6371W        W25905   6.684  12.386  13.549 -0.0547 -0.0970 -0.1423
 6372W        W25906   6.774   8.395  14.940 -0.0930 -0.1546 -0.1376
 6373W        W25907  10.748  16.183   4.501 -0.2093  0.0477 -0.1917
 6374W        W25908   8.397  15.090   5.473 -0.0551  0.1346  0.0257
 6375W        W25909   1.127  16.384   1.329 -0.0706 -0.2240  0.0022
 6376W        W25910   1.628  17.824  15.497 -0.1923  0.1101 -0.0569
 6377W        W25911   2.051   5.527   4.343 -0.1650  0.0130  0.0361
 6378W        W25912   4.534   4.915   0.477 -0.1338  0.0977  0.0506
 6379W        W25913  11.411  10.230  15.927  0.1779 -0.1737 -0.1560
 6380W        W25914   6.072  10.936  16.007 -0.0422 -0.1698  0.1749
 6381W        W25915  10.029  15.418  12.686 -0.0070  0.0834 -0.1654
 6382W        W25916  10.626   5.936   3.657  0.1058 -0.3805  0.0567
 6383W        W25917   5.219   1.602   2.795 -0.2433  0.2123 -0.0021
 6384W        W25918   4.623   6.537   3.934 -0.0673  0.0243  0.1708
 6385W        W25919   9.317  11.705   3.352 -0.2044 -0.2228  0.2545
 6386W        W25920   5.829  14.817   4.118  0.1197 -0.0600  0.0740
 6387W        W25921   7.009  16.540  14.744  0.1442  0.1251  0.4556
 6388W        W25922  16.088  11.431   4.553 -0.0442 -0.2419 -0.0006
 6389W        W25923   8.543   4.660  11.655  0.1415  0.0853 -0.1100
 6390W        W25924  14.378   4.197   1.899 -0.0888 -0.0636  0.0417
 6391W        W25925   1.881   1.452   3.559  0.2419  0.0162  0.0057
 6392W        W25926  13.005  16.946   1.376 -0.0396 -0.2598 -0.3458
 6393W        W25927   8.449   6.116  14.031  0.1216  0.3153 -0.1596
 6394W        W25928   1.495  14.408  15.160 -0.1174  0.4481 -0.1503
 6395W        W25929   9.444   3.067  10.634 -0.1920  0.2029  0.0422
 6396W        W25930   6.550   6.692   2.725 -0.1635 -0.0349 -0.0660
 6397W        W25931   7.577   5.295   0.615 -0.0569 -0.0488  0.0114
 6398W        W25932   2.043  12.799   3.935  0.1471  0.1712 -0.0228
 6399W        W25933  16.153   3.064   1.998 -0.0109 -0.1346  0.0373
 6400W        W25934  11.495  10.794  15.936  0.0617 -0.0605  0.0235
 6401W        W25935   5.325   3.004   3.004  0.1637 -0.1122 -0.0833
 6402W        W25936  13.710   5.650  12.588  0.0499 -0.0779  0.0181
 6403W        W25937   8.287   4.394   4.352  0.1160 -0.0683  0.0319
 6404W        W25938  17.176  11.369  14.303 -0.3150  0.1137 -0.0831
 6405W        W25939  17.478   3.490  14.706 -0.1255 -0.2911  0.3724
 6406W        W25940   1.844  12.834  11.790  0.1698  0.4211  0.2484
 6407W        W25941   4.609   5.781   2.295  0.0606  0.1352  0.2254
 6408W        W25942   5.086  11.232   4.014 -0.0376  0.1356 -0.0942
 6409W        W25943   5.979   7.215  15.979  0.1455  0.2096  0.2824
 6410W        W25944  13.549   3.113  15.929  0.1080  0.0200  0.1604
 6411W        W25945   4.222   7.880  15.791  0.2734  0.1148 -0.0071
 6412W        W25946   3.755   2.360  15.749  0.0170 -0.2313 -0.1454
 6413W        W25947  14.727  15.133   1.964 -0.1169  0.0608 -0.1189
 6414W        W25948   3.049   1.514  12.913  0.1560 -0.1874  0.2096
 6415W        W25949  14.363  13.934   3.857  0.1628  0.1375  0.0780
 6416W        W25950  11.675   3.505   2.326  0.0585  0.0142 -0.0752
 6417W        W25951   8.338   5.862   3.303  0.0537 -0.1538  0.2725
 6418W        W25952   6.021  13.003  15.930  0.0961 -0.1102 -0.0087
 6419W        W25953   7.664  11.375  14.898 -0.0394  0.0269  0.0609
 6420W        W25954   7.021   9.557   1.020  0.2237  0.2336  0.1934
 6421W        W25955   6.725   8.073   2.928  0.1294  0.0899 -0.0062
 6422W        W25956   9.564  16.831  15.656  0.2479 -0.2724  0.2321
 6423W        W25957  15.021   6.304   4.555  0.1349 -0.1859 -0.0970
 6424W        W25958   0.622  16.864   1.396 -0.0175 -0.0073  0.1203
 6425W        W25959   5.566   6.169   1.038 -0.1917 -0.0471  0.0630
 6426W        W25960  12.603  17.158  14.320 -0.1017  0.2767  0.2874
 6427W        W25961   2.135   9.842  11.573  0.3848  0.0299 -0.0926
 6428W        W25962   5.977   4.353  14.486 -0.0224 -0.0782  0.0988
 6429W        W25963   2.509   6.067  15.557  0.0805 -0.1286 -0.0878
 6430W        W25964   4.054  11.021   3.546  0.1837  0.2764 -0.0406
 6431W        W25965  15.307  12.252   4.668 -0.2142  0.0019  0.0706
 6432W        W25966  16.720   7.109  16.042  0.1940 -0.0504 -0.0084
 6433W        W25967  15.555   9.375   0.332 -0.1680  0.1318  0.1519
 6434W        W25968  14.084  10.331   2.614 -0.3101 -0.0379  0.0085
 6435W        W25969   3.010   1.297  15.659  0.2724 -0.3194 -0.0537
 6436W        W25970   7.839  13.696  13.640 -0.0020  0.2658 -0.2030
 6437W        W25971   6.571  11.187   3.856 -0.1453  0.0643 -0.0803
 6438W        W25972  12.769  16.220   1.016  0.0436 -0.0337  0.1158
 6439W        W25973   5.477   4.830  14.515  0.0086  0.1659  0.1901
 6440W        W25974  10.555   0.112  15.511  0.1497 -0.1415  0.3289
 6441W        W25975  10.449   4.461   2.149 -0.0926 -0.1893  0.3081
 6442W        W25976  10.187   5.474  14.423 -0.1752  0.0092 -0.0892
 6443W        W25977   1.799  15.201  13.837 -0.0616  0.2810  0.0646
 6444W        W25978   8.312   2.217  10.806 -0.0166 -0.0953  0.1518
 6445W        W25979  10.896  13.284  12.540 -0.2245 -0.0472 -0.1424
 6446W        W25980   1.767   9.456   3.774  0.0422  0.3114 -0.0217
 6447W        W25981   5.356   0.181   1.168  0.0437  0.1465 -0.0508
 6448W        W25982  14.692   4.841   3.666 -0.0451 -0.1878  0.1570
 6449W        W25983   2.090   6.056   4.126  0.1508 -0.0233 -0.1028
 6450W        W25984   3.968   0.379  11.815  0.1658 -0.0026  0.1730
 6451W        W25985  10.106   4.538   3.637 -0.0755 -0.2308 -0.2646
 6452W        W25986  11.064   6.172  12.322 -0.1882  0.0793  0.0039
 6453W        W25987  11.796   6.635  13.482  0.1514  0.1676 -0.1155
 6454W        W25988  15.363   0.881   1.041 -0.1038 -0.1390  0.0965
 6455W        W25989  15.585   4.777  15.807  0.0760  0.0983  0.0589
 6456W        W25990   6.755   3.506   0.163  0.1987  0.2499  0.0417
 6457W        W25991   2.963  11.932  14.487  0.0128  0.2545  0.1306
 6458W        W25992   8.933  15.592   1.128 -0.0428  0.1661 -0.0567
 6459W        W25993   7.632   6.698  14.720 -0.1173 -0.0395  0.1705
 6460W        W25994  17.904  14.409   2.144 -0.1827  0.1100  0.1421
 6461W        W25995  10.442   7.023   2.091  0.2664 -0.0661  0.0711
 6462W        W25996   5.259  16.726  14.558  0.2013 -0.0151  0.1469
 6463W        W25997  15.614  13.515  12.703 -0.1166  0.1790  0.2025
 6464W        W25998   9.029  16.445   2.588 -0.0974  0.0778 -0.0152
 6465W        W25999  10.682  16.587  14.145  0.2683  0.2558  0.1828
 6466W        W26000  10.513  13.263   4.273  0.1460  0.1562  0.0183
 6467W        W26001  10.669  15.381  13.732 -0.2450  0.0813 -0.2200
 6468W        W26002   2.185   5.309  14.698  0.0364 -0.2196  0.1144
 6469W        W26003  12.980  10.314   1.018  0.1074  0.1531 -0.0845
 6470W        W26004  18.167   0.987  11.913  0.0721  0.0700 -0.1586
 6471W        W26005  10.260  15.754  15.433  0.2022 -0.1095  0.1036
 6472W        W26006  15.051  12.117  13.886  0.0127  0.1594 -0.0542
 6473W        W26007   4.953   4.372   0.449 -0.2108 -0.0106 -0.0519
 6474W        W26008  16.849   7.362  15.634  0.2569  0.0331  0.1944
 6475W        W26009  12.501   1.975   1.679 -0.2581 -0.1340 -0.1044
 6476W        W26010   0.628   6.804  15.126 -0.4295  0.3578  0.0464
 6477W        W26011  15.224   1.853  13.728 -0.1501 -0.1822  0.0014
 6478W        W26012  10.061  10.253  15.986  0.2151  0.1465 -0.2967
 6479W        W26013   4.618   0.436  14.800 -0.3099 -0.4293  0.2217
 6480W        W26014  13.480   5.210  12.633  0.1301 -0.2036 -0.1721
 6481W        W26015  12.077   6.380   3.344 -0.2623 -0.0567 -0.0638
 6482W        W26016   6.342   8.608   3.122 -0.2443  0.0880  0.1174
 6483W        W26017  17.375   5.439   4.699  0.2160  0.0673  0.1718
 6484W        W26018  14.620   7.073  13.842  0.0607  0.1885  0.0417
 6485W        W26019   7.638   9.268   4.142 -0.1667  0.1407 -0.3660
 6486W        W26020  17.050  13.543  12.463 -0.0769 -0.2473 -0.0783
 6487W        W26021  17.578   5.735   0.246 -0.2847  0.2642  0.2170
 6488W        W26022   5.620  13.640   0.574 -0.1142  0.0774 -0.1317
 6489W        W26023  17.352   7.511   1.543  0.0835  0.0915 -0.2889
 6490W        W26024   6.186   0.755   1.459  0.4556  0.2204 -0.1165
 6491W        W26025   8.175  12.956   1.007 -0.0656 -0.0346 -0.2728
 6492W        W26026  15.900   4.105   4.056  0.3577 -0.0275 -0.3567
 6493W        W26027  17.702   0.627   1.421 -0.2108 -0.0875 -0.1178
 6494W        W26028   0.288  17.685  10.733  0.2199 -0.0732 -0.0099
 6495W        W26029   8.681   8.096  12.204  0.0974  0.1105 -0.2331
 6496W        W26030  17.170  13.816   2.252 -0.1387 -0.0772 -0.0167
 6497W        W26031  13.166   5.308   0.114  0.0288  0.1282 -0.0014
 6498W        W26032   8.354  16.217  14.633 -0.3981  0.3077 -0.2297
 6499W        W26033   4.187  11.107  14.841 -0.0897 -0.1332 -0.0915
 6500W        W26034  14.360   4.380   3.919 -0.1066 -0.1193  0.2605
 6501W        W26035   5.255   3.899  13.931 -0.0808  0.1541  0.0522
 6502W        W26036   0.237   9.139   1.435  0.0141  0.0721 -0.1246
 6503W        W26037  15.651  17.784  15.832 -0.0159 -0.0239  0.2358
 6504W        W26038  10.280  10.162   2.548 -0.1430  0.4427  0.0966
 6505W        W26039   7.821  11.801  12.582 -0.1452 -0.0904 -0.0949
 6506W        W26040  11.368   4.289  13.830 -0.3095  0.1704  0.0475
 6507W        W26041   8.637  10.884   4.592 -0.2496  0.1452  0.3423
 6508W        W26042  14.427   3.158   3.355 -0.2352  0.0029  0.4118
 6509W        W26043   4.380  14.707   1.631  0.2404  0.0652 -0.2101
 6510W        W26044   4.000   8.194   3.673  0.3134 -0.0046  0.4188
 6511W        W26045   2.432   1.574  13.534 -0.2760 -0.0640  0.1144
 6512W        W26046  12.906  17.565   6.028 -0.1680  0.3146  0.1806
 6513W        W26047  18.161  10.234   3.529  0.0538 -0.1783 -0.0992
 6514W        W26048  14.656  16.306  13.222  0.0373 -0.1277  0.2074
 6515W        W26049   4.706   5.350   3.952  0.1498 -0.0504 -0.0753
 6516W        W26050  15.143   7.614  13.849 -0.1553  0.0249  0.1530
 6517W        W26051   9.145  11.942   2.964 -0.3889 -0.2482  0.0346
 6518W        W26052  15.657  15.947  14.629  0.2061 -0.1569  0.0856
 6519W        W26053   9.047  17.933  11.659  0.0285 -0.2036  0.0039
 6520W        W26054  13.296  12.994   2.140  0.1050 -0.0531 -0.0688
 6521W        W26055  13.738   4.915  14.428  0.0881  0.0821  0.3069
 6522W        W26056   7.011  12.580  14.870  0.0366 -0.0363 -0.2115
 6523W        W26057   5.759   6.237  15.761 -0.2490 -0.2351 -0.0819
 6524W        W26058   8.368  12.298   3.322  0.0878  0.3072  0.0334
 6525W        W26059   0.299   9.387  15.027 -0.0400 -0.0894 -0.0477
 6526W        W26060   9.993  14.878   2.285  0.0461 -0.2728 -0.1197
 6527W        W26061   7.457   1.770  15.850  0.1814  0.0731 -0.0255
 6528W        W26062  15.201   9.040   0.486 -0.1320 -0.1215 -0.0619
 6529W        W26063  11.774   3.208  15.167 -0.0513  0.0696 -0.0921
 6530W        W26064   3.807  17.961  13.850 -0.0472 -0.2289  0.1852
 6531W        W26065  15.033   0.323  15.780 -0.3050 -0.3609  0.2206
 6532W        W26066  10.011   6.742  12.854 -0.0028  0.0190 -0.1750
 6533W        W26067  16.580   4.227   0.519 -0.1576  0.1774  0.0780
 6534W        W26068   6.421  10.785  15.181  0.1388  0.0078  0.2521
 6535W        W26069  17.982  13.148  12.537 -0.0238  0.1293 -0.0585
 6536W        W26070  11.816   0.606   1.255 -0.0217  0.2235 -0.1496
 6537W        W26071   2.664   9.955   0.242 -0.4327 -0.1069  0.0469
 6538W        W26072  13.807   0.492  15.337  0.0986  0.1391  0.0916
 6539W        W26073   4.801   4.867   3.278  0.1084  0.2291  0.1675
 6540W        W26074  14.262  14.127  14.256 -0.3893 -0.0020 -0.2155
 6541W        W26075  13.977   0.245   3.618  0.1347  0.0151 -0.3493
 6542W        W26076  15.898   9.262   2.356 -0.0216  0.1351 -0.0264
 6543W        W26077   9.017  11.130  14.711 -0.0360 -0.0667 -0.0544
 6544W        W26078   9.772   3.219   2.918 -0.1293 -0.3351 -0.0452
 6545W        W26079   4.422  11.162  13.013 -0.2301  0.1880  0.1435
 6546W        W26080  18.093  12.368  14.396  0.0273 -0.0973 -0.1266
 6547W        W26081  14.634   6.188   0.560  0.0007 -0.1142  0.0895
 6548W        W26082   6.483   5.870  14.666 -0.3087  0.0554  0.0269
 6549W        W26083  14.696  12.749   5.244 -0.0715 -0.1331  0.1551
 6550W        W26084  10.013   7.802   1.920 -0.0608  0.1286 -0.1553
 6551W        W26085   4.029  15.317   3.629  0.0152  0.0784  0.0538
 6552W        W26086   4.213   7.251   4.023  0.0647  0.2336 -0.1944
 6553W        W26087  14.671   0.982  14.422 -0.1075  0.2141  0.0595
 6554W        W26088   6.631   8.259  14.251 -0.4158  0.0668 -0.1133
 6555W        W26089  16.711   2.255  13.014  0.3849  0.1620 -0.3089
 6556W        W26090  10.625  17.358  11.693 -0.0085  0.1781 -0.2674
 6557W        W26091  12.457   1.760   3.120  0.0999 -0.1221  0.0010
 6558W        W26092   3.385   3.875  11.802 -0.0597 -0.1064 -0.2016
 6559W        W26093  10.098  14.741   1.033  0.2264  0.2832  0.2532
 6560W        W26094   0.010   0.060  12.858 -0.1303  0.1177  0.3128
 6561W        W26095  16.832  15.498  15.101  0.0429  0.1579 -0.0032
 6562W        W26096   6.830  14.716  13.205  0.1037 -0.1134  0.2451
 6563W        W26097  14.576   5.420  11.620  0.1554 -0.1279 -0.3286
 6564W        W26098   4.452  12.103   1.739 -0.2049  0.0328 -0.1803
 6565W        W26099  15.680   5.564   1.592 -0.2118 -0.0514  0.1023
 6566W        W26100   2.786   2.011   3.915  0.0819 -0.2124 -0.0304
 6567W        W26101  10.795  10.101   4.341  0.0359 -0.0422 -0.1330
 6568W        W26102   5.757   9.173  11.384 -0.1724 -0.5714 -0.2682
 6569W        W26103   6.419   3.224  12.148 -0.0485  0.1449 -0.2246
 6570W        W26104  12.730   0.467   1.366 -0.2025  0.2005  0.2181
 6571W        W26105  15.017   2.595  12.539  0.1229 -0.0701  0.2359
 6572W        W26106   4.766  17.334  11.722  0.1749 -0.3054 -0.0051
 6573W        W26107  13.501   0.179   3.874  0.2169 -0.2649  0.1249
 6574W        W26108   7.031   0.343  15.502  0.0985  0.2036 -0.1131
 6575W        W26109   8.202  17.369  13.006  0.0141  0.1106  0.0672
 6576W        W26110   3.768  15.192   0.690  0.1447 -0.0215 -0.0441
 6577W        W26111   1.138   7.181   4.039 -0.0179 -0.1275 -0.2873
 6578W        W26112   5.371   2.418  15.122 -0.0968 -0.1825 -0.1586
 6579W        W26113  14.229  10.607   4.987 -0.0776  0.3232 -0.0892
 6580W        W26114  13.151  17.609  15.577  0.0345 -0.0403  0.1592
 6581W        W26115  12.686   9.148  13.042  0.1176 -0.1272 -0.1119
 6582W        W26116   4.649   4.044  13.226 -0.2685 -0.3364 -0.1119
 6583W        W26117   9.372   6.694   3.023  0.0511  0.1150 -0.0019
 6584W        W26118   4.537  17.080  11.241 -0.1607 -0.1836 -0.0636
 6585W        W26119  14.555   1.437  11.927 -0.0226  0.0431  0.0069
 6586W        W26120   0.361   6.343   0.282  0.1771 -0.1788  0.2350
 6587W        W26121  13.439  17.929  12.110  0.0801 -0.1362 -0.0620
 6588W        W26122  13.736   1.916  11.858 -0.1709  0.1312 -0.1480
 6589W        W26123   3.515   5.258   0.650 -0.2044  0.1103  0.2137
 6590W        W26124   5.229  10.629  15.364  0.1997  0.1893  0.2686
 6591W        W26125   3.473  13.666  14.976  0.0137  0.0002 -0.3016
 6592W        W26126  14.428   6.810   4.003  0.1131  0.0877 -0.0806
 6593W        W26127   7.711   7.363   1.590 -0.2443  0.3215  0.0798
 6594W        W26128  15.341   2.171   4.540 -0.0209  0.2110 -0.1591
 6595W        W26129   9.721  13.425   1.035 -0.0279 -0.0020  0.1895
 6596W        W26130   2.190   8.463   2.984 -0.2865 -0.1416 -0.0846
 6597W        W26131  12.431   7.888  12.915  0.2848  0.1764 -0.1097
 6598W        W26132   1.882   0.993   3.714  0.1766  0.0504 -0.1506
 6599W        W26133  10.961   9.967  13.125  0.0208 -0.2816 -0.1417
 6600W        W26134  16.625  10.329   3.764 -0.2084  0.0930 -0.0898
 6601W        W26135  13.038  14.911  13.090  0.0939 -0.1185 -0.1294
 6602W        W26136   2.450  11.596   2.969 -0.2566 -0.3289 -0.0593
 6603W        W26137   8.400  15.488   1.069 -0.0083  0.1320 -0.0610
 6604W        W26138  12.303  14.749  13.453  0.2825 -0.0232 -0.0529
 6605W        W26139   2.298   2.438   1.882  0.0511  0.2455 -0.1198
 6606W        W26140   7.558  16.143   1.615  0.1505 -0.0418 -0.0177
 6607W        W26141   1.344   5.375   2.951  0.1616 -0.1383  0.3414
 6608W        W26142   8.224  10.570  13.565 -0.1770  0.0386  0.2315
 6609W        W26143   5.435  11.584   4.265 -0.2252 -0.3752 -0.1101
 6610W        W26144  17.760  12.543   1.929  0.0013 -0.1012 -0.2455
 6611W        W26145   8.804   2.292  15.500 -0.1363  0.1269 -0.1766
 6612W        W26146   5.204  16.747   3.026  0.0571  0.2171 -0.2263
 6613W        W26147  18.181  13.104   2.212  0.0408  0.2661  0.2678
 6614W        W26148  17.312  17.349   3.081  0.0034 -0.1670  0.1950
 6615W        W26149   2.224  13.412  14.603  0.1596 -0.0652 -0.3142
 6616W        W26150  13.982  13.475  11.925 -0.0083 -0.1818  0.0528
 6617W        W26151   6.317  15.691  12.215 -0.1501  0.4941 -0.0836
 6618W        W26152  12.291   7.236   4.322  0.0097 -0.4386 -0.4793
 6619W        W26153  18.069  14.164  13.664 -0.1283  0.4257 -0.3091
 6620W        W26154   8.893   5.282   5.397  0.2914 -0.0059  0.3264
 6621W        W26155  15.034  13.538  13.353  0.1515  0.3226  0.1241
 6622W        W26156   4.368  12.663   4.625 -0.1914  0.1165  0.0326
 6623W        W26157  17.140   8.960   3.710 -0.0980  0.0559 -0.1049
 6624W        W26158   8.090  10.470   2.304 -0.1132  0.1005  0.1998
 6625W        W26159   4.895   7.369   1.794  0.2147 -0.4275 -0.3576
 6626W        W26160   1.554   6.107  14.286  0.0699 -0.3184  0.2863
 6627W        W26161   1.113  11.081   3.929 -0.0376  0.3822 -0.3254
 6628W        W26162  16.433  11.305   1.479  0.0912 -0.0759 -0.0995
 6629W        W26163   6.369  16.381   3.992 -0.0892 -0.1069  0.2249
 6630W        W26164  13.715  11.526  10.553 -0.0776  0.1748 -0.1667
 6631W        W26165   2.258   0.973   2.899  0.2702  0.0021 -0.3326
 6632W        W26166   7.355   8.719   0.707  0.2781  0.3384  0.1186
 6633W        W26167   4.400   5.376  14.723 -0.3032  0.0830 -0.1492
 6634W        W26168  10.792   9.325   3.488 -0.1004  0.1582  0.2498
 6635W        W26169   0.052   4.857  12.885  0.0779 -0.0210 -0.0388
 6636W        W26170   9.111   6.900  14.909 -0.0182 -0.2703  0.1374
 6637W        W26171  10.594  14.912  13.001 -0.1064 -0.2627 -0.0805
 6638W        W26172   0.310   4.243  13.578  0.1043 -0.1106 -0.2091
 6639W        W26173   7.395   7.852   2.937  0.1124 -0.0631 -0.0026
 6640W        W26174  13.517  11.222  12.052  0.1211  0.3824 -0.3526
 6641W        W26175   0.928   5.776  15.999  0.1533  0.1693 -0.1411
 6642W        W26176  16.514   4.636   1.616 -0.0611 -0.1748  0.1059
 6643W        W26177  17.470   7.887  15.200 -0.2605 -0.0236 -0.2616
 6644W        W26178  14.254  11.239  12.368  0.2206 -0.0011 -0.2949
 6645W        W26179  14.291  17.700   3.038 -0.1245 -0.1773  0.1083
 6646W        W26180   5.117  13.867  13.698  0.2157 -0.1111 -0.0668
 6647W        W26181   0.243  14.867   4.678  0.0561  0.1401  0.0361
 6648W        W26182   1.582  12.711  14.036 -0.0356  0.0011 -0.0163
 6649W        W26183   3.082  16.264   1.357 -0.1191 -0.1569 -0.2652
 6650W        W26184   3.313  15.846   2.770 -0.4371  0.0405 -0.0155
 6651W        W26185   1.183  13.305  14.702 -0.0796  0.1001  0.1436
 6652W        W26186   5.762   8.497  12.351 -0.1203  0.2826 -0.0199
 6653W        W26187  14.753   6.341  12.775 -0.0676  0.0309 -0.0373
 6654W        W26188   3.174  13.767  12.047 -0.2234 -0.0495  0.0272
 6655W        W26189   4.859  10.594   2.192  0.2112  0.0263 -0.2207
 6656W        W26190   3.057   5.434  14.893  0.0623  0.1660 -0.0288
 6657W        W26191  17.635   1.392  13.046 -0.0674  0.0970 -0.0045
 6658W        W26192   5.840   8.357   1.774  0.0844  0.0385  0.1716
 6659W        W26193  16.301   0.190   2.878  0.0156  0.2620 -0.2009
 6660W        W26194  12.170  15.576   1.971 -0.0484 -0.5930  0.1644
 6661W        W26195   0.746  14.797   4.565  0.0329 -0.1273  0.0973
 6662W        W26196   5.061  17.812   4.050  0.0269 -0.2032  0.2934
 6663W        W26197   8.911  15.668   4.418  0.0847  0.0626  0.0954
 6664W        W26198   4.088  16.667  13.553  0.0415 -0.3677  0.1239
 6665W        W26199  14.291   1.555  15.662  0.0306  0.4640  0.0685
 6666W        W26200  15.991  15.896   3.013  0.1937  0.1897 -0.1346
 6667W        W26201  12.697   7.523   3.716 -0.0797  0.2259  0.3872
 6668W        W26202   9.817   6.997  12.234  0.0370 -0.0198  0.2305
 6669W        W26203  12.650   7.892   4.096  0.1002  0.2355 -0.1615
 6670W        W26204   7.317  11.864   4.922 -0.0166  0.0748 -0.0865
 6671W        W26205  12.793  16.144  13.513  0.4344 -0.3367  0.0222
 6672W        W26206   3.878   0.140  13.505 -0.0611 -0.1606  0.1155
 6673W        W26207   6.489  12.020   4.792  0.0157 -0.1238 -0.1887
 6674W        W26208   5.774  14.352  13.384  0.0329  0.1819  0.2992
 6675W        W26209   0.142  11.630  15.419  0.1085 -0.0697  0.0310
 6676W        W26210   6.752  10.732  15.936 -0.2256  0.0638 -0.2330
 6677W        W26211  13.183  16.878  11.822 -0.2824  0.1088  0.2918
 6678W        W26212   6.584  12.468   1.586 -0.1345  0.2128  0.1202
 6679W        W26213  10.196  17.048   1.831 -0.0835  0.0453  0.0687
 6680W        W26214   4.089   4.637  15.131  0.0492 -0.1046  0.1767
 6681W        W26215  16.170   0.149  14.757  0.2370 -0.1555  0.1805
 6682W        W26216  10.842   8.830   0.400  0.0514 -0.1709 -0.1070
 6683W        W26217   9.912  10.166   5.220  0.1117 -0.0070  0.0418
 6684W        W26218   0.610  15.539  11.708  0.0864 -0.1008 -0.1034
 6685W        W26219  14.748  14.269   1.446  0.0016  0.1952  0.0404
 6686W        W26220   9.464  11.898   1.085  0.1070  0.2460 -0.0779
 6687W        W26221  15.914  16.528  14.940  0.0772 -0.2083 -0.1356
 6688W        W26222   4.684  17.712  13.771 -0.0808  0.1053  0.0550
 6689W        W26223   0.492   2.859  13.280  0.1056  0.0553  0.1068
 6690W        W26224  13.757  17.421   2.176  0.3389  0.1337  0.0172
 6691W        W26225   2.183   0.105  14.952  0.1092  0.1192 -0.1422
 6692W        W26226   8.667   3.532  11.718  0.2032  0.1024  0.0190
 6693W        W26227  10.154   9.321  14.885  0.0460 -0.0556  0.2001
 6694W        W26228   3.161   3.035  14.204 -0.0571 -0.3635  0.0666
 6695W        W26229   3.343  15.606   1.512  0.0019  0.1412  0.0085
 6696W        W26230   1.011  10.729   2.642  0.1700  0.0232 -0.0513
 6697W        W26231   4.813  12.117  12.049  0.2636 -0.0527 -0.0198
 6698W        W26232  15.427  11.634   0.075  0.1940 -0.0150 -0.2068
 6699W        W26233   0.238  14.772  14.776 -0.1311 -0.1129  0.1361
 6700W        W26234   8.207  17.986  15.054 -0.0354  0.1589 -0.0492
 6701W        W26235   7.064   8.168  13.631 -0.2420  0.2357 -0.0616
 6702W        W26236  17.938  13.143  13.840 -0.2783 -0.1241  0.2600
 6703W        W26237  15.585  11.318   4.673 -0.0437 -0.2704  0.1013
 6704W        W26238   8.757   4.291   0.379 -0.0052 -0.3341 -0.3301
 6705W        W26239   3.832  11.124  14.326 -0.1170 -0.1557  0.1820
 6706W        W26240  16.078  15.207   0.291  0.0884 -0.2752 -0.2369
 6707W        W26241  10.642   3.160  12.652  0.0951  0.0439  0.0538
 6708W        W26242  16.551  13.026   1.410 -0.1391  0.2074  0.0576
 6709W        W26243   8.675  17.826  15.303  0.3987  0.0696  0.0448
 6710W        W26244   9.193   8.973  16.020 -0.1070 -0.1880 -0.1059
 6711W        W26245  16.021   7.313   1.658 -0.0259  0.0448 -0.1845
 6712W        W26246   5.897  17.498  14.074 -0.1442 -0.3389  0.2391
 6713W        W26247  17.010   7.866  12.137 -0.0431  0.4336  0.0467
 6714W        W26248  17.746   3.268  11.660  0.0336 -0.0850  0.2276
 6715W        W26249   3.145   1.485   1.068 -0.0916  0.0393  0.0088
 6716W        W26250   5.123  16.135   1.725  0.3499 -0.1209 -0.0406
 6717W        W26251   3.636   2.122  13.697 -0.2938  0.2429 -0.1238
 6718W        W26252   5.297   7.798   3.486 -0.3213 -0.0242  0.1544
 6719W        W26253   3.054  11.805   2.097  0.2736 -0.5521 -0.2650
 6720W        W26254  12.852   1.049  12.324  0.0022  0.1173  0.2098
 6721W        W26255   0.070   0.570  11.515 -0.1504 -0.2867 -0.1192
 6722W        W26256   3.460  13.399  11.762  0.0387  0.3333 -0.0564
 6723W        W26257   3.380   1.553  15.425  0.0026 -0.0451 -0.1848
 6724W        W26258   5.342  13.203   2.058  0.2062  0.1062 -0.1090
 6725W        W26259   8.494   6.720   0.822 -0.3239 -0.1038 -0.1377
 6726W        W26260   3.999   6.819  11.584  0.0000 -0.2778  0.0447
 6727W        W26261  17.383   2.389  13.739 -0.2587  0.1136 -0.1177
 6728W        W26262   2.015  11.180  13.327 -0.0565  0.1413  0.1488
 6729W        W26263  13.964   5.731   3.232 -0.0332 -0.1064  0.0786
 6730W        W26264  11.881   2.370  13.646 -0.0620 -0.1203 -0.0123
 6731W        W26265  16.137   0.379  12.114 -0.1215 -0.0494  0.0751
 6732W        W26266   3.570   1.641   4.060 -0.0792  0.2110  0.0987
 6733W        W26267  15.744  12.798  14.393  0.1604 -0.0329 -0.0538
 6734W        W26268  11.168   2.328   0.906  0.1857  0.1429 -0.3622
 6735W        W26269  11.611  16.722  15.698 -0.0046 -0.1112  0.1720
 6736W        W26270  11.083   5.951  12.722  0.1025  0.1316 -0.0265
 6737W        W26271   2.701  17.853   2.781 -0.1682 -0.0850 -0.0361
 6738W        W26272   9.474  14.824   2.259  0.1869 -0.2429  0.0651
 6739W        W26273  12.643  14.899  14.172  0.0484 -0.0652 -0.0294
 6740W        W26274   3.061  14.829   4.695  0.2719  0.0361 -0.1179
 6741W        W26275  17.734   8.036  15.666  0.1174 -0.1138 -0.0740
 6742W        W26276   0.969   8.313   0.079 -0.0213 -0.3071  0.1068
 6743W        W26277   9.792   4.095  12.854 -0.2323  0.1681  0.2569
 6744W        W26278   6.327  13.809  11.445  0.1101 -0.0699  0.0086
 6745W        W26279  14.605  17.693  15.963 -0.1193  0.2161  0.1458
 6746W        W26280  16.675  17.572  12.510 -0.1230 -0.0847  0.1831
 6747W        W26281   6.434  15.115   0.482 -0.1119 -0.1264 -0.3822
 6748W        W26282  14.733   3.337  12.008  0.1076 -0.4696  0.1549
 6749W        W26283   6.749   5.339  12.405 -0.3268  0.0204  0.3972
 6750W        W26284  15.349  17.274   2.126 -0.0620  0.0490 -0.2801
 6751W        W26285   3.004  17.209  14.548 -0.0142 -0.1276  0.1998
 6752W        W26286   0.610   1.699  12.185  0.0245  0.0452 -0.1948
 6753W        W26287   1.246   5.542   4.994 -0.1851  0.1423  0.3112
 6754W        W26288  17.800  11.069   0.214 -0.0904  0.0752 -0.1518
 6755W        W26289  12.975  16.915  13.978  0.1951  0.2246 -0.0943
 6756W        W26290   1.519  14.471   1.470 -0.1269 -0.2943 -0.0596
 6757W        W26291  15.516   0.990   5.267 -0.0865 -0.1195  0.2700
 6758W        W26292  12.711  12.845  14.408 -0.0335  0.1811  0.1717
 6759W        W26293  17.359   1.711   2.777 -0.0247  0.0375  0.0218
 6760W        W26294   1.696  16.146  12.342 -0.1064 -0.0191 -0.0908
 6761W        W26295   5.238   9.649   4.038 -0.1918  0.2654  0.0099
 6762W        W26296  12.824  17.408  13.905 -0.2155 -0.0463 -0.0541
 6763W        W26297   2.589   1.507   0.729  0.1367 -0.2325  0.3516
 6764W        W26298   6.936  14.944  13.731 -0.2055 -0.0670  0.2442
 6765W        W26299   4.577  13.345   1.475 -0.2571  0.2820  0.0265
 6766W        W26300   2.942  15.443   0.114  0.1471 -0.0653 -0.0055
 6767W        W26301   5.056   3.394   3.428 -0.3543 -0.1493 -0.0045
 6768W        W26302   1.465  10.974   1.324 -0.1325  0.0340  0.1030
 6769W        W26303   9.913  14.155  12.958  0.3985 -0.1095 -0.0860
 6770W        W26304   9.010   0.937  13.827 -0.2841  0.0621 -0.0754
 6771W        W26305  12.296   6.395   0.968  0.1339 -0.1777  0.0810
 6772W        W26306  10.557   5.910  12.489 -0.0760  0.0558  0.0002
 6773W        W26307   5.391  17.246   1.943 -0.2119  0.3201  0.0741
 6774W        W26308  11.738   2.309  11.811 -0.4200 -0.1451 -0.1626
 6775W        W26309  17.401   9.638   0.756 -0.1190 -0.1388  0.2146
 6776W        W26310   1.712   1.101  11.367  0.0872 -0.2376 -0.1268
 6777W        W26311  15.831   9.001   0.543 -0.1795  0.0338  0.0915
 6778W        W26312   7.251   4.652   3.197  0.0952 -0.0937 -0.0852
 6779W        W26313   8.415  11.314   0.478 -0.3621  0.1970 -0.1006
 6780W        W26314  11.191   6.738   4.038 -0.2691  0.0561  0.0051
 6781W        W26315   7.648  10.084  13.926 -0.1739 -0.1121 -0.1054
 6782W        W26316  12.398  15.261   0.657 -0.1851  0.0862  0.0278
 6783W        W26317   5.260   9.331   1.823 -0.0757 -0.3840 -0.1428
 6784W        W26318  13.653   9.174  14.240  0.1410  0.0872 -0.0523
 6785W        W26319   1.191  17.349  10.656 -0.0344 -0.0202  0.1850
 6786W        W26320  15.064   0.900  12.958  0.1860 -0.0513  0.0265
 6787W        W26321   3.393  13.476  13.692 -0.0994 -0.2179  0.2069
 6788W        W26322  18.070  14.742   0.297  0.2321 -0.1208  0.1980
 6789W        W26323   6.615  12.746  11.269  0.0120  0.1119  0.2737
 6790W        W26324  14.672   4.026   0.301 -0.1107  0.1759 -0.2998
 6791W        W26325   7.917   1.918   1.757 -0.0288  0.1667 -0.0971
 6792W        W26326  12.369   6.717  14.239  0.0523  0.0886 -0.1342
 6793W        W26327   2.871   1.144  12.064  0.0265  0.2841 -0.0660
 6794W        W26328  10.224  11.955   4.498 -0.3824  0.2492  0.1600
 6795W        W26329  11.872  16.457   1.566 -0.0271 -0.1802  0.1880
 6796W        W26330   8.522   0.986   3.719 -0.0796  0.2275 -0.1578
 6797W        W26331   7.888   1.300   5.308 -0.1376 -0.2008 -0.0881
 6798W        W26332   0.842  10.876   2.062 -0.0760  0.2126  0.1550
 6799W        W26333   6.768   6.381   4.226  0.1619 -0.2196 -0.0081
 6800W        W26334  17.119   3.086   1.135 -0.0641 -0.1364  0.2420
 6801W        W26335   6.290  14.741   1.175  0.1700  0.0079 -0.1234
 6802W        W26336  12.802   8.539   5.611 -0.1416 -0.1486 -0.2603
 6803W        W26337   9.324  18.126  13.095  0.3842 -0.0825  0.1439
 6804W        W26338   9.752   4.654  11.445 -0.0166 -0.1578 -0.2465
 6805W        W26339   3.142   0.500   3.294  0.0198  0.0730  0.0343
 6806W        W26340   1.566   3.871  13.565 -0.0730  0.0199  0.1862
 6807W        W26341   8.433  17.315   5.374 -0.2818 -0.1934  0.1236
 6808W        W26342  13.336  10.223   1.426  0.1786 -0.0146 -0.2394
 6809W        W26343  12.978  12.393   2.857 -0.2436 -0.2280  0.0812
 6810W        W26344   6.208  17.207   4.298  0.3648  0.0320 -0.0261
 6811W        W26345   6.966  15.999  13.157  0.1742  0.1666  0.0022
 6812W        W26346   2.442   8.674   1.701  0.3533  0.1201  0.0490
 6813W        W26347   4.671   5.496  11.384  0.0309  0.0159  0.1234
 6814W        W26348   7.096   9.351   0.074  0.0447  0.1085 -0.0018
 6815W        W26349  11.695   3.645   4.775 -0.0237 -0.1193 -0.0064
 6816W        W26350   7.832   7.627  13.863 -0.2421 -0.2136  0.0056
 6817W        W26351   3.716   9.266  14.569 -0.3510  0.1517 -0.0636
 6818W        W26352  13.887   5.318  12.180  0.0907  0.3514 -0.5045
 6819W        W26353   5.179   7.882  14.271  0.1908 -0.0023 -0.1869
 6820W        W26354  14.645   6.631   0.333  0.0726  0.1385 -0.0462
 6821W        W26355   2.801   3.711  12.822 -0.3054  0.1427  0.3988
 6822W        W26356   8.628  10.545  16.000 -0.4081  0.1470  0.0029
 6823W        W26357  15.768   8.982  11.840  0.1577  0.3315  0.5409
 6824W        W26358  13.412   0.143  13.310  0.0835 -0.0874  0.2567
 6825W        W26359   5.991  13.437  11.886 -0.1357  0.1324 -0.0044
 6826W        W26360  14.225  12.494   0.898  0.2247  0.2507 -0.3997
 6827W        W26361   7.698   5.342   2.767  0.1057  0.2757 -0.3998
 6828W        W26362  16.555   7.998   1.167 -0.1611  0.3930 -0.1444
 6829W        W26363   9.446   1.087   5.112  0.0628 -0.0220  0.2348
 6830W        W26364   1.409  14.357   2.023 -0.1056  0.0551  0.1617
 6831W        W26365   1.606  10.754  12.574 -0.1348 -0.2861  0.0170
 6832W        W26366   0.393   1.962  12.535 -0.2675 -0.0623 -0.0051
 6833W        W26367  15.610   9.991   2.407  0.0775 -0.2298 -0.1006
 6834W        W26368   7.289   5.075  15.311  0.0434 -0.0855 -0.1177
 6835W        W26369  13.351   1.793   2.241 -0.0898 -0.1526  0.1516
 6836W        W26370  10.140   0.588  11.654 -0.1838  0.0874 -0.0279
 6837W        W26371   3.038  17.127   3.805  0.2841 -0.2452 -0.3737
 6838W        W26372   8.496  10.724  11.180  0.0179 -0.0102  0.1652
 6839W        W26373  11.204  12.021  13.703  0.2694 -0.0370 -0.0732
 6840W        W26374  17.082  11.313   4.823 -0.0353 -0.2105  0.1580
 6841W        W26375  15.046   0.666  13.381 -0.1912  0.3793 -0.2879
 6842W        W26376   3.646   3.081   2.625  0.0056  0.1002 -0.1993
 6843W        W26377   8.273   9.733   3.052  0.3649  0.3626 -0.3128
 6844W        W26378   9.859  16.696   4.283  0.1728 -0.0782  0.2300
 6845W        W26379  16.142  12.178  14.895  0.1921 -0.0996 -0.0586
 6846W        W26380  11.385  18.189  12.695  0.0276  0.1373  0.0324
 6847W        W26381   7.251   4.610   1.157 -0.0006 -0.4029 -0.0764
 6848W        W26382   1.238   5.136   0.942  0.0507 -0.1368 -0.0207
 6849W        W26383   2.631  10.114   0.733 -0.0377 -0.1491 -0.1184
 6850W        W26384  10.237  16.122  14.527  0.1560 -0.1311  0.0317
 6851W        W26385  15.700   6.573   3.528 -0.0531  0.0847 -0.0242
 6852W        W26386   6.121   1.412  14.252 -0.0373 -0.1732 -0.3869
 6853W        W26387   1.640   7.110  14.073 -0.1345 -0.0039 -0.1099
 6854W        W26388  10.474   2.186   1.389 -0.4754 -0.3095 -0.1232
 6855W        W26389  11.955  11.292   1.955  0.0443  0.1040  0.0003
 6856W        W26390   5.425  13.586   2.832 -0.0191  0.0250  0.0951
 6857W        W26391   2.540  11.442  15.697 -0.0627 -0.1244 -0.1432
 6858W        W26392  11.544  15.549  12.591 -0.3847  0.0854  0.1634
 6859W        W26393   1.486  17.079  13.465  0.1826 -0.1161  0.0207
 6860W        W26394   6.718   0.496   0.356 -0.2243 -0.2819  0.2346
 6861W        W26395  16.290   6.207   2.336 -0.0667  0.2698 -0.1151
 6862W        W26396  14.957   7.061   2.345  0.0014  0.1449  0.0302
 6863W        W26397  17.667  15.146   3.002 -0.0535  0.0887  0.0145
 6864W        W26398  10.391  11.340   3.818 -0.1653  0.2667 -0.0590
 6865W        W26399   0.994  14.429   2.950  0.0151 -0.1662 -0.3609
 6866W        W26400   1.239   3.659   0.436  0.2098  0.1946  0.1337
 6867W        W26401   1.486   0.183   3.195  0.0598 -0.2228  0.0468
 6868W        W26402   4.297   9.961  15.469 -0.0689  0.1329  0.1177
 6869W        W26403  11.981  11.680   0.144 -0.3237 -0.1868  0.1621
 6870W        W26404  10.933   8.134  12.360 -0.0475  0.0274 -0.1042
 6871W        W26405   0.175   2.926  13.952 -0.0435  0.1839  0.2620
 6872W        W26406  18.024  10.249  14.910 -0.1194 -0.0841 -0.0121
 6873W        W26407   1.208  17.525   3.184 -0.1115 -0.3165 -0.0583
 6874W        W26408  12.885   7.339  15.567 -0.1027 -0.0438  0.1980
 6875W        W26409  12.520  12.127   3.330  0.3330  0.1555 -0.2943
 6876W        W26410   4.171  12.450  12.500  0.2735 -0.2443 -0.4186
 6877W        W26411  17.968   2.024   0.863 -0.2384  0.0918 -0.2069
 6878W        W26412  14.594  10.761  15.646 -0.1329 -0.0544  0.2283
 6879W        W26413  11.072   5.063  15.402  0.1689 -0.0515  0.0349
 6880W        W26414   2.367   7.809  12.913 -0.1486  0.0477  0.1400
 6881W        W26415   8.272   5.371  13.344  0.1274 -0.1897 -0.2401
 6882W        W26416  12.615  17.263  14.825  0.2954 -0.0621  0.0051
 6883W        W26417  17.858  10.121  15.423 -0.2578  0.2331  0.3614
 6884W        W26418   2.264   0.760  14.229 -0.0149  0.0452  0.0286
 6885W        W26419  15.026   5.252  13.492 -0.1820 -0.2338 -0.1285
 6886W        W26420   3.488  18.041   3.907  0.2053 -0.4184 -0.2973
 6887W        W26421   3.678   6.040   3.766  0.1226  0.2433 -0.3033
 6888W        W26422  17.770  10.612  14.491  0.2873  0.1559 -0.1311
 6889W        W26423  13.093   0.352   3.607  0.1980 -0.1462  0.2275
 6890W        W26424  15.166   2.075   3.661  0.0419 -0.1794 -0.2453
 6891W        W26425  14.038   6.951  13.095 -0.1481  0.0222  0.1737
 6892W        W26426  15.013   7.362  12.026 -0.0501  0.1213  0.1438
 6893W        W26427  11.206  11.419   0.730  0.1039 -0.0845  0.0760
 6894W        W26428  10.099  14.010  11.601  0.0925 -0.1587 -0.3132
 6895W        W26429  14.676   0.553  13.713 -0.2030 -0.3871  0.1003
 6896W        W26430  10.992   7.288  14.365 -0.0601  0.2324 -0.1967
 6897W        W26431   7.237   2.189  12.761  0.0001  0.1110  0.4898
 6898W        W26432  11.497  16.945  12.790 -0.0126 -0.0781  0.1653
 6899W        W26433   2.630  10.694  14.607 -0.2566  0.0666 -0.2289
 6900W        W26434   7.082   9.875  12.196  0.3536  0.0693  0.0837
 6901W        W26435  11.105   6.031   0.100  0.3464 -0.1376 -0.0354
 6902W        W26436   1.454  15.544  11.552 -0.1108  0.2294  0.1948
 6903W        W26437   3.085   2.839   1.431  0.1043 -0.1801 -0.0122
 6904W        W26438   7.299   3.370  14.783 -0.2707 -0.0282  0.0335
 6905W        W26439   9.747   1.003   1.121 -0.3221  0.3035  0.0564
 6906W        W26440  14.471   3.777  13.965  0.1872  0.0296 -0.1504
 6907W        W26441   4.302  11.894  12.493  0.2378 -0.2398 -0.3132
 6908W        W26442   9.316   8.348   5.399  0.1983 -0.0741 -0.1717
 6909W        W26443   2.025   1.167   1.946  0.0136  0.0178  0.0803
 6910W        W26444   0.255  10.318   2.026  0.0530 -0.2050 -0.4087
 6911W        W26445   7.638   1.874   0.278 -0.1504 -0.1079  0.1501
 6912W        W26446   5.095   0.751  12.576  0.3106 -0.4617  0.0647
 6913W        W26447  16.051   9.497  13.556 -0.1601 -0.1660 -0.1068
 6914W        W26448   9.424   4.404   3.456 -0.0589  0.2887  0.0471
 6915W        W26449  16.559   7.709  12.947 -0.0629 -0.1524 -0.3931
 6916W        W26450  17.237   2.846   2.417  0.3566 -0.3265 -0.0030
 6917W        W26451  12.896   2.490   0.249  0.1192 -0.0781 -0.0513
 6918W        W26452  17.835  15.816   0.025  0.1556 -0.1106 -0.0825
 6919W        W26453  16.150   6.218  15.403  0.0186 -0.0263 -0.1760
 6920W        W26454   1.577   5.861  11.568  0.2157  0.2184  0.0632
 6921W        W26455  11.832  13.742  13.936  0.2698 -0.1944 -0.1516
 6922W        W26456   9.495  17.286   2.954 -0.0290 -0.2500  0.0327
 6923W        W26457   6.018  16.487  15.496 -0.1810 -0.0903  0.1303
 6924W        W26458  18.010  10.822   2.754 -0.0917 -0.2595  0.0558
 6925W        W26459  10.317   6.985  12.003  0.1302  0.1028  0.0475
 6926W        W26460   1.255   9.612  14.089 -0.0980  0.2102 -0.0250
 6927W        W26461   4.511  15.218   3.523 -0.0661  0.0837 -0.3615
 6928W        W26462  16.870  16.583  12.371  0.0414  0.0502  0.4445
 6929W        W26463   7.690  12.286  14.264  0.2465 -0.2932  0.1191
 6930W        W26464  12.715  11.292   4.016 -0.0681  0.1717 -0.0329
 6931W        W26465   8.191   0.744   0.627 -0.3319  0.2159 -0.0313
 6932W        W26466   0.211  10.959   5.504 -0.0810  0.0641 -0.0245
 6933W        W26467  17.158   5.904   3.697 -0.1599  0.2472 -0.0131
 6934W        W26468   2.456  13.004  14.696  0.3298 -0.1809 -0.0222
 6935W        W26469   9.883  14.972   4.007 -0.1814  0.0319  0.0706
 6936W        W26470  16.969   8.689   3.105 -0.1048  0.1455 -0.1253
 6937W        W26471  15.097   6.182   0.367  0.1204 -0.0535  0.0589
 6938W        W26472   1.213   5.777  11.995  0.1162  0.3056  0.0769
 6939W        W26473  13.208   8.831   0.035  0.2219  0.2854 -0.0246
 6940W        W26474   4.583   1.035  12.725 -0.0998 -0.1010  0.0922
 6941W        W26475   1.138  12.949   3.976 -0.2623 -0.0986  0.0610
 6942W        W26476  13.702  18.015  14.389  0.0686 -0.0712 -0.1465
 6943W        W26477   1.023  14.500   1.246  0.0082  0.3324 -0.4740
 6944W        W26478  14.148  11.366  11.896 -0.0784  0.2018 -0.1552
 6945W        W26479   6.387   1.882   3.967  0.0350 -0.0854  0.0042
 6946W        W26480   6.432  11.229   4.549  0.2215  0.0644 -0.0876
 6947W        W26481   7.056   3.213   2.094  0.0414 -0.1320 -0.0964
 6948W        W26482   2.483   3.177  10.319  0.1578 -0.1786 -0.0115
 6949W        W26483   5.526   8.782   2.734 -0.2215 -0.0909 -0.0724
 6950W        W26484  10.471   3.887  11.800 -0.0152  0.0618 -0.1589
 6951W        W26485  13.854   4.994   2.796  0.0693 -0.0859 -0.1519
 6952W        W26486   8.369   6.968  15.999 -0.1015  0.0251 -0.1661
 6953W        W26487  14.134   7.183   3.142 -0.3456 -0.0434  0.1352
 6954W        W26488  17.458  15.961  13.367 -0.1260  0.0049  0.0820
 6955W        W26489  11.382  15.942  13.849 -0.4301  0.0204 -0.1009
 6956W        W26490   5.745   6.760   4.828 -0.0572 -0.1274  0.0245
 6957W        W26491  18.132  12.580   1.328 -0.1671  0.1072 -0.3919
 6958W        W26492   5.517  14.313   4.340  0.0721 -0.2578  0.0869
 6959W        W26493   5.048  10.470   4.579  0.0267  0.0966 -0.1561
 6960W        W26494  12.185  16.695  11.787  0.1700 -0.0073  0.4458
 6961W        W26495  17.100  15.031  11.421 -0.2497  0.0098 -0.0179
 6962W        W26496  11.324   3.332  15.385 -0.0430 -0.1600 -0.2683
 6963W        W26497  13.818  16.456  13.753 -0.0296 -0.0268 -0.1051
 6964W        W26498   5.819   5.948   3.430 -0.1104  0.0097 -0.0226
 6965W        W26499   7.202  11.156  14.750  0.0303 -0.0953 -0.0942
 6966W        W26500  14.169  16.076  13.860  0.0293  0.1280 -0.0565
 6967W        W26501   8.853   1.717  12.952 -0.4106 -0.0660 -0.2835
 6968W        W26502  18.102  14.313  10.874  0.1965  0.1041 -0.1426
 6969W        W26503  12.372   5.049   4.319  0.0299 -0.1633  0.0481
 6970W        W26504  17.918  11.266   1.209 -0.0235  0.1931 -0.0951
 6971W        W26505   7.870  17.095   4.018 -0.0543  0.1268  0.2687
 6972W        W26506   0.300   8.555  12.810  0.0362 -0.0580 -0.2063
 6973W        W26507  16.405   1.032   0.167 -0.1638 -0.0704  0.1045
 6974W        W26508   9.301  18.191   1.998 -0.1718  0.0414  0.0430
 6975W        W26509  14.727  16.341  15.977  0.1947  0.1447 -0.0307
 6976W        W26510  12.963   5.311   1.869  0.1812 -0.1147 -0.0554
 6977W        W26511   1.392  13.314  13.918  0.1035 -0.2574  0.0204
 6978W        W26512  12.383  13.595   4.587 -0.1288  0.1791 -0.0662
 6979W        W26513  10.510  12.821  12.653  0.1871  0.0647  0.0958
 6980W        W26514   3.251  12.497  13.231  0.0467 -0.3288  0.1003
 6981W        W26515   5.644   9.717  15.753 -0.0293  0.0497 -0.2230
 6982W        W26516   0.055   1.826   0.480 -0.0534 -0.2120 -0.1365
 6983W        W26517  14.385   0.979  14.833 -0.1769  0.0442 -0.2178
 6984W        W26518   2.906   6.310  14.406  0.1162  0.1236  0.2141
 6985W        W26519   0.179  14.536   1.396 -0.0864 -0.2392  0.0753
 6986W        W26520  14.761   1.568  14.113  0.1203  0.0950  0.1224
 6987W        W26521   8.396   0.999   1.456  0.3191 -0.4078 -0.1852
 6988W        W26522   5.388  17.671   0.518  0.2720 -0.1701  0.1420
 6989W        W26523   5.969  14.772  13.885 -0.2035 -0.0640  0.0810
 6990W        W26524   2.273  15.715   4.155 -0.2587  0.1613  0.0938
 6991W        W26525  15.009  11.969  13.287 -0.1313  0.2406 -0.0463
 6992W        W26526  17.177   0.032   0.849 -0.1748  0.1381 -0.2806
 6993W        W26527   5.890  12.018   0.744  0.1004 -0.1432  0.1286
 6994W        W26528   4.738  15.086  13.841  0.0065 -0.0313  0.2838
 6995W        W26529   7.289  10.470  15.226 -0.0971 -0.2077  0.1984
 6996W        W26530  12.761   4.832   2.563  0.2502 -0.0244 -0.2606
 6997W        W26531   0.359   4.680   2.250 -0.2393  0.2490  0.0043
 6998W        W26532   1.910  14.814  13.551 -0.3748  0.1040 -0.0388
 6999W        W26533  12.835   1.779   2.751 -0.1194  0.1219 -0.1540
 7000W        W26534   3.356   2.523  15.498 -0.2418 -0.0479 -0.0331
 7001W        W26535   5.118   1.857  15.392 -0.1110  0.0353  0.0226
 7002W        W26536   7.802   2.275  14.199 -0.3133  0.1506 -0.0514
 7003W        W26537  11.181   0.971  12.576 -0.1854  0.2061  0.0904
 7004W        W26538   7.060  12.269  11.641 -0.1358  0.0651  0.0390
 7005W        W26539   3.123  11.495   1.353 -0.2345  0.0103  0.0301
 7006W        W26540  14.885   2.144  14.097 -0.2153  0.2998 -0.2358
 7007W        W26541   8.057  10.635   3.733 -0.2108  0.2207  0.1726
 7008W        W26542  13.170  15.563   4.282 -0.0506 -0.0593 -0.1457
 7009W        W26543   6.053  16.711   0.306 -0.5481 -0.2291  0.0548
 7010W        W26544   8.930  13.099  15.283 -0.0070  0.1976 -0.2081
 7011W        W26545   2.140   0.390   0.814  0.2205  0.2103 -0.1411
 7012W        W26546  12.283   4.893  15.389 -0.1646 -0.1086  0.2744
 7013W        W26547  11.601  15.366  15.257 -0.0201 -0.2820  0.5154
 7014W        W26548  13.137  15.197  13.883  0.1025 -0.2571  0.2663
 7015W        W26549  17.619   6.010  14.876  0.0917 -0.1693  0.0352
 7016W        W26550   5.379  11.111  13.165 -0.2223 -0.0519 -0.0642
 7017W        W26551   0.056   3.873   1.577 -0.1733 -0.0878  0.1607
 7018W        W26552   5.307  14.743   4.706 -0.0970 -0.1204 -0.2061
 7019W        W26553  13.578  17.979   3.500  0.1108 -0.0081  0.0605
 7020W        W26554   4.478  17.691  12.368  0.0721 -0.1194  0.1231
 7021W        W26555  13.801  12.518  14.826 -0.1135  0.2734  0.0797
 7022W        W26556  11.681   1.536  14.010 -0.3300  0.2246 -0.2432
 7023W        W26557   2.454   3.386  12.965  0.2130  0.0435  0.0472
 7024W        W26558   1.790   3.594   1.565 -0.1715 -0.0222 -0.1308
 7025W        W26559  11.512  10.244   1.832  0.0235 -0.4244 -0.2380
 7026W        W26560   6.115   9.559   2.830 -0.0620  0.0802  0.0062
 7027W        W26561  11.694   0.274  12.356  0.2677  0.1064  0.3221
 7028W        W26562  17.642   3.501  12.883 -0.0833 -0.1887  0.2250
 7029W        W26563   3.026   2.284   2.971 -0.2430  0.4103 -0.2439
 7030W        W26564   6.132   1.834   2.432 -0.3313  0.1058 -0.1043
 7031W        W26565   1.695   7.074   3.195 -0.2165  0.0256 -0.0420
 7032W        W26566  13.126  13.818  14.689 -0.0301 -0.2168 -0.0198
 7033W        W26567   1.581   6.174  11.997  0.0214  0.2042  0.3049
 7034W        W26568   6.879   7.452   0.317 -0.0921 -0.0292 -0.2104
 7035W        W26569   4.435   8.170   2.343 -0.1953  0.1377  0.1256
 7036W        W26570   1.853   1.597  11.431 -0.1063  0.0917 -0.2146
 7037W        W26571   5.734   3.074   1.968  0.0316 -0.1713 -0.1541
 7038W        W26572   4.267  17.296   0.673 -0.2032 -0.1537 -0.2124
 7039W        W26573  14.624  13.425   0.936  0.2470 -0.0656 -0.1508
 7040W        W26574   7.464   0.283   0.924 -0.1142  0.1776  0.0094
 7041W        W26575  18.102   0.945   1.332 -0.0775 -0.0374 -0.0481
 7042W        W26576   7.043  17.851   3.579 -0.2738 -0.0445 -0.0442
 7043W        W26577   8.647  16.100   4.062  0.1626 -0.2951  0.2975
 7044W        W26578   2.267  15.784   1.494 -0.2034  0.2501 -0.0368
 7045W        W26579   6.215   5.806   0.848  0.0179 -0.1829  0.0213
 7046W        W26580   0.280   4.897  11.858  0.0823 -0.1484 -0.0369
 7047W        W26581   5.073  16.033   3.835  0.1447 -0.0809  0.2297
 7048W        W26582   3.859  11.811   3.820  0.0322  0.3801 -0.0512
 7049W        W26583   5.672   4.153   1.187  0.1288  0.2166  0.1956
 7050W        W26584   4.091  12.110  11.518 -0.2833 -0.2203 -0.1764
 7051W        W26585  13.371  15.134  13.391  0.0410 -0.3837  0.2267
 7052W        W26586   9.456   4.631   0.532 -0.0017  0.0609  0.2334
 7053W        W26587  13.768  10.527  15.712  0.1647 -0.0037 -0.0773
 7054W        W26588   4.821   0.361   0.266  0.0463  0.0931  0.1433
 7055W        W26589  11.192   4.294  14.404  0.1683  0.1607 -0.0663
 7056W        W26590   7.459  11.097   2.154  0.0284 -0.3659  0.1455
 7057W        W26591   8.394  13.974  15.379 -0.0550 -0.0331 -0.2459
 7058W        W26592  12.477   8.202   4.435  0.1363 -0.0938  0.1157
 7059W        W26593   2.440   3.950  15.099  0.3042  0.2510 -0.0749
 7060W        W26594  17.193   7.194   2.738  0.3611 -0.4236  0.1062
 7061W        W26595   6.563   5.533   0.417 -0.2707  0.0379  0.0868
 7062W        W26596  12.194   6.907   2.676 -0.0740 -0.1201 -0.2036
 7063W        W26597  17.934   6.226  13.468  0.0780  0.2187 -0.1191
 7064W        W26598   0.265   0.122   0.746 -0.1980 -0.0708  0.3380
 7065W        W26599  15.290  15.107   4.048  0.0401  0.2862 -0.2153
 7066W        W26600  11.557  14.953  15.502 -0.0456  0.0747  0.0152
 7067W        W26601  13.450   9.800  15.452  0.3133 -0.0378  0.1634
 7068W        W26602   0.586   3.593   2.781  0.0806  0.1139  0.0342
 7069W        W26603   9.278   8.702   4.477  0.2377 -0.2012  0.0799
 7070W        W26604   5.350  13.275  11.170 -0.0345  0.1974 -0.2276
 7071W        W26605   5.247  12.023  11.702 -0.3515  0.2479 -0.0639
 7072W        W26606   1.893  14.832   3.935  0.0046 -0.3510  0.0623
 7073W        W26607  12.325  17.906  13.397  0.1374  0.0525 -0.2128
 7074W        W26608  10.752  13.520  14.849 -0.0720 -0.4391 -0.1890
 7075W        W26609   8.708   3.017   2.741  0.1232  0.3385 -0.3160
 7076W        W26610   5.514  12.976  14.002 -0.0976  0.4084 -0.3279
 7077W        W26611  17.678  12.250  15.450 -0.0842  0.0616 -0.0542
 7078W        W26612  15.616  10.142   1.927  0.3783 -0.0719 -0.0455
 7079W        W26613   1.614  16.877   3.748 -0.1216 -0.0321 -0.0703
 7080W        W26614   9.714   6.887   2.598  0.1241  0.3376  0.1293
 7081W        W26615   8.098  17.684   4.576  0.1011 -0.1275 -0.1612
 7082W        W26616  12.563  13.139  13.406  0.0795 -0.0754  0.0069
 7083W        W26617   3.594   4.723  14.324 -0.1113  0.0963  0.2809
 7084W        W26618  11.287   5.880   2.061 -0.2956  0.0225 -0.0215
 7085W        W26619  13.638  16.205  11.414  0.3401  0.2927  0.2036
 7086W        W26620  11.214   4.243   3.204  0.1018 -0.1875  0.1121
 7087W        W26621  10.922   6.895   2.025  0.1780  0.1390  0.0001
 7088W        W26622   4.993   1.803   0.271 -0.1312 -0.0792 -0.1109
 7089W        W26623  12.437   8.424  14.770 -0.2046 -0.0723  0.2800
 7090W        W26624   3.662   5.859   4.641  0.0574 -0.1686 -0.0594
 7091W        W26625   5.434   4.296   4.150  0.3617  0.2947  0.0028
 7092W        W26626   1.844   2.575   4.004  0.0322  0.2001 -0.1298
 7093W        W26627   1.514   4.340  12.247  0.3655  0.0276 -0.0762
 7094W        W26628  18.061   6.141   4.017 -0.0004  0.0597 -0.0911
 7095W        W26629   2.044   8.271  12.860  0.1722  0.0705  0.2310
 7096W        W26630   7.030  13.685   3.200  0.0760  0.0503  0.3986
 7097W        W26631   0.494   2.825   3.937 -0.0227 -0.1488 -0.1294
 7098W        W26632  13.845  16.336  14.267 -0.2592  0.0649 -0.1316
 7099W        W26633   5.632  11.554  15.346 -0.2399  0.1422  0.0064
 7100W        W26634   4.604   2.954  11.596 -0.1696  0.1968  0.2262
 7101W        W26635   6.405  17.630   4.316  0.0552 -0.1135 -0.0597
 7102W        W26636  14.160   9.978   3.471 -0.0483  0.1494 -0.1676
 7103W        W26637  17.751  10.819  15.731 -0.0306 -0.0439  0.1154
 7104W        W26638   2.120   3.777   4.100 -0.0118 -0.1222  0.3000
 7105W        W26639   3.131  10.521   1.924  0.1672  0.1794 -0.0079
 7106W        W26640   4.974  10.841   1.303 -0.0400  0.2760 -0.0382
 7107W        W26641   8.155   5.258  13.809  0.2019 -0.0196  0.3244
 7108W        W26642  16.621   0.232  11.987  0.0340 -0.0093 -0.0643
 7109W        W26643   3.620   4.476   0.121  0.1492  0.0054  0.0405
 7110W        W26644  12.940   7.593  14.633  0.1052 -0.0451  0.0110
 7111W        W26645   3.527  14.564  14.316  0.0666  0.0400 -0.1892
 7112W        W26646   6.280  17.432   3.794  0.2071  0.2321 -0.1049
 7113W        W26647   9.072   0.155  12.433  0.0698 -0.0514 -0.2110
 7114W        W26648  17.029  11.744   3.137 -0.0610 -0.2410 -0.2387
 7115W        W26649  13.458   6.768   4.139 -0.0174  0.2044 -0.2073
 7116W        W26650   7.729   1.480  14.092  0.1819 -0.0481  0.2618
 7117W        W26651   2.883  18.033  13.788  0.2679  0.2256 -0.0740
 7118W        W26652  13.442   5.562   1.052  0.0422 -0.1618 -0.0176
 7119W        W26653   5.281   9.947   3.431 -0.1082  0.2832 -0.3186
 7120W        W26654  14.824   1.951   2.366  0.1849 -0.3280 -0.2600
 7121W        W26655  11.446  12.559   4.022 -0.0403  0.0396 -0.3037
 7122W        W26656   9.069  13.562   1.856  0.0820 -0.1065 -0.2781
 7123W        W26657   4.474   6.166   4.420 -0.0919 -0.0914 -0.0417
 7124W        W26658   3.965  15.221  14.905 -0.0794 -0.0109 -0.0948
 7125W        W26659  15.826   0.946  11.882 -0.2737 -0.0840 -0.3524
 7126W        W26660  17.443   1.890   3.408  0.0793  0.2408 -0.1500
 7127W        W26661  16.039   3.063   4.549 -0.3808  0.1622 -0.2880
 7128W        W26662   1.464   1.970  14.416 -0.0258  0.2831  0.0792
 7129W        W26663  12.052   6.675   1.354 -0.2181 -0.2774 -0.0372
 7130W        W26664   5.051   5.198  11.520  0.0382  0.0867  0.0114
 7131W        W26665   6.948  16.816   2.633 -0.0817 -0.0582  0.3690
 7132W        W26666  15.531   7.693   0.411  0.3638  0.1662 -0.0889
 7133W        W26667  15.739  14.782   0.719 -0.0515  0.2126  0.1386
 7134W        W26668   6.085   7.211  12.358  0.0892 -0.3120  0.1882
 7135W        W26669   2.313   6.473   3.797 -0.0497 -0.1242  0.3478
 7136W        W26670  10.958   2.103  15.590  0.1796  0.1938 -0.1833
 7137W        W26671   6.219   5.648  11.752  0.0239 -0.2249  0.0802
 7138W        W26672   8.052   3.053   3.774 -0.0870  0.1564 -0.0773
 7139W        W26673   1.678   1.092   4.283  0.1936 -0.0619  0.1139
 7140W        W26674  12.531   9.857   4.081  0.1538 -0.1525 -0.0841
 7141W        W26675   3.524   1.154   2.855  0.0693 -0.0340  0.0844
 7142W        W26676   1.949  15.748   3.513  0.1883  0.1985  0.3595
 7143W        W26677  13.012  11.039   2.510 -0.1637 -0.2882  0.0001
 7144W        W26678   5.606   7.929   1.290 -0.1470  0.1427 -0.1106
 7145W        W26679  15.252  16.191  14.347  0.0621  0.0287  0.0574
 7146W        W26680  14.798  15.499  11.654 -0.0238  0.1491 -0.1669
 7147W        W26681   7.795  11.732   0.924 -0.1170 -0.0032 -0.1297
 7148W        W26682  15.081   3.084   1.647 -0.1367  0.2134  0.0539
 7149W        W26683  11.043  15.723  11.715  0.1705 -0.0128 -0.2219
 7150W        W26684  16.929   3.146   2.730  0.4088 -0.1181 -0.2648
 7151W        W26685  15.722  16.913  15.992  0.0785 -0.1337 -0.1685
 7152W        W26686   1.081  13.796  15.909 -0.2083 -0.3923 -0.0565
 7153W        W26687   3.549   8.013   1.131 -0.0483  0.0161 -0.0286
 7154W        W26688  14.398   5.294  15.601 -0.2486  0.1144 -0.0392
 7155W        W26689   2.734  13.178   1.793 -0.0057  0.2872 -0.1597
 7156W        W26690  14.406  16.884   1.810 -0.0807 -0.2075  0.1930
 7157W        W26691   3.581  18.040  14.914 -0.0401  0.1344  0.2382
 7158W        W26692  13.202   1.841  14.575 -0.2880  0.0484  0.1075
 7159W        W26693   0.364   9.767   2.716  0.3862  0.1390  0.0232
 7160W        W26694  11.538   5.724   4.315 -0.1304 -0.2219 -0.1659
 7161W        W26695   1.060  13.772  13.312  0.2404 -0.1969 -0.1024
 7162W        W26696   4.174   3.090   4.909  0.0042  0.2424 -0.0338
 7163W        W26697   8.917  12.762   3.166 -0.5790  0.0701 -0.1668
 7164W        W26698  17.617  14.634   3.013  0.0363 -0.1529  0.1164
 7165W        W26699  15.101  14.944  14.756  0.3480  0.1320 -0.1761
 7166W        W26700  12.583  10.617   5.220 -0.2313 -0.0210 -0.0641
 7167W        W26701   5.084   5.105  13.788 -0.2760  0.1198 -0.0810
 7168W        W26702   0.025   2.352   2.981 -0.1727 -0.0870  0.1299
 7169W        W26703   9.570  12.686   2.071 -0.3362 -0.1049 -0.0911
 7170W        W26704  14.401  17.372   1.863  0.1561  0.2350  0.2083
 7171W        W26705   1.576  17.519  15.945 -0.0308  0.1611 -0.1265
 7172W        W26706  15.411   0.015  14.069  0.1266 -0.2771  0.0388
 7173W        W26707  10.918  18.125   2.045 -0.0223 -0.1355 -0.2553
 7174W        W26708   7.234   6.539   4.568 -0.0485 -0.1722  0.0132
 7175W        W26709  11.468   5.402  15.434  0.1062  0.1202 -0.0458
 7176W        W26710   5.435  13.613   2.308 -0.0299  0.0260  0.0565
 7177W        W26711  11.114   5.123  13.029  0.0164  0.0751  0.2606
 7178W        W26712   5.824  11.124   5.047  0.0002  0.0635 -0.0979
 7179W        W26713  13.363   5.203  14.673  0.1072  0.1789  0.0037
 7180W        W26714   7.574  14.937  14.604  0.2352  0.0094 -0.3299
 7181W        W26715   6.540  10.437   1.462  0.2644  0.2439  0.0551
 7182W        W26716   3.992  16.357   1.365 -0.1333 -0.2225  0.2270
 7183W        W26717   3.303  10.059  11.037 -0.1974  0.1852  0.2396
 7184W        W26718   5.711   8.510  10.312  0.1546 -0.0809 -0.2451
 7185W        W26719   1.835   9.874   0.166 -0.0566 -0.0966 -0.1737
 7186W        W26720   4.133  15.860  11.451 -0.0356 -0.0666  0.2734
 7187W        W26721  15.678  14.619  13.325 -0.0236  0.1374  0.0588
 7188W        W26722   6.778  15.917  14.003 -0.2546 -0.1275 -0.1358
 7189W        W26723  11.790   3.253   1.850  0.2630 -0.0429  0.0200
 7190W        W26724   6.832   7.411  14.829 -0.0387 -0.0342  0.2940
 7191W        W26725   9.794  10.228   2.512  0.3836  0.2648 -0.2331
 7192W        W26726   5.720   8.026   4.290  0.0213 -0.1303 -0.1591
 7193W        W26727  10.430  13.739  15.149  0.0680  0.2278  0.1009
 7194W        W26728   6.180   6.749  13.372  0.0597 -0.2180  0.3293
 7195W        W26729  17.756  16.470  13.113 -0.1107  0.0386 -0.1349
 7196W        W26730   2.004   3.713  13.005  0.0741  0.1734 -0.1092
 7197W        W26731   3.132  10.751  15.867  0.0955 -0.1198  0.0300
 7198W        W26732   7.644   4.809   2.892 -0.0803  0.1145  0.1094
 7199W        W26733  16.162   2.402   2.957 -0.1980 -0.2719  0.0603
 7200W        W26734   2.012  12.233  15.663  0.1140 -0.1089 -0.3667
 7201W        W26735  12.378   2.842   1.188 -0.0440 -0.0827 -0.1423
 7202W        W26736   9.872   3.803   2.278 -0.0491  0.1685  0.0058
 7203W        W26737   1.566   4.236  13.881  0.0844  0.1479  0.0617
 7204W        W26738   8.550   1.387  13.822 -0.1385  0.1700 -0.0910
 7205W        W26739   8.908  14.530   1.966  0.0677 -0.0897  0.3688
 7206W        W26740  17.300   0.913  13.072  0.2842 -0.1106  0.1990
 7207W        W26741   2.645   3.390   0.803  0.2546 -0.0713  0.2661
 7208W        W26742   6.185  12.158  11.583  0.0457 -0.0377  0.1380
 7209W        W26743   7.771   9.616   3.335  0.1393 -0.1855 -0.0716
 7210W        W26744   0.876  11.443  15.744 -0.1280  0.3771  0.2532
 7211W        W26745  12.476   1.064  13.294 -0.2656  0.1908 -0.1919
 7212W        W26746   8.604   5.131   3.770 -0.0493 -0.0359 -0.1777
 7213W        W26747   7.825  16.647   2.544  0.1077 -0.0833 -0.0404
 7214W        W26748   7.446  16.149   3.288 -0.0369  0.3499  0.0493
 7215W        W26749   2.641   7.372   2.256 -0.0011  0.0422 -0.3886
 7216W        W26750   6.383   9.785  15.316  0.1744 -0.1069  0.2791
 7217W        W26751   6.345  10.612  15.650  0.0589  0.3854 -0.0316
 7218W        W26752  14.679   3.409   1.378 -0.2126  0.1033 -0.2848
 7219W        W26753  11.304   3.701   0.289  0.2095  0.3001  0.0996
 7220W        W26754   5.039   9.869  13.537 -0.0623  0.0280  0.1556
 7221W        W26755   6.799   2.153  14.024  0.3593 -0.3048  0.0037
 7222W        W26756   5.350   3.743   3.199  0.0772  0.0787 -0.1305
 7223W        W26757   8.939   2.696  11.805  0.2062 -0.0048  0.1449
 7224W        W26758  14.790  13.210  11.025 -0.2476  0.0424  0.2251
 7225W        W26759   7.881   7.694  15.643 -0.1787 -0.1746 -0.2796
 7226W        W26760  14.405   8.730  14.634 -0.1564  0.1823 -0.0089
 7227W        W26761   3.139   3.050   3.710  0.0507 -0.1546  0.3282
 7228W        W26762  15.458  13.238   4.951 -0.2287  0.2205 -0.1651
 7229W        W26763   0.984   1.769  12.471 -0.0674  0.0591 -0.1661
 7230W        W26764   9.533  12.669  13.415  0.0737  0.0357  0.1303
 7231W        W26765   6.519   2.683   0.531 -0.3239  0.1364  0.2506
 7232W        W26766  15.528   2.188   0.254 -0.0790 -0.1389 -0.0087
 7233W        W26767  16.329  10.600  15.169 -0.2148  0.0838  0.1681
 7234W        W26768   7.874   4.232  11.088  0.0917 -0.1285 -0.0278
 7235W        W26769   0.240   5.830  13.572  0.0313 -0.0648  0.0966
 7236W        W26770   1.726  14.984   1.672  0.0485 -0.2732  0.2465
 7237W        W26771   7.182  12.184   5.992  0.2761  0.0599 -0.0746
 7238W        W26772   4.066   3.422  14.779  0.0697 -0.0097  0.1348
 7239W        W26773  10.934   7.582   4.641 -0.2750  0.1686  0.1944
 7240W        W26774  18.071   1.072  12.834  0.0211  0.1170  0.2553
 7241W        W26775  15.337  11.361   3.360 -0.2871 -0.1140 -0.0244
 7242W        W26776  13.706  15.384   1.358  0.2864  0.1092  0.2121
 7243W        W26777   7.114   8.216  14.643 -0.1763 -0.0943  0.0192
 7244W        W26778   6.709   7.934   0.087  0.1007  0.0726  0.1466
 7245W        W26779   4.240   3.938   1.513 -0.1164 -0.0021 -0.1308
 7246W        W26780  12.438  11.992  14.348 -0.1186 -0.1159  0.0742
 7247W        W26781   1.284   1.399   4.421  0.3111 -0.1010 -0.2918
 7248W        W26782   7.960  12.162  12.925 -0.2306 -0.2831  0.2787
 7249W        W26783  15.682  16.338   3.197 -0.1803 -0.3071  0.1700
 7250W        W26784  14.540  17.808  11.421  0.1650 -0.0489  0.0796
 7251W        W26785  15.747   3.394   3.306  0.0534 -0.1002 -0.2139
 7252W        W26786  13.124   5.378   1.364  0.0672  0.0299 -0.2345
 7253W        W26787   4.366  16.072   1.108  0.0165 -0.1531 -0.2320
 7254W        W26788  13.360  17.728  15.030 -0.1802 -0.0211 -0.1241
 7255W        W26789   6.151   0.089   2.532  0.3195 -0.2715  0.2265
 7256W        W26790   2.747  12.810  13.973  0.1412 -0.0179 -0.0995
 7257W        W26791   6.545   9.187  12.512 -0.0051 -0.1211  0.4806
 7258W        W26792   1.920  17.084   4.111 -0.1147  0.1502  0.1836
 7259W        W26793  15.444   7.273   0.989  0.0929  0.1713  0.0844
 7260W        W26794   3.182   1.882   2.209  0.0174 -0.3830  0.0480
 7261W        W26795  16.252  10.039  11.362  0.1104 -0.2487 -0.0651
 7262W        W26796   8.565  14.251  13.819 -0.1379 -0.0157 -0.0425
 7263W        W26797   2.494   4.981  15.778 -0.1918  0.1022 -0.2622
 7264W        W26798   2.527  16.587   0.273  0.0398 -0.2773 -0.3357
 7265W        W26799   9.106   9.100   1.878 -0.1132 -0.0682 -0.2253
 7266W        W26800   7.523  14.407   5.856 -0.0205 -0.3034  0.0569
 7267W        W26801   8.118  12.576  13.459 -0.0771 -0.1065  0.3225
 7268W        W26802   4.890   0.468  12.940 -0.5819  0.1506 -0.4394
 7269W        W26803   6.806  13.013   3.808  0.2104 -0.1150 -0.0711
 7270W        W26804   9.866  15.175   0.886 -0.1939 -0.1335 -0.0735
 7271W        W26805  17.731   8.665  13.012  0.0193 -0.1172 -0.3015
 7272W        W26806   8.958   2.185   2.796  0.0743 -0.3031  0.0477
 7273W        W26807   6.286   2.062  11.367  0.0029  0.0616 -0.0799
 7274W        W26808  16.123   3.825  12.980  0.2623 -0.3502 -0.1232
 7275W        W26809   2.616   5.816  13.407 -0.2372 -0.2577 -0.3228
 7276W        W26810   7.742  11.130   1.062  0.1601 -0.0736 -0.0264
 7277W        W26811   7.180  17.432  12.100 -0.1404  0.2167 -0.0980
 7278W        W26812   4.960  15.524  13.359  0.2238  0.0939 -0.1600
 7279W        W26813   9.886   7.135  15.648  0.1770 -0.0815 -0.1034
 7280W        W26814   4.523   7.556   4.940 -0.3218  0.1458 -0.4361
 7281W        W26815  10.137   1.463   4.459  0.1732  0.1776  0.0910
 7282W        W26816  16.251   7.187   3.257 -0.0773  0.0452  0.2167
 7283W        W26817   7.193   3.105   4.357  0.2707  0.0600  0.0537
 7284W        W26818   0.545  12.703   0.100  0.0957  0.1097 -0.1084
 7285W        W26819   0.097  11.276  12.643  0.2298 -0.0278  0.0339
 7286W        W26820  17.853  17.978   2.707  0.0540  0.1493  0.2833
 7287W        W26821   6.759   1.945   3.161  0.1425 -0.0924 -0.0966
 7288W        W26822   6.768   4.097  13.740  0.0260  0.1800 -0.1265
 7289W        W26823   2.722  10.398  14.182  0.0734  0.2094  0.3415
 7290W        W26824   2.931   2.076  12.045  0.1393  0.0409 -0.2994
 7291W        W26825  10.007  17.221  12.500  0.1027 -0.0095 -0.1182
 7292W        W26826  11.061  11.645  15.745  0.0533 -0.0962 -0.2642
 7293W        W26827   0.324  14.591  13.221  0.1462  0.3427 -0.1764
 7294W        W26828   2.103  11.636  13.540 -0.1007 -0.1010 -0.0364
 7295W        W26829   7.947   8.712   1.322 -0.4721 -0.1822  0.0839
 7296W        W26830  15.348   2.324  12.251 -0.0213  0.2640  0.0221
 7297W        W26831   5.085  14.887   0.156 -0.0543  0.1857  0.1045
 7298W        W26832  12.227  11.129   3.961  0.2693  0.0343 -0.0097
 7299W        W26833   1.898  15.935   3.947 -0.0582  0.2011 -0.0846
 7300W        W26834   3.514  16.863  12.245 -0.0466 -0.1147 -0.1837
 7301W        W26835   8.309  16.254  13.597 -0.2526 -0.0369  0.2572
 7302W        W26836  17.066  14.538  15.659 -0.0299 -0.1073  0.1373
 7303W        W26837   3.110   4.243   0.039  0.1015  0.1312  0.2136
 7304W        W26838   8.337   9.154   4.886  0.2784 -0.2132 -0.0790
 7305W        W26839  14.106   0.416  13.333  0.3336 -0.2857 -0.2805
 7306W        W26840   6.392   3.088   2.673  0.0025  0.1099  0.0920
 7307W        W26841  11.869   3.438  12.757 -0.0631  0.1721 -0.3666
 7308W        W26842  10.578   1.587  12.584  0.1322  0.2060 -0.0665
 7309W        W26843   7.205  13.107   2.902  0.1655 -0.0950  0.0477
 7310W        W26844  15.658  16.501   0.220 -0.2170  0.0478 -0.0707
 7311W        W26845   8.060   1.776  11.702  0.0523 -0.2509 -0.2263
 7312W        W26846  12.190   0.870  12.849 -0.0672 -0.2379  0.0689
 7313W        W26847   5.317   8.162   2.192 -0.4728 -0.1049  0.2101
 7314W        W26848   2.638   0.258   1.714 -0.0122 -0.1190 -0.0447
 7315W        W26849  17.035  12.266   1.830 -0.2718  0.1589  0.2270
 7316W        W26850  10.407  16.232  15.136 -0.0904  0.2103  0.0390
 7317W        W26851  12.302  16.034   4.511  0.2158 -0.0654 -0.0339
 7318W        W26852   0.279   7.593  10.573 -0.2392  0.0217 -0.3353
 7319W        W26853  10.690   0.665  11.561  0.2379 -0.0894 -0.1576
 7320W        W26854   7.995  18.094  12.384 -0.0632  0.0656  0.0721
 7321W        W26855   8.977   1.058  11.157  0.1000  0.1947  0.3051
 7322W        W26856  15.649  10.350  11.898  0.4379 -0.0352  0.1350
 7323W        W26857   4.127  10.860  10.841  0.1342 -0.1784 -0.3277
 7324W        W26858  17.092   1.328   4.173  0.0088  0.1375 -0.3239
 7325W        W26859  14.872   1.127   0.787 -0.1304 -0.3244  0.3403
 7326W        W26860   4.471  16.705  12.257  0.2572  0.0166  0.0988
 7327W        W26861   6.438  13.951  13.728  0.0899  0.1690 -0.3036
 7328W        W26862  16.593   4.922  11.082 -0.3112 -0.1909 -0.1629
 7329W        W26863  16.046  14.149  12.143 -0.2302 -0.5274 -0.0053
 7330W        W26864   6.724   5.933   3.870  0.0060  0.1499 -0.0229
 7331W        W26865   9.863  11.661  14.926 -0.0014  0.0110 -0.0161
 7332W        W26866  10.598   8.120   3.396  0.1499 -0.2606 -0.1562
 7333W        W26867  18.177   9.756  14.743  0.0047 -0.0913  0.0887
 7334W        W26868  17.948   4.133  13.370 -0.1028  0.1528  0.2759
 7335W        W26869  14.260   5.405  14.227  0.3553  0.0552  0.2309
 7336W        W26870  14.634   5.708   3.930 -0.0442 -0.2033 -0.0941
 7337W        W26871   2.944  13.895  13.792  0.2703 -0.2821  0.2142
 7338W        W26872   7.593   6.658   0.216  0.2045  0.0178  0.1367
 7339W        W26873   0.880  12.090   4.094  0.0086 -0.3313 -0.0442
 7340W        W26874  13.019  11.437   4.465  0.0790  0.1673  0.0577
 7341W        W26875  16.431   9.921   1.528  0.0055  0.1430 -0.0617
 7342W        W26876   8.268   6.865   2.444  0.0977 -0.1118  0.2667
 7343W        W26877   2.167   7.827   3.765  0.0733  0.1366 -0.1389
 7344W        W26878  10.076   7.675  13.939  0.0655 -0.5104  0.2183
 7345W        W26879   0.576   6.370  12.946  0.0442  0.0829  0.4049
 7346W        W26880   6.456  14.738   2.633  0.0252  0.0516 -0.0567
 7347W        W26881  14.537   2.379  12.357 -0.4734 -0.3099  0.0796
 7348W        W26882   5.139  17.671  11.060 -0.2403 -0.0329  0.1670
 7349W        W26883  15.331  15.089  11.527  0.1562 -0.1889  0.0892
 7350W        W26884   1.323  10.590  13.525 -0.0532 -0.0140  0.1123
 7351W        W26885  16.637   3.864  11.774  0.3528  0.0457 -0.1343
 7352W        W26886   0.235   2.114   4.004  0.0570  0.1970  0.2021
 7353W        W26887  14.662   7.560  13.641  0.3648  0.0578  0.2493
 7354W        W26888   0.902  17.176   4.246 -0.1156 -0.1354 -0.0182
 7355W        W26889   1.393   6.821   0.277  0.0175 -0.0577 -0.1306
 7356W        W26890  13.321  13.560   0.808 -0.1508  0.1944 -0.2602
 7357W        W26891   1.371   0.907   4.671 -0.0113  0.0124  0.0991
 7358W        W26892   6.828  16.691   2.063  0.2231 -0.0151  0.1209
 7359W        W26893  13.701   9.795  12.166 -0.0165 -0.3439  0.1919
 7360W        W26894   1.037  10.655   4.739  0.2559  0.0517  0.1667
 7361W        W26895  16.676  14.512   0.593 -0.0970 -0.0943 -0.2675
 7362W        W26896   4.598   4.815  13.190  0.0300  0.1687 -0.3723
 7363W        W26897  11.555  11.018   4.591  0.0806 -0.0883 -0.0318
 7364W        W26898  15.708  16.098   2.213 -0.3268 -0.2017 -0.0596
 7365W        W26899   4.963   6.297  13.199  0.0444 -0.0265  0.2371
 7366W        W26900   5.779   3.094  14.064  0.0029  0.2285 -0.0530
 7367W        W26901   4.630   4.916  13.653  0.2186  0.0791 -0.0700
 7368W        W26902   4.697   7.725  14.351  0.0320 -0.4015 -0.2562
 7369W        W26903   0.445   0.200  15.865 -0.0107  0.0146  0.0148
 7370W        W26904   1.220  12.582   4.487  0.0724 -0.0694 -0.1123
 7371W        W26905   7.123   9.666  11.460 -0.2570 -0.1859 -0.5576
 7372W        W26906  11.991  17.977   1.694 -0.1149 -0.5278  0.0889
 7373W        W26907   0.845  11.314   0.127 -0.1575  0.1548 -0.1013
 7374W        W26908   2.154   1.757  11.916 -0.0865 -0.0225 -0.2038
 7375W        W26909   3.144   5.238  15.309 -0.0362  0.0620  0.0802
 7376W        W26910   9.983   4.092  11.936 -0.2162  0.1229  0.1972
 7377W        W26911   3.737  12.215  15.396  0.1399 -0.1353  0.0581
 7378W        W26912  15.934  12.644  16.049  0.0505  0.2112 -0.1166
 7379W        W26913  12.627  16.202  12.903  0.0658  0.1405  0.1768
 7380W        W26914  11.963  17.365   4.381  0.3235 -0.0361  0.0360
 7381W        W26915   3.668   6.175  11.939 -0.0881  0.1914 -0.1858
 7382W        W26916   3.801   6.796  14.114 -0.2830  0.2131 -0.2297
 7383W        W26917   0.234   0.335  14.796 -0.1733  0.1383 -0.2735
 7384W        W26918   2.559   5.029  14.788  0.2340 -0.2252 -0.0698
 7385W        W26919  12.021  13.622   0.952  0.2669 -0.0420 -0.1475
 7386W        W26920  16.521  13.448   0.244 -0.1495 -0.1322  0.1631
 7387W        W26921   7.401  12.518  11.399 -0.4364  0.2036 -0.0071
 7388W        W26922   1.204   5.070  15.304  0.3807 -0.0646 -0.0969
 7389W        W26923  15.918  17.790  12.194 -0.1545 -0.3008  0.0406
 7390W        W26924  11.821   4.208   1.397 -0.0388 -0.1103 -0.1671
 7391W        W26925   7.541  14.269  15.894 -0.2542 -0.3095 -0.1137
 7392W        W26926   9.863   5.582   4.280  0.3369  0.2674  0.1720
 7393W        W26927  12.273  10.587   2.437 -0.2199  0.0563  0.2687
 7394W        W26928   0.390   8.176   3.701  0.1071  0.0034 -0.1166
 7395W        W26929  16.197   1.585  13.577 -0.1552 -0.0413  0.2061
 7396W        W26930   1.674  13.169   3.881  0.0698  0.1348 -0.0400
 7397W        W26931  16.324  12.327   3.532 -0.1686  0.2504 -0.1821
 7398W        W26932   4.788  12.922   2.715  0.1045 -0.2065  0.0272
 7399W        W26933   0.736  15.068   5.399 -0.4936  0.1865  0.2157
 7400W        W26934  16.842   3.331  13.416  0.0123 -0.1384 -0.1324
 7401W        W26935   3.011   2.054   0.337 -0.1980  0.1561 -0.1292
 7402W        W26936  13.472   1.829  15.623 -0.0121 -0.0583  0.1247
 7403W        W26937   4.975   6.164   0.417 -0.1494  0.0389  0.0850
 7404W        W26938   3.810  17.407  13.892  0.4167  0.3009 -0.1951
 7405W        W26939  10.331  15.113  14.031  0.1344  0.0434  0.2042
 7406W        W26940   9.629   7.613   2.949 -0.0110 -0.0681  0.2229
 7407W        W26941  10.928   4.385   2.725  0.1300  0.1723 -0.2314
 7408W        W26942   2.127   9.048  15.880 -0.6131  0.0841 -0.0550
 7409W        W26943  10.432  14.823   2.893 -0.1418 -0.1209  0.0396
 7410W        W26944   2.795   5.037   0.192  0.0253  0.0908 -0.0758
 7411W        W26945   1.030  11.357  14.398 -0.1600 -0.1041  0.0881
 7412W        W26946  15.057   7.661   1.176 -0.4405 -0.1588 -0.1685
 7413W        W26947  12.344   0.121  10.774  0.1135 -0.2344  0.0581
 7414W        W26948   4.764  15.124   1.578  0.0231  0.0530 -0.1892
 7415W        W26949  14.064   9.502   3.257  0.1737 -0.3415 -0.0076
 7416W        W26950  12.786  13.833   4.435 -0.1723  0.5023  0.0563
 7417W        W26951   0.994  13.424  14.285 -0.0845  0.1943 -0.0494
 7418W        W26952   0.314   5.883   1.903 -0.0111 -0.0862  0.1121
 7419W        W26953   0.546   5.710  12.702 -0.1826 -0.2333 -0.2884
 7420W        W26954  11.709  16.469  12.534  0.0285  0.1701 -0.2139
 7421W        W26955  13.011  14.879   1.742  0.1396 -0.2653  0.1130
 7422W        W26956  13.545   4.272  15.073  0.1545  0.1934  0.1146
 7423W        W26957   0.298   6.913   4.530  0.2471  0.0528  0.0282
 7424W        W26958   9.983   4.051   2.694 -0.3466 -0.0037  0.1543
 7425W        W26959   8.977   0.149   0.629 -0.1217 -0.0233 -0.1320
 7426W        W26960  13.428  10.905   1.563 -0.0446  0.0153  0.0039
 7427W        W26961   5.002   6.588   2.701  0.2334 -0.0090 -0.2396
 7428W        W26962  10.372   6.625  12.533 -0.2331 -0.0561 -0.2018
 7429W        W26963   7.170  13.993  15.380 -0.3900 -0.1687 -0.0684
 7430W        W26964  11.022   4.118  15.765  0.3531 -0.3390 -0.1314
 7431W        W26965   9.203  15.504  12.010  0.1013 -0.0016  0.1126
 7432W        W26966   9.164  15.794  14.967 -0.2471  0.1498  0.0335
 7433W        W26967  16.098   6.297  12.600  0.3092  0.3739  0.0497
 7434W        W26968   2.439  15.731   3.689 -0.2111  0.2283  0.1112
 7435W        W26969  14.084   5.892  14.969  0.3821  0.2030 -0.2034
 7436W        W26970   0.350  15.754  13.854  0.0925 -0.2790 -0.0655
 7437W        W26971  15.296  11.365  14.701 -0.0504  0.0221  0.0628
 7438W        W26972  15.623  14.188   5.337 -0.0166 -0.1287  0.2106
 7439W        W26973   6.994   8.760   2.680 -0.0696 -0.0857 -0.2864
 7440W        W26974   1.217   1.350   0.579  0.0484  0.1530  0.1199
 7441W        W26975  13.336   5.858   3.090 -0.1425 -0.0769  0.2355
 7442W        W26976  12.499  10.772  12.909 -0.3112 -0.1901 -0.0291
 7443W        W26977   1.555  16.390  11.972 -0.3254 -0.1092  0.0984
 7444W        W26978   8.316  16.903   4.225 -0.1196  0.0235  0.0963
 7445W        W26979   8.499   0.164   1.355 -0.0762 -0.1012  0.1498
 7446W        W26980  10.710  11.717  15.205  0.2343  0.0539 -0.1161
 7447W        W26981   6.332  12.779  13.392 -0.1149  0.0956 -0.0665
 7448W        W26982   5.940   6.691   1.515 -0.1503 -0.0610  0.0239
 7449W        W26983  14.374   5.487  14.732 -0.0885  0.2014  0.2264
 7450W        W26984   2.015   4.696   0.491 -0.3700  0.1791 -0.0608
 7451W        W26985  14.389  16.379   2.840  0.1323  0.0489  0.0659
 7452W        W26986  12.310  10.926   0.338  0.0622  0.1475 -0.2008
 7453W        W26987   2.329   8.860  15.445  0.3256  0.2671  0.0876
 7454W        W26988   1.072   9.028  12.225 -0.0357 -0.0876  0.3024
 7455W        W26989   4.076  13.618   2.644 -0.0743  0.1268 -0.0202
 7456W        W26990   5.657  11.369  13.460  0.2263 -0.0484  0.1579
 7457W        W26991   4.949  13.949  15.829  0.1906  0.0516 -0.0802
 7458W        W26992   1.865  13.264  15.412 -0.1759 -0.2949 -0.1920
 7459W        W26993   8.007   4.444   0.958 -0.2577 -0.2615 -0.0080
 7460W        W26994   5.348   7.139   2.071  0.2302  0.0525  0.0158
 7461W        W26995  13.855   5.465   2.009  0.0171 -0.0625  0.1706
 7462W        W26996   6.718   7.200   4.586  0.0571  0.2437 -0.0163
 7463W        W26997   0.865   2.451  10.742 -0.2102  0.2847 -0.2483
 7464W        W26998   5.319  12.910  11.671  0.1084  0.3622 -0.0431
 7465W        W26999  17.120   6.081  15.026  0.0795 -0.1043 -0.3468
 7466W        W27000   1.339   3.482  11.756 -0.0976  0.0810  0.3919
 7467W        W27001  14.145   1.483   4.165  0.1337  0.2247  0.4165
 7468W        W27002   1.248   2.936  11.826 -0.0719 -0.1705  0.0529
 7469W        W27003  16.157   3.442  15.980  0.1123 -0.1376 -0.2556
 7470W        W27004   4.450   8.279  11.277  0.2139 -0.1976  0.1144
 7471W        W27005   5.178   8.508  11.684  0.2860 -0.1635 -0.1417
 7472W        W27006   1.739   7.880   3.115 -0.1599  0.2247 -0.0435
 7473W        W27007  10.393  12.483   3.708 -0.1309 -0.0451 -0.0675
 7474W        W27008   8.133  17.913   1.394  0.1153 -0.1542  0.2383
 7475W        W27009  13.387   8.281   3.338  0.0278  0.0709 -0.3431
 7476W        W27010  16.442  16.925   2.654  0.0428 -0.0632  0.0295
 7477W        W27011   1.141  16.844   2.604 -0.0468 -0.0475 -0.0733
 7478W        W27012  10.206   6.659   1.774  0.0065  0.1538  0.1742
 7479W        W27013  16.440   2.918  12.038 -0.0693 -0.0815  0.1341
 7480W        W27014   4.940  10.588  14.988  0.1040 -0.0076  0.1265
 7481W        W27015   9.993  10.344   2.965  0.1097  0.1048  0.0798
 7482W        W27016   4.543   2.535   2.514  0.2167  0.2473  0.1498
 7483W        W27017  10.474   9.182   0.528 -0.0940  0.0906  0.2229
 7484W        W27018   6.873  11.732   3.289  0.1996 -0.2426  0.0888
 7485W        W27019   6.604  14.941   1.544 -0.0561  0.0475 -0.0879
 7486W        W27020  13.926   8.379  11.243 -0.0445  0.3851  0.0850
 7487W        W27021   8.399  16.786  13.693  0.0717  0.1164  0.2587
 7488W        W27022  10.340  10.159   0.732 -0.0793 -0.1300  0.0036
 7489W        W27023  10.513   0.184  14.529 -0.0143 -0.0760  0.1543
 7490W        W27024   3.397   4.062   2.538  0.1381 -0.0795  0.0564
 7491W        W27025  13.493  13.450   0.352  0.2453 -0.0753  0.2709
 7492W        W27026   2.982   4.912  14.540 -0.5565  0.0822  0.2466
 7493W        W27027   2.186   4.261   3.981 -0.2188  0.2216 -0.0721
 7494W        W27028  14.441  16.527  11.411 -0.2151 -0.0324 -0.0630
 7495W        W27029   5.700   2.108  14.004 -0.0530  0.0870 -0.4300
 7496W        W27030  16.490   3.192   3.200 -0.1943 -0.2179  0.2520
 7497W        W27031   3.033   9.299  11.632  0.2238 -0.1223 -0.1686
 7498W        W27032  12.162   3.366   2.760  0.1322 -0.2425 -0.1089
 7499W        W27033   8.434  12.765   3.486 -0.2496  0.0185  0.1532
 7500W        W27034  15.654   1.732   2.697 -0.2197 -0.0099  0.0229
 7501W        W27035   1.051   5.957  14.554  0.3314  0.0084  0.0725
 7502W        W27036   3.991  15.750  13.943 -0.0013  0.2512  0.0811
 7503W        W27037  17.670  12.842  11.628 -0.2316 -0.0618 -0.1622
 7504W        W27038   4.313  14.756  14.892  0.0209 -0.3123 -0.1188
 7505W        W27039   5.398  17.028   2.445  0.0447  0.1454 -0.2621
 7506W        W27040  11.510   6.320  14.450 -0.0164  0.1176 -0.1887
 7507W        W27041  14.343  15.346   2.801 -0.2201 -0.0457  0.1598
 7508W        W27042   2.986  11.867   3.763 -0.0653  0.3264 -0.0712
 7509W        W27043  11.962  12.317  14.110 -0.1333  0.0995  0.0350
 7510W        W27044   3.240   3.943  12.686  0.1460  0.0159  0.0169
 7511W        W27045  10.037   1.877  11.863 -0.3349 -0.0254  0.2714
 7512W        W27046  15.380  14.553  14.118 -0.4327  0.2541 -0.1128
 7513W        W27047  14.262  10.889  14.668  0.2605 -0.1243 -0.0666
 7514W        W27048  13.137   8.992  15.150 -0.0250 -0.0945  0.2489
 7515W        W27049   2.929  11.403   2.929  0.4302  0.0442 -0.0723
 7516W        W27050  14.474  11.593   4.230 -0.0407  0.0444  0.1707
 7517W        W27051   1.852  12.014   2.593 -0.0906 -0.1104  0.0151
 7518W        W27052   2.364   7.803   0.762  0.2645 -0.1801  0.0776
 7519W        W27053  14.720  10.484   1.545 -0.1617 -0.2422  0.3237
 7520W        W27054   2.583   2.306   2.780 -0.0774  0.0386  0.0561
 7521W        W27055   7.840   1.723  14.492  0.2009  0.1778  0.0927
 7522W        W27056   2.672   3.149   2.165  0.3074  0.0359  0.1121
 7523W        W27057  17.586   0.800   0.016 -0.1402  0.0397 -0.3157
 7524W        W27058  11.860   6.380  15.216 -0.1464 -0.0095  0.1522
 7525W        W27059   0.230   2.653   4.320 -0.1774  0.0728 -0.2382
 7526W        W27060   7.381   1.822   3.711 -0.0664 -0.1379  0.4833
 7527W        W27061  11.625  12.464  11.933 -0.0364 -0.0403  0.1771
 7528W        W27062  11.192  17.166  15.052  0.2621 -0.0873 -0.2458
 7529W        W27063  16.278   5.969   3.170  0.0042 -0.0207  0.1099
 7530W        W27064   3.900  15.892   3.997 -0.0794 -0.0094  0.2175
 7531W        W27065   7.613   1.720   4.251 -0.6300 -0.2920 -0.1690
 7532W        W27066  18.076   7.161   0.282 -0.1764 -0.1507 -0.0851
 7533W        W27067   2.357  17.410   2.122 -0.0306  0.2620 -0.0485
 7534W        W27068   2.676   7.902  14.661 -0.2093 -0.0498 -0.4222
 7535W        W27069  13.261  17.940  14.570  0.1206  0.2267  0.0147
 7536W        W27070  16.186  15.376  13.173  0.0166  0.1176  0.0342
 7537W        W27071   3.739   4.751  15.746 -0.1128 -0.2155 -0.0343
 7538W        W27072   6.775   3.523  12.319  0.1130 -0.2253 -0.1204
 7539W        W27073  10.175   0.393  15.500  0.0358  0.1084 -0.2642
 7540W        W27074  14.651  13.330  13.678 -0.0581 -0.2061 -0.2233
 7541W        W27075   0.621  12.887  12.078 -0.1209  0.0535 -0.1670
 7542W        W27076   4.987   9.473  15.023  0.0556  0.0043  0.2058
 7543W        W27077  10.021  11.229   1.614 -0.0012  0.0905 -0.2811
 7544W        W27078  10.846  10.506  12.513  0.2265 -0.0939 -0.0251
 7545W        W27079  14.853  11.013  11.857 -0.3522  0.1982  0.0254
 7546W        W27080  12.341  10.163  14.032  0.0708 -0.0869  0.0909
 7547W        W27081  10.301  12.999   3.693  0.2047 -0.0416  0.0116
 7548W        W27082  14.295   7.999   0.366  0.1225  0.0655  0.0167
 7549W        W27083  17.001   5.048   0.935 -0.0169  0.5272 -0.0672
 7550W        W27084   8.239   8.980   0.568  0.2367  0.0945  0.2527
 7551W        W27085   5.221  12.005  12.274 -0.1495 -0.2091  0.0687
 7552W        W27086   2.451  17.414  15.759  0.1372 -0.0363 -0.1186
 7553W        W27087   0.694  12.700   3.846  0.1671 -0.2886 -0.1561
 7554W        W27088   2.072  15.741  12.182  0.1376 -0.1064 -0.0283
 7555W        W27089  10.422   9.227   4.494 -0.1288  0.4011  0.1543
 7556W        W27090  10.289   3.553   4.298 -0.1636  0.0257  0.4580
 7557W        W27091  16.671  11.567   4.009 -0.1726 -0.1339  0.1322
 7558W        W27092   3.916  17.719  14.673  0.2326 -0.0991  0.1231
 7559W        W27093   5.778   2.369  13.532 -0.1051 -0.2519 -0.1417
 7560W        W27094   0.297   8.469   4.075  0.2455 -0.0583 -0.0692
 7561W        W27095   2.599   4.044  14.595 -0.0299  0.0575 -0.2296
 7562W        W27096   6.050   9.001   3.440 -0.2276 -0.1559  0.0504
 7563W        W27097   4.058   2.897  12.093 -0.0844  0.1061  0.1996
 7564W        W27098  14.500   5.734   2.217 -0.0739  0.0055  0.0314
 7565W        W27099  13.795   4.187   1.188 -0.0260 -0.0398 -0.4069
 7566W        W27100   7.714  15.264  14.201  0.1764 -0.0704  0.0415
 7567W        W27101   0.120  13.715   3.210  0.0865  0.3789 -0.3545
 7568W        W27102  14.991   9.769   4.182  0.2978 -0.0622 -0.2134
 7569W        W27103   6.499   8.327   0.850 -0.2766  0.0474  0.1801
 7570W        W27104  12.875   6.240   2.834  0.3208  0.0974  0.1242
 7571W        W27105  16.997  18.122   0.403  0.0444 -0.0232  0.1294
 7572W        W27106  12.582   4.394   1.719  0.2981  0.0259 -0.0489
 7573W        W27107  15.622  17.193  13.409  0.0055 -0.2744 -0.3144
 7574W        W27108   4.282  12.592   4.000  0.0660  0.0168  0.0404
 7575W        W27109   6.633   6.343  15.623 -0.3354 -0.1584  0.1730
 7576W        W27110   3.265  13.024  14.797 -0.4409  0.3121  0.1339
 7577W        W27111   4.711  17.071   5.049 -0.1615  0.1252 -0.0907
 7578W        W27112  13.559  15.564  13.248 -0.1270  0.2677  0.2174
 7579W        W27113   5.577   5.188  15.494 -0.2752 -0.0584 -0.2095
 7580W        W27114   1.598  14.664  11.617  0.3556  0.2035  0.0358
 7581W        W27115  11.052   0.153  13.689  0.0958  0.0886  0.1547
 7582W        W27116  17.770  15.873  14.774 -0.4233 -0.4712 -0.0554
 7583W        W27117  14.519   2.448   2.075  0.2817 -0.1030 -0.1272
 7584W        W27118   3.494   5.078   1.900 -0.3019  0.2920  0.0434
 7585W        W27119   4.522  13.255  15.044 -0.1661 -0.2782 -0.1772
 7586W        W27120   1.929  13.858   3.127 -0.1836 -0.0241 -0.4489
 7587W        W27121  12.885   6.574  14.486 -0.1698 -0.1360  0.1115
 7588W        W27122   8.749  11.723   0.683  0.3078  0.0721 -0.2498
 7589W        W27123   7.369  15.674  12.148 -0.6062  0.0009  0.0842
 7590W        W27124  17.098   1.408  15.604 -0.0901  0.3331 -0.2516
 7591W        W27125  11.503   4.828  12.110  0.1316 -0.1539 -0.2961
 7592W        W27126   9.424  12.919  12.302 -0.3162  0.0710  0.0562
 7593W        W27127   8.414  14.217   1.427 -0.2383  0.0559 -0.1374
 7594W        W27128   4.609   2.927   0.766  0.0436  0.1842  0.4620
 7595W        W27129   4.150  16.442  15.170  0.1353 -0.2611  0.0290
 7596W        W27130  13.642  13.531  11.551 -0.0653 -0.1087 -0.3368
 7597W        W27131   9.471   6.729  15.724 -0.1090  0.1488  0.0776
 7598W        W27132   7.117   9.127   0.619 -0.2886 -0.0494  0.0927
 7599W        W27133   3.593   9.247  15.087  0.1080  0.1783 -0.2077
 7600W        W27134  10.153   9.243  13.046 -0.1342  0.1893 -0.1476
 7601W        W27135  13.862   4.531   4.130  0.1492 -0.0108 -0.1258
 7602W        W27136   5.696   9.541  12.783  0.1433 -0.0851 -0.1254
 7603W        W27137  16.011   8.159   1.665  0.1431 -0.0307  0.3976
 7604W        W27138   7.585   5.826   0.287 -0.0554 -0.0179 -0.1442
 7605W        W27139  16.284   9.288  13.130  0.2227  0.1566 -0.1367
 7606W        W27140  12.234  12.505  14.484 -0.3225 -0.0329  0.0325
 7607W        W27141   0.029   2.387  14.335 -0.0275  0.1681  0.0373
 7608W        W27142   2.439  11.909   0.685 -0.0604  0.1584  0.3472
 7609W        W27143   2.015   5.072   3.389  0.2000  0.1269  0.3327
 7610W        W27144   7.060   2.399   0.808 -0.0286  0.0867  0.0448
 7611W        W27145   6.638  17.531   2.398  0.1312 -0.1559 -0.0529
 7612W        W27146   9.491  15.881  15.422 -0.0290  0.0156 -0.4455
 7613W        W27147  17.494  13.456  13.780 -0.0697  0.4452 -0.3523
 7614W        W27148   5.032  16.558   0.712  0.2294  0.1133  0.0232
 7615W        W27149   3.033   3.419   4.059  0.0603  0.5071  0.2097
 7616W        W27150   0.169   3.070  15.254 -0.2670 -0.2623 -0.1612
 7617W        W27151  17.811   6.562  15.611 -0.1497 -0.2904  0.0327
 7618W        W27152   0.203   2.817   0.253  0.0876 -0.1860  0.0543
 7619W        W27153  17.650  12.003   3.762 -0.2038  0.0442  0.0956
 7620W        W27154   4.106   9.039  15.357 -0.1750  0.1794 -0.1996
 7621W        W27155   9.208  11.499   0.702 -0.2574  0.3745  0.1274
 7622W        W27156   6.925   4.511   3.565  0.1368 -0.2328  0.3184
 7623W        W27157   7.164  12.719   3.209 -0.0125 -0.2814  0.1203
 7624W        W27158  11.419   8.278   4.549  0.0097 -0.0089  0.0939
 7625W        W27159   1.410   5.644  14.248 -0.2105  0.4404  0.1657
 7626W        W27160   9.592   3.097   4.749  0.1110  0.0503  0.0534
 7627W        W27161   9.248   6.190  14.464  0.1267  0.0492  0.2471
 7628W        W27162  17.523   9.262   4.495 -0.0188 -0.0547  0.1180
 7629W        W27163   5.564  16.858   1.476 -0.2404 -0.0710 -0.1313
 7630W        W27164  10.913   9.208   1.710  0.0042  0.2088 -0.0840
 7631W        W27165  17.426  15.655   2.020 -0.4258 -0.2489  0.0046
 7632W        W27166  12.810   2.266  13.433 -0.1022 -0.1318 -0.1635
 7633W        W27167   2.531  17.369  14.310  0.2763  0.2016  0.1377
 7634W        W27168   1.878  10.352  14.209 -0.2462  0.2860 -0.0351
 7635W        W27169   7.873   2.585  13.788 -0.1300  0.1929  0.3053
 7636W        W27170  17.102   0.702   1.749 -0.0130 -0.0693 -0.2412
 7637W        W27171   7.218  10.427   0.994 -0.1115 -0.6868 -0.0870
 7638W        W27172   9.919   6.589  14.826  0.1272 -0.1962 -0.0914
 7639W        W27173  17.014   0.463   0.597 -0.4658  0.2516 -0.1129
 7640W        W27174   9.231   6.149   3.082 -0.2771 -0.1908  0.2715
 7641W        W27175  15.706  16.324  13.650 -0.0410  0.0788 -0.2994
 7642W        W27176   5.927  11.951   4.074 -0.0368  0.1144  0.0407
 7643W        W27177  14.307   3.372  11.714  0.1960  0.0481 -0.2774
 7644W        W27178   5.526  16.164   0.247 -0.4908 -0.4954 -0.2161
 7645W        W27179  12.234   7.888  14.070  0.1892 -0.1416 -0.0558
 7646W        W27180   3.280  15.426  13.208 -0.1587  0.0705  0.0838
 7647W        W27181  16.737  17.544  13.804  0.0293 -0.0433  0.3302
 7648W        W27182   8.613   3.401   0.359  0.2650  0.0126  0.1039
 7649W        W27183  16.056   9.950  15.763  0.5839  0.1605 -0.0670
 7650W        W27184  12.701  11.819   2.330 -0.1066 -0.0664  0.0701
 7651W        W27185   7.105  12.428  13.780 -0.0729 -0.4993 -0.0780
 7652W        W27186  14.963  14.324   5.365  0.0270  0.2848  0.1474
 7653W        W27187   9.885  12.952   0.623  0.0336 -0.2208 -0.0324
 7654W        W27188  17.767   8.739   1.015  0.0753  0.2939  0.0313
 7655W        W27189  13.786  14.575   2.623  0.0650 -0.0411  0.1760
 7656W        W27190   1.869   3.502  12.416 -0.1442 -0.0346 -0.0634
 7657W        W27191   3.200  11.319   2.507 -0.0884 -0.1521  0.1713
 7658W        W27192   4.485   3.104   1.791  0.0854  0.1832 -0.2848
 7659W        W27193   2.408   8.674  15.961 -0.0557 -0.0136  0.0303
 7660W        W27194  12.583  10.138  14.472 -0.0551 -0.1998  0.0183
 7661W        W27195   0.775  11.637   3.288 -0.1007 -0.4547 -0.0465
 7662W        W27196  10.779   4.011   3.492 -0.2540 -0.0084 -0.1490
 7663W        W27197   6.826   7.792  14.434 -0.0700 -0.1183  0.1338
 7664W        W27198  10.589   5.968  13.004  0.0846 -0.0857 -0.0211
 7665W        W27199  10.846  12.506  12.788 -0.0408 -0.2000  0.0534
 7666W        W27200  17.924  13.950   1.914  0.0735  0.0651  0.2357
 7667W        W27201  14.698  13.762  14.073 -0.2517 -0.3645  0.0611
 7668W        W27202  16.431  13.694  14.867 -0.0879  0.0064 -0.0805
 7669W        W27203   8.184   8.021  12.201  0.2795  0.0938  0.2779
 7670W        W27204   5.682   1.916   4.453  0.2610 -0.1644  0.0105
 7671W        W27205   5.382  13.033   3.439  0.0661 -0.0043  0.0490
 7672W        W27206   6.722   6.819   3.311  0.0134 -0.0841 -0.2217
 7673W        W27207  12.984  10.440  14.855 -0.1762  0.2923 -0.0595
 7674W        W27208  10.441  10.055  13.261 -0.2459 -0.0097 -0.0058
 7675W        W27209  17.795   0.584  15.246  0.0758  0.1494  0.0110
 7676W        W27210   2.779   9.373  13.102 -0.1299  0.0641 -0.0279
 7677W        W27211  15.346   0.583   2.672  0.0767  0.0685  0.0224
 7678W        W27212   2.942   8.674   0.688  0.2024  0.0308  0.1085
 7679W        W27213  18.031  17.280   4.003  0.0162  0.0843  0.4981
 7680W        W27214   1.145  15.956  12.204 -0.1616 -0.0071 -0.2606
 7681W        W27215  11.813   4.359  13.674  0.1428 -0.3561 -0.0885
 7682W        W27216   1.001   7.909   2.476  0.0097  0.2467  0.0927
 7683W        W27217  10.884   2.076   2.659  0.1837 -0.0960  0.0348
 7684W        W27218   6.383  17.947   1.248 -0.0071  0.2395  0.0490
 7685W        W27219   3.132   0.444  12.315 -0.2509  0.4374  0.0752
 7686W        W27220   9.937   6.937   3.920 -0.0044  0.1392  0.0104
 7687W        W27221   8.829   0.009   0.163 -0.3386  0.0828 -0.1073
 7688W        W27222  12.003   6.035  12.756  0.2440  0.0362 -0.2263
 7689W        W27223  14.335  16.003   4.067 -0.0651  0.1890  0.0065
 7690W        W27224  10.653   5.678  14.677 -0.1643 -0.4145 -0.2862
 7691W        W27225   8.779  13.299  13.630  0.0573 -0.0132 -0.3692
 7692W        W27226   5.977   9.145   0.521 -0.0196  0.2018  0.1249
 7693W        W27227   0.017  14.672  12.208 -0.2157  0.0425 -0.0094
 7694W        W27228   3.425   8.278   2.595  0.2903 -0.0799 -0.0471
 7695W        W27229   2.310   9.287  13.570 -0.0182  0.0181 -0.3063
 7696W        W27230   3.679  15.144   2.510  0.2363 -0.0594  0.0015
 7697W        W27231   5.495   6.417   4.187 -0.5848 -0.0081  0.1102
 7698W        W27232  16.045  12.787  10.652  0.0107 -0.3656 -0.0873
 7699W        W27233   5.199   2.719  12.860 -0.3197  0.0409  0.1839
 7700W        W27234  15.875   2.565   0.418  0.0439  0.2593  0.0619
 7701W        W27235   4.216   4.637   2.930 -0.0419 -0.2429 -0.1737
 7702W        W27236  15.829   4.289   1.040 -0.0886 -0.1255 -0.2106
 7703W        W27237  15.324   6.031  11.916  0.2642 -0.0543  0.0900
 7704W        W27238   4.656  17.575  14.282 -0.2155  0.3183  0.0200
 7705W        W27239   4.192   1.657  11.644 -0.0845 -0.1561  0.1059
 7706W        W27240   4.481   1.589   2.244 -0.0282 -0.2161 -0.0759
 7707W        W27241  14.081   6.648   3.410  0.1994 -0.0149 -0.0819
 7708W        W27242  16.557   7.185  12.456  0.2328 -0.3589  0.1645
 7709W        W27243  14.959  10.339   2.889  0.1833  0.0810  0.1846
 7710W        W27244   5.631   9.313  13.233 -0.0480 -0.1121 -0.5513
 7711W        W27245   0.625   0.719  13.218  0.1140 -0.1155 -0.0278
 7712W        W27246  16.207  11.376   2.763  0.2713 -0.2285 -0.1031
 7713W        W27247  13.199  15.992   1.010 -0.1030  0.1461 -0.2571
 7714W        W27248  14.570   7.760  15.418 -0.3042 -0.1948 -0.4042
 7715W        W27249   1.823   0.236   3.643  0.4513  0.1836 -0.0668
 7716W        W27250   8.390   0.485   1.005  0.3596  0.0786 -0.1723
 7717W        W27251   7.593   5.323   3.738 -0.2809  0.2528 -0.0653
 7718W        W27252   3.813   0.372   0.225  0.2474  0.0461  0.2679
 7719W        W27253  12.047   0.758  13.379 -0.0602 -0.3077 -0.2380
 7720W        W27254   7.435  17.120   3.145 -0.2189  0.0282  0.2167
 7721W        W27255  16.483  14.628  15.701 -0.2511  0.2469  0.0152
 7722W        W27256   1.543   6.488   1.148 -0.0708  0.0230 -0.0565
 7723W        W27257   0.656  18.083   4.029  0.1964  0.1528  0.2491
 7724W        W27258   8.919   9.371  14.039  0.0563 -0.0108 -0.3351
 7725W        W27259  11.312   8.352   2.271  0.1434 -0.1749 -0.2613
 7726W        W27260   8.310   5.125  10.138  0.2208 -0.0241  0.1470
 7727W        W27261   2.645   1.194   1.826  0.2332 -0.0878 -0.0191
 7728W        W27262   3.935  15.715   4.963 -0.1604 -0.0273 -0.0428
 7729W        W27263   7.210   5.216  14.818  0.0577 -0.2019  0.2283
 7730W        W27264   1.896   4.485  14.461  0.0813 -0.0172  0.2126
 7731W        W27265  14.001   5.341  15.890 -0.1259 -0.3223 -0.0291
 7732W        W27266  16.392   4.176   3.747 -0.0602  0.1155  0.1064
 7733W        W27267   4.213   2.118  12.167 -0.0047 -0.0034 -0.0836
 7734W        W27268   5.019   2.736   2.712  0.1130 -0.1665 -0.1367
 7735W        W27269   6.662  10.446   3.412  0.0681  0.2947  0.4067
 7736W        W27270   9.458  12.482   4.757  0.3510  0.0543  0.1249
 7737W        W27271  13.192  14.585  14.626 -0.0925 -0.4420 -0.2932
 7738W        W27272  10.885  12.965   0.429  0.0077  0.2724  0.1474
 7739W        W27273   8.846   9.177   0.406  0.1825  0.0649 -0.2985
 7740W        W27274  11.640  11.676  12.425 -0.2186 -0.0135  0.1985
 7741W        W27275   5.012  17.253  11.286 -0.1475  0.1088 -0.0018
 7742W        W27276   7.331   7.494   2.516 -0.1263  0.2582  0.4103
 7743W        W27277   1.350   1.465   2.103 -0.1378 -0.1565  0.2274
 7744W        W27278   9.088  14.722  12.824 -0.3675  0.0511 -0.1504
 7745W        W27279   8.863  16.464   3.281  0.2982  0.3096  0.2541
 7746W        W27280  13.415   6.572  14.211 -0.0739  0.1178  0.1609
 7747W        W27281  14.669  10.440  13.862  0.0960  0.0819 -0.4783
 7748W        W27282   2.202   3.390   2.345  0.2788 -0.4537 -0.0881
 7749W        W27283   5.134  13.810  12.864 -0.0600 -0.2095 -0.2450
 7750W        W27284  14.347   3.345   1.001 -0.0091 -0.0938  0.1353
 7751W        W27285  16.299  15.929  15.628  0.3023  0.0842 -0.3258
 7752W        W27286   2.667  14.532   1.683  0.3249 -0.1811 -0.0114
 7753W        W27287   2.650  13.098   4.368 -0.1212  0.2955 -0.1461
 7754W        W27288   4.439  10.369   3.150 -0.1685 -0.0679  0.2201
 7755W        W27289   6.897   3.036   2.563 -0.0838 -0.1241  0.1085
 7756W        W27290  16.383  12.980  15.284 -0.2887  0.0207  0.0924
 7757W        W27291   2.146   8.963  14.047 -0.0745 -0.0420  0.2191
 7758W        W27292   9.003   5.960  12.998  0.1568 -0.0190  0.0310
 7759W        W27293  13.974  16.323   4.231 -0.1915 -0.0721  0.0501
 7760W        W27294  12.049  15.343   4.456 -0.1888  0.1914 -0.0696
 7761W        W27295   5.458   2.085   4.010 -0.0425  0.0679  0.1024
 7762W        W27296   3.049   4.751   3.830  0.1499 -0.0950  0.1714
 7763W        W27297  12.737   2.422  14.547  0.0335 -0.1240  0.0388
 7764W        W27298   3.524   7.535   0.889 -0.0450 -0.0977 -0.1062
 7765W        W27299   8.026   8.558   2.467  0.0333 -0.4436 -0.1397
 7766W        W27300   0.626   6.968   3.600 -0.0414 -0.1321  0.3738
 7767W        W27301   4.048  14.802   2.425 -0.1697  0.0067 -0.3327
 7768W        W27302   1.354   8.110  14.068 -0.0426 -0.1135 -0.0894
 7769W        W27303  10.673   7.111   1.681 -0.1823  0.0338  0.0793
 7770W        W27304   6.796   3.498  11.788 -0.0793  0.0291  0.2181
 7771W        W27305   8.563  10.472  11.905  0.2510  0.0971  0.0569
 7772W        W27306  11.200  15.693   3.643 -0.1122  0.2165  0.2138
 7773W        W27307   7.155  11.733  13.077 -0.3165  0.1881  0.1542
 7774W        W27308  18.017   9.991   4.459 -0.2061  0.0334  0.0199
 7775W        W27309  13.639   8.177  14.287  0.0214  0.0841  0.1157
 7776W        W27310   2.166  15.273   3.739 -0.1673  0.0792  0.1084
 7777W        W27311   7.550   0.732   1.892  0.0470 -0.3142  0.1035
 7778W        W27312   1.048   6.446   3.043  0.1263  0.2179 -0.2277
 7779W        W27313   9.495   5.713  11.869  0.0015 -0.2764  0.0459
 7780W        W27314   1.482  12.370   1.288  0.1228 -0.0524 -0.0651
 7781W        W27315   6.705  14.102  15.557 -0.0232 -0.0432  0.3455
 7782W        W27316  17.022   3.117   0.170  0.0130  0.1472  0.2885
 7783W        W27317   0.628  14.796  13.966 -0.0012 -0.1144  0.3300
 7784W        W27318   3.916   0.505   3.773  0.4786 -0.0563  0.3942
 7785W        W27319   7.018  11.113   5.976  0.0433 -0.0239  0.2307
 7786W        W27320  17.394  16.810   3.157  0.0635 -0.2496  0.1774
 7787W        W27321   7.643   7.847   2.443  0.0004 -0.1797  0.0338
 7788W        W27322  14.837   3.526  14.338 -0.0029  0.3540 -0.2381
 7789W        W27323   9.059   2.578   3.105 -0.1480  0.1297 -0.0574
 7790W        W27324   5.477  17.519  14.892  0.1456 -0.1415 -0.0007
 7791W        W27325  13.197  16.359  14.450 -0.0372  0.0363 -0.0107
 7792W        W27326   4.055  15.445   2.524 -0.0392  0.1923 -0.1443
 7793W        W27327   7.365   9.771  14.236 -0.0770  0.0924  0.0373
 7794W        W27328  17.944  17.678   1.786 -0.3536 -0.2826 -0.1768
 7795W        W27329   6.735   6.492   1.728 -0.1038  0.3042  0.0151
 7796W        W27330   8.137  13.615  14.613  0.3256  0.2865  0.0243
 7797W        W27331   7.610  12.201   3.831 -0.0172  0.0586 -0.2377
 7798W        W27332  11.610   6.627  14.857  0.1003  0.0804  0.1481
 7799W        W27333   6.040   0.521   2.248  0.0054  0.0068 -0.0688
 7800W        W27334   5.751  10.814  14.482 -0.0626  0.1024  0.0924
 7801W        W27335   1.397  14.307   0.444  0.1011  0.3403 -0.1043
 7802W        W27336  13.970  11.112  14.239 -0.0575 -0.0456 -0.2249
 7803W        W27337   4.148   8.444   0.198  0.0716 -0.3099 -0.3808
 7804W        W27338  14.913   2.226   4.776 -0.0733  0.1477 -0.2085
 7805W        W27339  11.498  14.016   3.746  0.3560  0.1379 -0.0686
 7806W        W27340   0.897  10.079   0.848  0.1233 -0.0219 -0.1160
 7807W        W27341   9.259   9.934   3.049 -0.0928 -0.0662 -0.2795
 7808W        W27342   8.610   4.656   0.040 -0.0965 -0.2431  0.1966
 7809W        W27343   2.203  13.018   0.083 -0.0694  0.1043  0.0007
 7810W        W27344  13.361  15.585  10.255  0.1410  0.0788 -0.1695
 7811W        W27345  14.297  10.991  13.283 -0.1246 -0.1597  0.0286
 7812W        W27346  17.562   0.515   1.914  0.0560 -0.0362 -0.0584
 7813W        W27347   3.604  10.713   1.810  0.3156 -0.0120  0.0007
 7814W        W27348  15.631  10.928   3.049  0.0117 -0.2115 -0.2097
 7815W        W27349  11.783  13.187   4.430  0.0959 -0.0118  0.0071
 7816W        W27350  15.766  17.354  12.746 -0.1339  0.2236  0.0041
 7817W        W27351  15.593  11.242   0.405  0.1393  0.3332  0.1720
 7818W        W27352   9.766   6.268   3.154 -0.2860  0.0809  0.0684
 7819W        W27353   4.874  17.498   2.957  0.0299 -0.1311  0.2206
 7820W        W27354   6.151  11.389  13.225 -0.1028 -0.0856 -0.2332
 7821W        W27355  16.300   3.525  13.366 -0.1570 -0.1604 -0.1826
 7822W        W27356  15.589   9.662  15.450 -0.0850  0.1139 -0.0368
 7823W        W27357   9.949   2.751   4.589 -0.2273 -0.0125  0.0386
 7824W        W27358   9.221  11.449   2.942 -0.1012 -0.1397 -0.1851
 7825W        W27359  13.856  14.444  15.209 -0.1677  0.0821  0.2770
 7826W        W27360  10.829  16.269  11.800 -0.3726  0.1087 -0.0252
 7827W        W27361  10.609  13.672  11.278 -0.0722 -0.0616 -0.0925
 7828W        W27362  14.433  14.026  15.688  0.0084 -0.2865  0.3044
 7829W        W27363  17.160  12.879   4.534  0.1039 -0.7107 -0.0891
 7830W        W27364   8.677   9.562   1.930  0.0443  0.2831 -0.0890
 7831W        W27365  15.194   2.718  10.602  0.0604 -0.0604  0.1121
 7832W        W27366  14.191  12.926  12.995 -0.0362 -0.0042  0.0119
 7833W        W27367  11.951  12.974   1.218 -0.1032 -0.1914 -0.0506
 7834W        W27368   6.814  17.677  15.544  0.2275 -0.1943 -0.0536
 7835W        W27369  10.194   4.811   1.841 -0.1972  0.2498 -0.1937
 7836W        W27370  15.510  12.341   3.050 -0.0315 -0.2853  0.1449
 7837W        W27371   4.255  17.712   3.528 -0.1066 -0.2256  0.2532
 7838W        W27372   4.654  10.862  12.640 -0.0144 -0.1579 -0.3896
 7839W        W27373   3.860   9.293  11.192 -0.1315 -0.0619  0.1727
 7840W        W27374  11.800  17.593  15.594 -0.0493  0.3008 -0.0075
 7841W        W27375   6.374   7.677   3.047  0.0061  0.2510 -0.1063
 7842W        W27376   5.387   4.140   3.563  0.1419  0.1382  0.3770
 7843W        W27377   3.088  15.950  13.214  0.2761 -0.0684 -0.0594
 7844W        W27378   3.634  15.793  15.589 -0.0149  0.1271 -0.0150
 7845W        W27379  12.500   8.243   3.517 -0.2467 -0.0688 -0.1339
 7846W        W27380   9.289   2.307  11.144 -0.2385  0.2550  0.0990
 7847W        W27381   5.590  17.883  14.257  0.4285  0.0395 -0.2626
 7848W        W27382   6.128  16.278  14.116 -0.2675  0.1388  0.1241
 7849W        W27383  10.813  15.241  14.201 -0.1225 -0.1616 -0.0159
 7850W        W27384  11.352   7.777   2.218 -0.0491 -0.0126  0.0128
 7851W        W27385   8.964   1.765   4.653 -0.2232  0.1806 -0.0557
 7852W        W27386  12.263  16.979   1.737 -0.0771  0.0420 -0.1439
 7853W        W27387  12.351   6.806   0.238 -0.0292 -0.1765  0.0774
 7854W        W27388  17.193   7.035   1.754  0.0435  0.0481  0.2383
 7855W        W27389  14.109  17.038   2.174  0.1647  0.1023 -0.1981
 7856W        W27390  13.873   6.695   4.464  0.0743  0.2331 -0.0270
 7857W        W27391   6.087  15.131   2.755 -0.3925 -0.1402  0.3435
 7858W        W27392   9.273  15.414  15.253  0.1267  0.0318 -0.1091
 7859W        W27393  18.136   4.773  15.208  0.0667  0.0871 -0.0735
 7860W        W27394   8.453   4.921  13.415  0.2603  0.0521 -0.2153
 7861W        W27395   9.919   5.270   4.658 -0.1612  0.1671  0.1589
 7862W        W27396  15.688   8.892   3.708 -0.0671  0.1488 -0.0267
 7863W        W27397   1.378   0.888  12.722  0.0165 -0.0188 -0.0377
 7864W        W27398   8.420  10.513  10.659  0.0753 -0.0228 -0.2822
 7865W        W27399  12.331  11.523  14.582 -0.1340 -0.0883  0.0558
 7866W        W27400   0.350   2.148  15.174  0.1248  0.0953  0.3027
 7867W        W27401  11.383  11.622  12.862  0.0930 -0.2618  0.4134
 7868W        W27402  11.651  16.616  12.050  0.3379 -0.0696  0.1670
 7869W        W27403  10.836  15.963  12.289 -0.1335 -0.1217  0.0970
 7870W        W27404  11.936   6.506  16.050 -0.1496 -0.0749  0.1481
 7871W        W27405   4.888   4.910  12.803  0.4322 -0.0329 -0.0773
 7872W        W27406  13.474   0.974   2.849 -0.0282 -0.0363  0.1550
 7873W        W27407   1.710   1.888  11.809 -0.0916 -0.0590  0.0924
 7874W        W27408  15.176  16.288   4.923  0.2808  0.1343 -0.0138
 7875W        W27409   6.665  11.230   3.378 -0.0602  0.0076  0.2596
 7876W        W27410   1.991   3.366  16.049  0.2665  0.0837  0.0244
 7877W        W27411   7.301  14.377  12.617 -0.1565 -0.0540 -0.0039
 7878W        W27412   1.018   9.734  13.221  0.0138  0.0731  0.0655
 7879W        W27413   0.620  12.704   0.658 -0.0250  0.0877  0.1080
 7880W        W27414   3.929  15.012  10.894  0.0405 -0.4289  0.1417
 7881W        W27415   3.244  11.055   1.605  0.0473  0.1710 -0.0766
 7882W        W27416  16.427   8.144  12.784  0.0858  0.3381 -0.0906
 7883W        W27417   9.964   4.401   1.777  0.1436 -0.0785  0.0540
 7884W        W27418   0.082   2.911   1.556  0.0739 -0.1750 -0.2079
 7885W        W27419   3.972  13.052  11.282 -0.0776  0.0431 -0.2258
 7886W        W27420  11.646   8.669   4.822  0.1231 -0.2586 -0.1363
 7887W        W27421  15.869   2.260   4.420  0.2909  0.2343 -0.1205
 7888W        W27422   2.905   4.027  11.820  0.2041 -0.0638 -0.0255
 7889W        W27423   0.611   1.424  12.991 -0.0280  0.0498 -0.2044
 7890W        W27424   1.743  15.000   4.422 -0.0374  0.0386 -0.1169
 7891W        W27425   6.931  10.320   1.837 -0.1977 -0.0480 -0.1473
 7892W        W27426   1.076   5.883   0.491 -0.1347  0.0034 -0.3969
 7893W        W27427  15.680  17.698  13.201 -0.0226  0.0798 -0.0224
 7894W        W27428   5.180   6.750   3.613 -0.3077 -0.2195  0.1297
 7895W        W27429  11.790   3.869   0.448 -0.0028 -0.2419  0.1715
 7896W        W27430   3.886  11.643  11.813 -0.2239 -0.2267  0.0952
 7897W        W27431   9.910  11.361   3.886 -0.0376  0.1919  0.1236
 7898W        W27432   3.314  12.344   0.823  0.3921 -0.0562  0.1208
 7899W        W27433   4.510   3.495  11.152  0.2451 -0.1038 -0.3003
 7900W        W27434  13.346   5.147   4.040 -0.0086 -0.1362  0.0848
 7901W        W27435   2.566  14.649  14.393  0.0341  0.0696  0.4001
 7902W        W27436   5.917   5.691   0.466 -0.1393 -0.0864 -0.1612
 7903W        W27437  16.780  12.587   1.517  0.3568  0.2906  0.4734
 7904W        W27438  12.329   1.588   0.849  0.0973 -0.1329  0.0921
 7905W        W27439  12.627   2.853  15.434 -0.3551 -0.2647  0.0643
 7906W        W27440  13.464  11.684   3.365 -0.3732  0.0014  0.1015
 7907W        W27441  14.746   0.436   0.130  0.1774 -0.0534 -0.3412
 7908W        W27442  15.328  11.215  13.217  0.1512  0.2658  0.1194
 7909W        W27443  12.991   5.016   4.378  0.2575 -0.0775  0.0052
 7910W        W27444   6.520   1.541   3.270  0.0051  0.1406 -0.0138
 7911W        W27445   0.935   5.579  12.352  0.3496 -0.0448  0.1642
 7912W        W27446  12.888  17.197  12.927 -0.2428  0.2056 -0.0404
 7913W        W27447   9.156  17.448  11.293 -0.0694 -0.0056 -0.1594
 7914W        W27448   6.437   4.884   2.603 -0.1677 -0.0222 -0.0195
 7915W        W27449   0.842  17.834   1.768  0.4209  0.0648 -0.2033
 7916W        W27450  16.295  13.310   2.007  0.0039 -0.0296  0.1422
 7917W        W27451   5.538  16.287   2.926 -0.0245 -0.0961 -0.0809
 7918W        W27452   6.425  14.731   2.115  0.0054 -0.1128  0.1229
 7919W        W27453   4.386   6.771  12.266  0.1073 -0.0001  0.1024
 7920W        W27454   8.244  12.379   2.825 -0.0773  0.3611  0.2721
 7921W        W27455   9.055  11.666  14.612  0.1576 -0.2173 -0.1751
 7922W        W27456   0.372  15.497  12.537 -0.1010 -0.0712 -0.0853
 7923W        W27457  11.971   9.893   4.085 -0.1922  0.2076 -0.2695
 7924W        W27458   7.283  12.197  14.627  0.2138 -0.1543 -0.0455
 7925W        W27459  13.577   7.332  16.028  0.2203  0.1091 -0.0936
 7926W        W27460  13.882  12.207  11.707 -0.0962  0.0775  0.2030
 7927W        W27461  12.401   2.387   0.367 -0.0704  0.0996  0.3728
 7928W        W27462   2.044  15.515   1.860 -0.1410  0.3124  0.2037
 7929W        W27463   3.741   4.949  13.821 -0.0979 -0.1410  0.0041
 7930W        W27464   0.005  12.548  13.329  0.1380  0.3073  0.0703
 7931W        W27465  11.948  12.022   1.579 -0.3032  0.0623 -0.0285
 7932W        W27466   1.551  10.555  15.012 -0.3658  0.2171 -0.1476
 7933W        W27467  10.651  17.483  12.665 -0.3148  0.0866  0.1544
 7934W        W27468   9.292   5.095   2.649  0.1539  0.0905  0.0334
 7935W        W27469   0.756   9.389  11.208  0.3975  0.2939  0.1612
 7936W        W27470   4.284   1.971   0.787  0.1738  0.2169  0.2710
 7937W        W27471  17.604  17.673  11.968 -0.0834 -0.1822  0.0757
 7938W        W27472  15.387  11.975   4.204 -0.2359 -0.0333  0.0613
 7939W        W27473  12.171   1.955   2.048 -0.1156  0.0171  0.1925
 7940W        W27474   9.595  14.720   0.827  0.1341 -0.3745 -0.0008
 7941W        W27475   1.688   4.072  13.104 -0.1104  0.0161 -0.2015
 7942W        W27476  10.916  18.059   3.046  0.0478  0.1417  0.1767
 7943W        W27477  12.695   8.411   3.996  0.1309  0.3616  0.3901
 7944W        W27478  11.387  18.034   0.069  0.2548 -0.1359 -0.1035
 7945W        W27479   3.076   8.187  11.661 -0.0591 -0.1678 -0.0323
 7946W        W27480  17.390   4.229   0.225 -0.1276 -0.0861 -0.0246
 7947W        W27481   3.257  11.585  15.822 -0.0887  0.1908 -0.0822
 7948W        W27482  13.398   2.722  11.632  0.1190  0.1075  0.2218
 7949W        W27483   0.613   4.500  11.718  0.1848  0.1113  0.0500
 7950W        W27484  13.425   0.896   4.899  0.1693  0.3658 -0.0371
 7951W        W27485   2.064  12.315  14.268 -0.1696 -0.0154  0.1395
 7952W        W27486  11.864  15.247   2.998 -0.0392 -0.1025  0.3775
 7953W        W27487   9.647  11.677  13.557 -0.1327 -0.0342 -0.0034
 7954W        W27488   3.988  16.138  12.020  0.1715  0.0817 -0.0712
 7955W        W27489  16.803  14.914   2.343  0.0210 -0.0375  0.2085
 7956W        W27490  11.895  17.788   3.705 -0.0354  0.0853 -0.1962
 7957W        W27491  13.134   7.630   1.873  0.0043  0.0831 -0.1386
 7958W        W27492   8.100   3.537   0.410  0.1024 -0.1756  0.3613
 7959W        W27493  15.360  16.113  15.503  0.0761 -0.0278 -0.2010
 7960W        W27494   0.359  14.207  15.614 -0.2459 -0.2359 -0.1110
 7961W        W27495   8.076  12.312  12.431  0.1207  0.2176 -0.0968
 7962W        W27496   4.301  12.350  13.389  0.0058 -0.0832 -0.0602
 7963W        W27497   6.354  10.941  12.710 -0.0210  0.0854  0.1725
 7964W        W27498   9.674  15.419  15.555  0.2864 -0.0174 -0.0796
 7965W        W27499  17.505  12.652  15.767 -0.3010 -0.1197 -0.0251
 7966W        W27500  14.158   6.811  14.535  0.0285 -0.2139 -0.1018
 7967W        W27501   4.060  16.026   4.506 -0.1507 -0.0320  0.0660
 7968W        W27502  16.055  15.479   4.644 -0.1393  0.1235  0.2450
 7969W        W27503  16.957   0.796   2.866 -0.1255 -0.2785 -0.2283
 7970W        W27504   2.483   3.784  15.548  0.3149  0.3711  0.0418
 7971W        W27505   3.303   7.393   2.813 -0.0254  0.0947 -0.3392
 7972W        W27506  10.333   6.109   2.413  0.1161  0.0267  0.1552
 7973W        W27507  16.719   1.445   0.846  0.0198  0.0702 -0.2673
 7974W        W27508  12.297   5.254   0.444  0.2029  0.0851  0.2044
 7975W        W27509   9.362  10.340  10.919 -0.3090  0.0262 -0.0105
 7976W        W27510   9.753   6.407   0.911  0.2053 -0.0058  0.1138
 7977W        W27511   6.670   6.516  14.183  0.1068  0.1655  0.1397
 7978W        W27512   1.824   5.762  11.970 -0.3238  0.1256 -0.2476
 7979W        W27513   2.846  12.637  12.878 -0.2419 -0.0920  0.1938
 7980W        W27514   5.533   9.788   4.816 -0.2197 -0.3787 -0.0387
 7981W        W27515  11.782  13.909   1.946 -0.0371 -0.0981 -0.0602
 7982W        W27516  15.309   6.276   3.585 -0.0758 -0.1672  0.0136
 7983W        W27517  14.445   6.386   2.066  0.0693  0.0626  0.1734
 7984W        W27518  17.509  11.926  13.607 -0.1464  0.1090  0.0728
 7985W        W27519  12.828  18.007  11.483 -0.0986  0.0528 -0.1218
 7986W        W27520   7.485  13.550  14.276 -0.0506  0.3213 -0.0753
 7987W        W27521  12.629   3.566   4.832  0.1043 -0.3001  0.1491
 7988W        W27522  13.001  13.316  11.457 -0.0010  0.1428  0.0939
 7989W        W27523  10.522   7.181  14.192 -0.0829 -0.0825 -0.0305
 7990W        W27524   2.815  10.310   4.372  0.0200  0.0987 -0.1092
 7991W        W27525   1.162   3.386  13.218 -0.1583 -0.2102 -0.0465
 7992W        W27526  16.833  11.784  12.495 -0.2559  0.1918 -0.0099
 7993W        W27527   5.811  12.467   4.026 -0.0837 -0.1833  0.0572
 7994W        W27528   5.632  16.637   4.382 -0.0195  0.0653  0.2016
 7995W        W27529   6.720  13.204   2.355  0.2806 -0.2666 -0.0873
 7996W        W27530  17.866   7.455  13.033 -0.0589 -0.1061  0.2223
 7997W        W27531   9.426   2.694   3.835 -0.0222 -0.1601 -0.1283
 7998W        W27532   4.585   2.069  12.484 -0.0580  0.1566  0.1589
 7999W        W27533  17.990  13.420   1.810  0.2835 -0.1195 -0.0635
 8000W        W27534   1.288   3.930   3.619 -0.2397  0.1305  0.0733
 8001W        W27535  15.365  16.482   1.590  0.0422  0.0363 -0.0471
 8002W        W27536  14.976  12.027   4.384 -0.2101  0.3237  0.1067
 8003W        W27537  12.079  13.088   0.739  0.1430  0.0104 -0.2113
 8004W        W27538   7.983   7.718  12.687  0.0295  0.2389  0.2986
 8005W        W27539   0.016   3.350  12.305  0.2135 -0.1708  0.1696
 8006W        W27540  10.943   5.895  13.530  0.3419 -0.0557 -0.1201
 8007W        W27541   8.194   5.468  11.391  0.0675 -0.1100 -0.0135
 8008W        W27542   5.704   0.466   2.579  0.2056 -0.1371  0.0466
 8009W        W27543  15.324  17.587  12.871  0.1898  0.1449 -0.2302
 8010W        W27544  12.034   0.112  15.499  0.1396 -0.2923  0.1313
 8011W        W27545   9.114   1.542   1.011 -0.2911 -0.1564  0.1978
 8012W        W27546  17.915   5.907   3.112 -0.4598 -0.1911 -0.2896
 8013W        W27547  15.193  15.944  12.526 -0.2416 -0.2643 -0.0335
 8014W        W27548  11.225  12.502  14.158 -0.1416 -0.0137  0.0596
 8015W        W27549   4.817   0.401  14.296 -0.0095  0.2190 -0.2064
 8016W        W27550   1.481  11.172  13.343 -0.1433 -0.0909  0.0259
 8017W        W27551   1.483  18.155   1.200  0.2429 -0.2032  0.1016
 8018W        W27552   6.720  15.659   2.281 -0.2187  0.0922 -0.5357
 8019W        W27553  17.296   4.798  10.881  0.0923  0.0340 -0.0764
 8020W        W27554   5.782   2.261  10.368 -0.1037  0.0502  0.0399
 8021W        W27555   1.198  14.499  13.045  0.1304  0.1381 -0.0560
 8022W        W27556   9.880  13.877  13.710 -0.0911  0.0911 -0.0245
 8023W        W27557  14.600  11.941  15.183 -0.0038 -0.1567 -0.1232
 8024W        W27558   4.375   1.427  12.928  0.0890  0.2104 -0.1451
 8025W        W27559   4.905   2.822   1.664  0.2102  0.0243  0.1496
 8026W        W27560   6.522   8.636  15.988  0.1428 -0.1828  0.1692
 8027W        W27561   3.580   5.738  12.194 -0.0695 -0.0471  0.0407
 8028W        W27562  10.595   6.127   0.156 -0.0580  0.0025  0.0178
 8029W        W27563   2.682   6.340  13.330 -0.0901  0.1317 -0.1368
 8030W        W27564  13.463  15.289   2.263  0.0759  0.2485  0.0568
 8031W        W27565  13.701  13.850  15.076 -0.2705  0.0892 -0.0195
 8032W        W27566  10.077  10.160  14.119 -0.2846  0.0248  0.0962
 8033W        W27567  11.039  10.031  15.577  0.1872  0.2216  0.1054
 8034W        W27568   2.609   2.629   2.319 -0.1003  0.0116 -0.3088
 8035W        W27569   9.531   1.541  13.937  0.0950 -0.1547  0.0647
 8036W        W27570  14.421  12.665   1.369 -0.2384  0.2280 -0.3327
 8037W        W27571   0.785   2.031  15.441 -0.0526  0.0697 -0.0093
 8038W        W27572  13.281  16.665   5.081  0.2250 -0.0107 -0.0780
 8039W        W27573  17.488   3.813   0.930  0.0992  0.0648  0.1559
 8040W        W27574   9.959  11.803   1.727  0.0667  0.2536  0.0891
 8041W        W27575   4.468   5.653  13.716  0.1829 -0.1030  0.0627
 8042W        W27576   1.163   4.538  13.884  0.1087  0.0535 -0.2734
 8043W        W27577   8.266   5.289   4.611 -0.1464  0.0465  0.0181
 8044W        W27578   7.765  12.097   1.336 -0.0402 -0.0345 -0.0357
 8045W        W27579   8.732   2.185  14.077 -0.0416 -0.1216  0.1946
 8046W        W27580   3.848  11.792  10.423 -0.0469  0.0191 -0.1174
 8047W        W27581  14.599   2.673   3.309 -0.2077 -0.1036 -0.2450
 8048W        W27582   4.588  12.102  13.769  0.1939 -0.1569  0.2709
 8049W        W27583  17.513  14.811  14.202  0.0891 -0.0143  0.1194
 8050W        W27584  15.590  15.412   1.055 -0.2700  0.2439  0.0013
 8051W        W27585   9.753  12.650   3.114 -0.4229  0.0240  0.2157
 8052W        W27586  14.004  14.131  13.539 -0.0997  0.1064 -0.1037
 8053W        W27587  12.927   0.058  14.445  0.0021  0.2476  0.1840
 8054W        W27588   2.834   0.205  11.444 -0.1270  0.0528  0.2708
 8055W        W27589  16.970   8.803  14.609  0.1525 -0.1867 -0.0088
 8056W        W27590   6.019   9.092   1.350  0.0289  0.0638 -0.0270
 8057W        W27591   4.523   3.395  12.952 -0.2611  0.0697  0.0428
 8058W        W27592   5.272   6.989   0.346  0.3664 -0.1324 -0.0871
 8059W        W27593   4.083   5.976   4.143 -0.0723 -0.0284  0.0150
 8060W        W27594  10.382  18.117   4.372  0.0414  0.0231  0.0773
 8061W        W27595   3.719  16.012  11.132 -0.2068 -0.0677 -0.1304
 8062W        W27596   8.995  17.059  12.499 -0.0260 -0.1143  0.0232
 8063W        W27597   9.622   2.886   0.999 -0.2599 -0.1866 -0.0346
 8064W        W27598  17.262  14.332  14.059  0.0980 -0.2095 -0.2461
 8065W        W27599  15.086  12.984   4.257  0.3090 -0.2765  0.1561
 8066W        W27600  11.281   0.116   2.366 -0.0182 -0.0328 -0.2950
 8067W        W27601  15.763  12.116   3.452  0.1669  0.1138 -0.1694
 8068W        W27602  16.508   7.861   0.337 -0.3054  0.1051  0.2866
 8069W        W27603   6.488   2.549   5.292 -0.0920 -0.0767  0.0235
 8070W        W27604   0.135   1.736  11.503  0.0154 -0.1278  0.0777
 8071W        W27605   1.629   3.871   3.982 -0.0005 -0.0852 -0.0125
 8072W        W27606   4.075   6.951   2.041  0.0493 -0.0243  0.0425
 8073W        W27607   3.176  12.912   1.989  0.2352 -0.1274  0.0309
 8074W        W27608   6.472  14.775   0.134  0.3465 -0.2595  0.1847
 8075W        W27609   5.073   6.900  15.890 -0.0180  0.0005 -0.0160
 8076W        W27610   2.304  15.697  11.734  0.2946  0.3507  0.1124
 8077W        W27611   7.053   7.141   2.096  0.0538 -0.1798  0.2060
 8078W        W27612   1.069  12.871  14.989 -0.1755  0.4041  0.1919
 8079W        W27613  12.744  10.657  12.127  0.1527 -0.0452 -0.0550
 8080W        W27614   4.027   7.682  13.865  0.0937  0.0838  0.3689
 8081W        W27615   1.271   8.141  13.496  0.2638  0.2397 -0.0070
 8082W        W27616  11.500   0.224   0.469 -0.0910  0.3891  0.0670
 8083W        W27617   4.899  16.960   3.923 -0.0869  0.0351 -0.3948
 8084W        W27618   2.149   4.368  13.076 -0.4060  0.4899 -0.1488
 8085W        W27619   3.859   3.760   3.473  0.1175 -0.0444  0.1387
 8086W        W27620   1.543  17.263  12.347  0.1803 -0.1585 -0.0436
 8087W        W27621   1.527   4.979  11.840  0.1874 -0.2472 -0.0554
 8088W        W27622  16.889  15.779   1.131 -0.1624  0.2577  0.0796
 8089W        W27623   3.842   0.675  15.726 -0.0348  0.3683  0.3642
 8090W        W27624  15.699   4.102  13.814  0.1462  0.1277  0.2340
 8091W        W27625   0.850   2.563   2.475 -0.2201  0.0839 -0.1619
 8092W        W27626  10.937   7.988   2.988 -0.1426  0.1873  0.1957
 8093W        W27627   4.365  15.147   2.148  0.0818 -0.4169  0.1702
 8094W        W27628  15.275   3.562  15.617 -0.1770  0.0927  0.3668
 8095W        W27629   3.837   6.768  13.515 -0.3509 -0.3585 -0.0317
 8096W        W27630   8.510   6.640   2.905  0.5223 -0.1182  0.1854
 8097W        W27631   6.206  10.902  14.158  0.1297  0.1581  0.0087
 8098W        W27632   6.560   7.419  11.531 -0.2760  0.2660 -0.0460
 8099W        W27633   5.723   0.057   2.889 -0.0515  0.0543 -0.1875
 8100W        W27634  14.051   5.065  13.308  0.2616 -0.0130  0.0767
 8101W        W27635  10.634  10.020  14.929  0.0511 -0.0520  0.0417
 8102W        W27636   4.860   3.144  11.233 -0.2880 -0.2447  0.0406
 8103W        W27637   9.539   8.443  14.030 -0.1538 -0.0163 -0.2176
 8104W        W27638   9.911  11.599  13.989  0.0353  0.1155  0.1329
 8105W        W27639  16.822   0.659  12.977 -0.0972 -0.2592  0.2403
 8106W        W27640   5.945   2.816  13.172 -0.0998 -0.1489  0.2128
 8107W        W27641  17.013   7.613  15.162  0.0516  0.3651 -0.3073
 8108W        W27642   6.786  15.981   4.383 -0.3878 -0.1319 -0.0640
 8109W        W27643  12.832   1.258  10.720 -0.0448 -0.1358 -0.3084
 8110W        W27644  13.383  14.657   2.909  0.0372 -0.1007  0.1645
 8111W        W27645  11.074  11.157   1.621 -0.1044 -0.1919 -0.2409
 8112W        W27646   4.487   8.797  13.042 -0.2449 -0.2965  0.0054
 8113W        W27647   1.958  12.743  13.013 -0.0715  0.0748 -0.2021
 8114W        W27648   4.926   3.935   2.120  0.1598 -0.0343  0.0450
 8115W        W27649   8.690  16.346  12.037 -0.1428  0.1344  0.0320
 8116W        W27650  13.551   0.634   3.730  0.2848 -0.1737  0.0602
 8117W        W27651   4.860   8.629  15.500  0.2396  0.0066  0.0447
 8118W        W27652   7.222  11.097  13.871 -0.0821 -0.0992  0.1593
 8119W        W27653  13.327  17.428  10.727 -0.1997 -0.3202  0.3310
 8120W        W27654   6.671  15.089  12.765 -0.0590  0.0745  0.2534
 8121W        W27655   3.299   1.301  12.577  0.0331 -0.1689 -0.1778
 8122W        W27656  12.730  15.198   1.087  0.0824 -0.1006 -0.0179
 8123W        W27657   2.690   8.764  15.047 -0.2161 -0.0697  0.1520
 8124W        W27658  10.301  15.731  12.360 -0.2664  0.0077 -0.0403
 8125W        W27659  16.509   9.151  12.136 -0.1428 -0.1677 -0.1169
 8126W        W27660   3.004   0.848   0.420 -0.1228  0.1827 -0.1232
 8127W        W27661  18.042   9.092  13.754 -0.0497 -0.3756 -0.0017
 8128W        W27662   6.892   4.257  14.180  0.2116  0.3344 -0.1973
 8129W        W27663   0.713  15.363  12.174 -0.0940 -0.1358 -0.2367
 8130W        W27664  14.756   9.242  11.979 -0.1786  0.1263  0.2114
 8131W        W27665   9.142   1.497   0.431 -0.2932  0.1457  0.0953
 8132W        W27666   3.141  15.287  14.729 -0.1977  0.2925 -0.0068
 8133W        W27667  16.403  12.012  15.672 -0.1460  0.0795  0.0929
 8134W        W27668  14.866  17.572   3.953  0.0662  0.0098 -0.0785
 8135W        W27669  16.740   6.038  15.930  0.1293  0.0191  0.1510
 8136W        W27670  18.082  18.056  14.111 -0.0971  0.1411  0.1431
 8137W        W27671  16.003   2.667  11.879 -0.1059 -0.2073  0.1357
 8138W        W27672  13.538  16.141   0.648  0.0051  0.0032  0.2609
 8139W        W27673  14.491  11.529   1.502 -0.0083 -0.0679  0.1325
 8140W        W27674  10.767   8.959  15.635  0.0552  0.0585 -0.1271
 8141W        W27675  11.270   4.553  12.455 -0.4216  0.2884 -0.1742
 8142W        W27676  10.990  17.913  15.763 -0.0105 -0.1105  0.0309
 8143W        W27677  12.356   5.902   2.396  0.1935 -0.0457  0.5424
 8144W        W27678   7.346  15.403   0.686  0.1964 -0.0337 -0.1781
 8145W        W27679  10.654  15.213  14.718  0.2061 -0.1587 -0.0666
 8146W        W27680  14.708  17.885   2.171 -0.0218 -0.1004 -0.0635
 8147W        W27681   8.850   0.107  11.943  0.0941 -0.2541 -0.0451
 8148W        W27682  11.971  16.174  13.662 -0.3137  0.2790 -0.1240
 8149W        W27683   1.286  17.296  11.694  0.5159 -0.0530 -0.2697
 8150W        W27684  16.679   5.511   1.946 -0.0925 -0.0141 -0.0114
 8151W        W27685   3.381   4.222  13.251 -0.1199  0.0469  0.2294
 8152W        W27686   6.709   7.881   0.948 -0.1356  0.1783  0.0308
 8153W        W27687   3.465  11.093  11.383 -0.1226  0.2033 -0.1307
 8154W        W27688  12.914  17.306   1.853  0.2859 -0.0296 -0.0927
 8155W        W27689  16.057   4.982   5.125  0.2337  0.0279  0.2084
 8156W        W27690   7.040  17.753   3.109 -0.1448 -0.3102  0.0984
 8157W        W27691   4.617   4.593  14.075 -0.1723 -0.0205 -0.1758
 8158W        W27692  10.178  17.268  15.169  0.0818 -0.0124 -0.0199
 8159W        W27693   6.560   5.890   3.314  0.0596 -0.6184 -0.0497
 8160W        W27694   7.236   6.455  14.034  0.0370  0.1701 -0.1444
 8161W        W27695   1.794   8.365  12.356  0.0512 -0.0565 -0.1049
 8162W        W27696  17.311   8.539   3.906  0.1000 -0.0614  0.3199
 8163W        W27697  17.428   8.282  16.049  0.0524  0.1911  0.1581
 8164W        W27698  15.590   1.722   0.607 -0.1356 -0.1474  0.0245
 8165W        W27699  10.234  16.949  14.767 -0.1177 -0.0413 -0.1746
 8166W        W27700   3.607   0.571   2.425  0.0575  0.1546 -0.0373
 8167W        W27701  17.821   9.776   3.456 -0.1161  0.1761  0.0445
 8168W        W27702  17.444  11.388   1.153 -0.3121  0.0814  0.0376
 8169W        W27703  15.688   2.624  16.028 -0.0948  0.2384  0.1199
 8170W        W27704  15.042   7.146  12.927 -0.1282  0.0966 -0.2200
 8171W        W27705  18.179   2.856  13.476  0.0502 -0.1686 -0.1567
 8172W        W27706  14.133   1.283   2.251  0.1104 -0.0318  0.0513
 8173W        W27707  17.136  17.576   3.831  0.1259 -0.3338  0.1701
 8174W        W27708   8.015  13.399   1.823  0.0455  0.4406 -0.1386
 8175W        W27709   3.386  10.739   4.146 -0.0258 -0.2628  0.3850
 8176W        W27710  10.759  16.282  15.824  0.0958 -0.1354  0.1192
 8177W        W27711   1.058   1.642  11.439  0.1177 -0.0836 -0.1154
 8178W        W27712  15.348   8.468   2.082  0.1373 -0.3137 -0.1926
 8179W        W27713  15.257   7.994  14.185 -0.0408  0.0167  0.0862
 8180W        W27714   5.204  14.364   0.047  0.1421 -0.2969  0.3921
 8181W        W27715   6.658  16.385  13.164  0.0874 -0.0625 -0.1256
 8182W        W27716  16.243  10.223   3.433 -0.1383 -0.1000  0.2406
 8183W        W27717  11.616   8.185   3.122 -0.0459 -0.1452 -0.1930
 8184W        W27718  14.687   8.473   2.770 -0.1680  0.1457  0.3691
 8185W        W27719  17.082   3.733  13.520 -0.0561 -0.4998  0.4228
 8186W        W27720   4.723   9.636   4.185  0.1464  0.1589 -0.0275
 8187W        W27721  16.792  17.058  12.124  0.1648  0.0453  0.1749
 8188W        W27722   2.652   7.419   0.916 -0.1839 -0.0722 -0.0081
 8189W        W27723  15.355   3.414  13.594  0.1001 -0.0274 -0.1382
 8190W        W27724  16.087  12.836   1.295  0.2203  0.0201 -0.2361
 8191W        W27725   6.012   7.283   3.696 -0.1687 -0.0937  0.0463
 8192W        W27726   5.345   5.354   0.133 -0.1415 -0.0989  0.3205
 8193W        W27727  14.862   0.998  13.878 -0.0783 -0.1301 -0.1213
 8194W        W27728   1.008   3.527   3.562 -0.1037 -0.0028  0.3726
 8195W        W27729   1.551   5.577  13.598  0.0439  0.0390 -0.0708
 8196W        W27730   3.291   2.868  11.823  0.0539 -0.1907 -0.2018
 8197W        W27731   5.883  12.582  14.204  0.1813  0.1496  0.1622
 8198W        W27732   2.561   8.550   0.362 -0.4463  0.0605  0.0127
 8199W        W27733   5.381   3.154  13.094 -0.0090 -0.0245 -0.0994
 8200W        W27734  17.103  17.065   3.506  0.0023 -0.2912  0.2138
 8201W        W27735  11.093   3.037   3.889 -0.0005  0.3583 -0.0896
 8202W        W27736  15.852   2.773   4.182  0.0093 -0.0028  0.2540
 8203W        W27737   9.945  17.589   1.957 -0.1314  0.0830 -0.1445
 8204W        W27738   4.531  12.338  11.606  0.0891  0.0019 -0.1712
 8205W        W27739  13.808  17.580   0.278 -0.0126 -0.2533 -0.1209
 8206W        W27740   8.137  11.477  14.999  0.3003  0.3386  0.1519
 8207W        W27741   0.389  10.383   0.893 -0.2021 -0.0068 -0.2936
 8208W        W27742  15.385   2.317  14.445 -0.2144  0.3178  0.0945
 8209W        W27743   6.316   6.420   2.178 -0.2249  0.0087 -0.3541
 8210W        W27744  15.692  15.217  15.724  0.0202 -0.0591 -0.0617
 8211W        W27745   1.855  14.880   1.154 -0.0954 -0.0803 -0.1007
 8212W        W27746   6.399   5.110   0.197  0.2027 -0.2312 -0.2218
 8213W        W27747   6.363  11.820   3.375  0.0161 -0.1771 -0.2218
 8214W        W27748  14.169   0.128   1.390 -0.0014 -0.0364  0.1014
 8215W        W27749  12.033  13.241   3.789 -0.0446 -0.1211 -0.1098
 8216W        W27750  11.443   1.851   1.010  0.0067 -0.2246 -0.1441
 8217W        W27751   6.767  15.163  15.443  0.1254  0.1452 -0.1563
 8218W        W27752  15.195  17.816   2.676 -0.1340  0.0135 -0.0443
 8219W        W27753   9.429   5.067  11.511 -0.0952  0.0436 -0.0537
 8220W        W27754  16.505   3.105   3.734  0.0855  0.0897  0.0764
 8221W        W27755   8.464   7.961  12.596  0.0016  0.0942 -0.0865
 8222W        W27756  13.337   6.563  12.797  0.0706 -0.2725  0.2060
 8223W        W27757   6.955  16.743  15.836 -0.2327 -0.2060 -0.0306
 8224W        W27758   6.921  13.364   4.990 -0.3166  0.2486 -0.1640
 8225W        W27759  11.066  14.718  13.158  0.3706 -0.0747  0.1686
 8226W        W27760  17.144  15.248   2.198 -0.0701 -0.1821  0.1269
 8227W        W27761  15.325  16.393   4.076 -0.1014 -0.0160  0.0029
 8228W        W27762  14.155  16.929   0.958  0.1166 -0.1742  0.0089
 8229W        W27763  17.039  14.669   4.184  0.0806  0.1496 -0.0659
 8230W        W27764   8.985   7.355   3.919  0.2080 -0.2329 -0.1064
 8231W        W27765  14.265   9.489   2.706  0.1059  0.0624  0.3164
 8232W        W27766  10.769   0.889   0.427  0.0814 -0.1535  0.0788
 8233W        W27767   5.780  13.862   4.221 -0.1376  0.0977 -0.1578
 8234W        W27768  16.562  12.123   1.816 -0.0166  0.0911  0.0183
 8235W        W27769  11.950   6.444   0.593 -0.0146  0.2383 -0.0678
 8236W        W27770   3.187  15.221  14.188 -0.2457  0.0663 -0.2103
 8237W        W27771  13.790  13.415  15.326 -0.0130  0.0103 -0.0016
 8238W        W27772   5.608  16.707  12.373  0.2325 -0.2931 -0.0389
 8239W        W27773   8.523   1.887   1.780  0.1267  0.1931 -0.0215
 8240W        W27774  16.698   3.259   5.130 -0.1420 -0.4716 -0.1412
 8241W        W27775  13.139  12.119  14.672 -0.1675  0.1138  0.0650
 8242W        W27776  17.403   9.463  14.985  0.0768  0.1410 -0.0232
 8243W        W27777  14.672  17.446   2.824  0.1598  0.1760 -0.2261
 8244W        W27778  12.121   8.814   0.395  0.1350 -0.0099 -0.1211
 8245W        W27779   3.532   3.880   4.240 -0.1293  0.1639  0.1570
 8246W        W27780   3.548   3.256  14.370  0.0628 -0.3081  0.2228
 8247W        W27781   8.391   3.785   3.194 -0.2624  0.2256 -0.0115
 8248W        W27782   0.346  16.877  12.035  0.2197  0.0229 -0.3124
 8249W        W27783   2.290  14.578   2.175  0.1713 -0.1832  0.3779
 8250W        W27784  14.847  13.190   2.631 -0.1154 -0.0032  0.0204
 8251W        W27785  10.168  14.765  12.068  0.0905 -0.0526 -0.0525
 8252W        W27786   6.535   3.863  11.535  0.1591  0.2146 -0.2673
 8253W        W27787   8.754  13.570   4.679  0.3222  0.1346 -0.4021
 8254W        W27788  14.645  15.619   5.358  0.1576  0.2696  0.0354
 8255W        W27789   3.146  16.175   5.051  0.0141 -0.1070 -0.0488
 8256W        W27790   0.990  16.239   4.248  0.1306 -0.1200 -0.1295
 8257W        W27791   5.300  16.291  11.505  0.0382  0.2567 -0.2874
 8258W        W27792   6.316  12.051   1.453  0.2895 -0.2267  0.1598
 8259W        W27793   9.890  11.857   4.958  0.1590 -0.0529  0.1083
 8260W        W27794  16.483   1.002  12.624 -0.1097 -0.0269  0.0038
 8261W        W27795  17.671  10.786  11.921  0.1998  0.2386  0.1748
 8262W        W27796   3.592   8.078  13.516 -0.0995 -0.2701 -0.2619
 8263W        W27797   7.558   5.751   2.202 -0.4574 -0.1537  0.0163
 8264W        W27798   9.887   7.259  11.818 -0.0190  0.0448 -0.0670
 8265W        W27799   6.006  10.093   4.151  0.0815 -0.2877 -0.2333
 8266W        W27800   9.197  16.096  12.780 -0.0390 -0.2511 -0.1565
 8267W        W27801  10.933  11.610  13.622 -0.1964  0.1377  0.0525
 8268W        W27802   6.598   7.914   3.887  0.1819  0.3349 -0.0239
 8269W        W27803   5.924  13.323   0.914 -0.1119  0.0689  0.1352
 8270W        W27804   9.646   8.168  15.413  0.0565  0.0537 -0.1334
 8271W        W27805  10.417  13.546   2.465 -0.2764 -0.2118  0.4816
 8272W        W27806   6.674   8.611   1.853  0.0176  0.0769 -0.0571
 8273W        W27807  13.370   3.380   3.409 -0.0093 -0.0838  0.2444
 8274W        W27808  10.275   8.289  14.568 -0.0454  0.2329  0.1843
 8275W        W27809  14.471   7.136   0.701 -0.1257  0.1191  0.3050
 8276W        W27810   7.320  13.108   0.569 -0.0349  0.2951  0.3688
 8277W        W27811   7.585  13.123   1.937 -0.0670 -0.0815 -0.0228
 8278W        W27812   9.734   6.440  15.320 -0.1217  0.0212  0.0593
 8279W        W27813  12.382   0.641   5.673  0.5118 -0.1356 -0.0666
 8280W        W27814  15.844  10.202   1.030  0.0688  0.1459  0.0685
 8281W        W27815   4.005  15.147  11.526  0.0654 -0.3303 -0.1042
 8282W        W27816   3.566   0.057  12.504 -0.3054 -0.1296 -0.0941
 8283W        W27817   8.098   2.636   2.868 -0.0931 -0.2080 -0.2311
 8284W        W27818   7.322   8.843   3.087 -0.0339 -0.1108 -0.1141
 8285W        W27819   7.120  11.506  13.518  0.2330 -0.0758 -0.1742
 8286W        W27820  14.280   2.967  13.655  0.0304 -0.0641 -0.0833
 8287W        W27821  15.237   9.954  15.610  0.3257  0.0371  0.2415
 8288W        W27822   8.489  12.488  15.357  0.0723 -0.2572  0.2005
 8289W        W27823   0.143   9.584  12.509  0.2434  0.1809 -0.1146
 8290W        W27824   1.142   9.061  14.003  0.0109 -0.3193  0.0864
 8291W        W27825  16.843   0.214   4.486 -0.1487 -0.1222  0.4338
 8292W        W27826  10.218   9.907   1.675  0.1445 -0.2057 -0.1205
 8293W        W27827  12.561   7.517   1.963 -0.2346  0.1744 -0.0634
 8294W        W27828   3.795  10.711   2.711 -0.1836  0.0397 -0.0856
 8295W        W27829   6.247  16.914  12.905 -0.0717 -0.0924 -0.2591
 8296W        W27830   3.422   8.488  14.404  0.0528 -0.1840  0.1437
 8297W        W27831  10.737  13.799  14.084 -0.0748  0.2703 -0.1595
 8298W        W27832   5.757   1.962  11.355 -0.0765 -0.0833 -0.2677
 8299W        W27833   8.748   9.372   5.088 -0.0410  0.2441  0.0694
 8300W        W27834   9.814   2.581   1.922  0.0637  0.0310 -0.0444
 8301W        W27835   9.301   7.698  14.786 -0.2302  0.0267 -0.3184
 8302W        W27836   1.072  14.993   1.136 -0.1313  0.1328  0.3308
 8303W        W27837  11.232   8.772  11.802 -0.0155  0.1406  0.0777
 8304W        W27838  18.039   4.975  11.579  0.1056 -0.0829  0.1629
 8305W        W27839   4.489  14.931  11.621 -0.0936  0.1524  0.0516
 8306W        W27840  15.383   0.994   1.548  0.1925 -0.0140 -0.2468
 8307W        W27841   0.704  13.800  12.954  0.1783 -0.1740 -0.0437
 8308W        W27842   8.462   8.402   3.698 -0.2315  0.0334 -0.0162
 8309W        W27843   7.083   9.329  14.358 -0.0041 -0.1491  0.2788
 8310W        W27844   9.931   3.130   4.257  0.2477 -0.0869  0.1300
 8311W        W27845   7.993  15.343   1.338  0.0466 -0.0623 -0.0807
 8312W        W27846  17.893  16.846   5.153  0.0389 -0.1608 -0.0721
 8313W        W27847   5.228   6.519   3.172 -0.0930 -0.0900  0.1353
 8314W        W27848   2.416  11.040  13.722 -0.0066  0.0999  0.0471
 8315W        W27849   0.835  15.918   1.257 -0.2952 -0.1939 -0.1409
 8316W        W27850  17.675  15.242   2.280  0.0702 -0.1250 -0.1685
 8317W        W27851   1.378   8.984   0.711  0.0403 -0.0696  0.2216
 8318W        W27852   3.919   3.965  13.967 -0.0163  0.0446 -0.2769
 8319W        W27853  10.813   7.593   1.611 -0.0860  0.0462  0.0176
 8320W        W27854   3.842  16.691  12.990  0.0044  0.1732 -0.1335
 8321W        W27855  17.553  18.093   1.206  0.4004 -0.0605  0.3524
 8322W        W27856  12.303   3.897   2.872  0.1232 -0.2184  0.1120
 8323W        W27857   1.885  16.092   2.628 -0.0163  0.2355  0.1748
 8324W        W27858  15.430   8.585   0.649 -0.0384  0.1133  0.1285
 8325W        W27859   1.830  13.350  14.180  0.1596  0.0326  0.0107
 8326W        W27860  16.581  10.254  15.681  0.2214  0.3191  0.0162
 8327W        W27861  10.223  17.619  12.338  0.1299  0.0173 -0.0317
 8328W        W27862  11.324   2.791   4.791 -0.2561  0.1442  0.1034
 8329W        W27863   8.712   5.525   1.749  0.2921 -0.0114  0.0247
 8330W        W27864  10.191   7.659  15.367 -0.0854  0.0504  0.1024
 8331W        W27865  14.861  15.196  12.479  0.0443 -0.1028 -0.2123
 8332W        W27866   5.991   6.718  15.796 -0.0993 -0.2621  0.1921
 8333W        W27867   1.879  17.876  14.585  0.2138  0.1837  0.1963
 8334W        W27868   6.322  12.715  14.407 -0.0432 -0.0776 -0.2131
 8335W        W27869   9.123  11.054  12.268  0.1594  0.0878 -0.2418
 8336W        W27870  15.960  16.384   1.439 -0.1452 -0.0550 -0.0851
 8337W        W27871  11.915   9.883   3.006  0.2444 -0.1352  0.1230
 8338W        W27872   1.977  13.734  13.382 -0.0518  0.0843  0.0312
 8339W        W27873   6.217   0.301   3.374 -0.0491 -0.1216  0.0863
 8340W        W27874   7.553   3.598  13.633  0.0150 -0.2599 -0.0346
 8341W        W27875   2.221  17.081   3.540  0.0157  0.2247  0.0129
 8342W        W27876   2.708  12.916   2.850 -0.0187 -0.0909  0.1128
 8343W        W27877   7.391   0.795  15.312  0.2619  0.0121  0.1280
 8344W        W27878   2.321   4.947  12.294 -0.4017  0.0432 -0.0120
 8345W        W27879  11.210  12.824   0.813  0.1844  0.0273  0.1571
 8346W        W27880   7.849   8.753   0.874  0.1784  0.2499  0.3125
 8347W        W27881   0.207   6.300   2.848  0.0352 -0.2855 -0.0163
 8348W        W27882  15.930  12.527  13.735 -0.0246  0.0416 -0.3109
 8349W        W27883   1.028  17.266  12.242 -0.1349 -0.0675 -0.0180
 8350W        W27884  13.699   9.741   3.042  0.1774  0.3596  0.1094
 8351W        W27885   5.599   6.594  12.664  0.2996  0.0316  0.0435
 8352W        W27886   4.791  17.019  13.055  0.3439 -0.1343 -0.1345
 8353W        W27887   9.805   6.901  13.312 -0.1486  0.1083  0.4784
 8354W        W27888   2.993  12.643   1.584  0.1138 -0.0251  0.2899
 8355W        W27889  16.888  13.822   1.000 -0.2972 -0.3553 -0.1504
 8356W        W27890   3.220  17.648  12.558  0.2047 -0.0109 -0.2295
 8357W        W27891   0.434   3.673   1.788 -0.2514  0.0069 -0.0406
 8358W        W27892  10.967  14.892   2.643 -0.0442 -0.0782 -0.1759
 8359W        W27893   4.603  10.745   4.422 -0.0364  0.2509  0.3234
 8360W        W27894   5.818  13.957   1.576 -0.0493 -0.1173  0.0530
 8361W        W27895   2.154  15.390  16.048 -0.2309 -0.1862  0.0098
 8362W        W27896  11.634   5.360  15.905  0.1577  0.1494  0.1304
 8363W        W27897   1.376   6.068   0.091  0.3063  0.1518  0.2060
 8364W        W27898  13.867  13.146   2.338 -0.3414  0.3050  0.1391
 8365W        W27899  17.715   9.289   0.949  0.3333 -0.1009 -0.1803
 8366W        W27900  15.227   0.336  14.514  0.1231  0.1121  0.2716
 8367W        W27901  15.485  13.301  13.478 -0.1678 -0.0229 -0.1256
 8368W        W27902   3.213   5.312   0.206  0.1605 -0.0088 -0.1153
 8369W        W27903   1.413  14.718   3.132  0.0250 -0.1166 -0.0607
 8370W        W27904   7.056   3.587  12.787 -0.0311 -0.1026  0.0329
 8371W        W27905   6.185   9.356   4.717  0.0179  0.0088 -0.3064
 8372W        W27906  12.594  10.411   4.248  0.0087  0.1413 -0.0872
 8373W        W27907   2.952   5.619   4.093  0.3175  0.0683  0.0037
 8374W        W27908  17.510  17.809  13.587 -0.4050 -0.0755  0.1027
 8375W        W27909  15.314   8.965  14.489  0.1565 -0.2626  0.2791
 8376W        W27910   2.020  17.640   3.306  0.1032  0.0496 -0.0240
 8377W        W27911   6.013  12.150   4.645 -0.2687  0.2526 -0.0890
 8378W        W27912  12.789  13.634  12.211  0.0434  0.4665 -0.0745
 8379W        W27913   8.531   2.651  15.268  0.5014 -0.0805  0.1488
 8380W        W27914   8.976  16.451  15.047 -0.1206  0.1888  0.3129
 8381W        W27915  13.940   6.515  14.266 -0.0065  0.0962 -0.0290
 8382W        W27916  13.542   7.046  14.951 -0.2937  0.0161 -0.1248
 8383W        W27917   8.638   4.885   0.527  0.1357 -0.3333  0.1754
 8384W        W27918  13.846  16.711  12.208 -0.2667 -0.0452  0.2026
 8385W        W27919   3.842   4.924   4.238 -0.1587  0.4152  0.1439
 8386W        W27920  15.551  16.096   2.812  0.0079 -0.1448 -0.1556
 8387W        W27921  16.863   0.581   4.838 -0.2268  0.0180 -0.0555
 8388W        W27922   9.896   6.653   1.343 -0.1657 -0.0344  0.1817
 8389W        W27923   0.628  10.009   4.038  0.2765  0.2339  0.0774
 8390W        W27924  12.096  13.480  13.178  0.2819 -0.2761 -0.1741
 8391W        W27925   6.596   9.534   3.007  0.3403  0.3429 -0.1680
 8392W        W27926   8.496  17.891  11.849  0.2927 -0.3341  0.3112
 8393W        W27927   1.364   0.641   2.972  0.1252  0.3514  0.0447
 8394W        W27928  11.191  15.999  15.712 -0.1409  0.0409 -0.1577
 8395W        W27929   0.399  15.408   4.693 -0.2647 -0.0924  0.0191
 8396W        W27930   5.049   1.851   1.821 -0.1696  0.0650  0.0771
 8397W        W27931   7.197   3.914  10.503 -0.1072  0.1938 -0.2124
 8398W        W27932   1.272   9.595   2.668  0.0484  0.2524  0.2246
 8399W        W27933   3.188   8.834  11.653  0.1374 -0.1935 -0.3565
 8400W        W27934  13.512   9.826  13.020 -0.1811  0.1289 -0.0648
 8401W        W27935   2.238   6.648  13.309 -0.0917 -0.0665  0.0534
 8402W        W27936   3.960   1.024   4.098  0.1950 -0.2283  0.0226
 8403W        W27937   2.249   5.176   0.289  0.1006 -0.2242  0.1903
 8404W        W27938  13.010  13.163   0.935  0.0567  0.2153 -0.1323
 8405W        W27939  12.496  14.271  14.842  0.0627  0.1453 -0.0329
 8406W        W27940  13.870  18.030   0.530  0.1352 -0.0068 -0.1717
 8407W        W27941   8.065   9.216   0.980  0.0812  0.0758  0.1001
 8408W        W27942  10.136  10.251  12.870  0.3220 -0.0699 -0.1932
 8409W        W27943  14.824  17.863  10.709 -0.0294  0.2809 -0.0637
 8410W        W27944   2.724   6.139   4.012  0.1430  0.0904 -0.0690
 8411W        W27945  10.527  15.424  13.241 -0.1038 -0.0323  0.2444
 8412W        W27946   9.449   0.014  11.724  0.2029  0.1765 -0.2576
 8413W        W27947   8.904  11.453   0.214  0.0332  0.1914  0.0222
 8414W        W27948  11.498  15.386   4.520 -0.1187 -0.4343  0.2227
 8415W        W27949  15.994   6.550   2.126  0.0040  0.0222  0.1795
 8416W        W27950   5.299   5.661   5.282  0.0128  0.0889 -0.0772
 8417W        W27951  10.408   6.547  13.082 -0.0366  0.1155  0.0739
 8418W        W27952  13.518   1.115   4.492 -0.0965 -0.0411  0.1156
 8419W        W27953  10.399   8.843  12.850 -0.0136 -0.1999  0.0189
 8420W        W27954   4.572  15.516  15.135 -0.3193 -0.5269  0.2980
 8421W        W27955  12.568   0.849  14.183 -0.1036 -0.0394  0.0248
 8422W        W27956  10.971   2.434  12.179 -0.3972  0.1299 -0.1645
 8423W        W27957   4.821  16.325  15.834 -0.1094 -0.0175  0.2074
 8424W        W27958   5.126   3.728   1.715  0.0720 -0.1117  0.0955
 8425W        W27959  17.657  14.097   3.607  0.0237 -0.2123  0.0194
 8426W        W27960  17.175   6.260  15.617  0.1957  0.2554 -0.1552
 8427W        W27961   1.164  16.068   2.124  0.0893 -0.0731 -0.3982
 8428W        W27962   0.725  13.047   1.007  0.1074  0.1183  0.0612
 8429W        W27963  14.658  10.009  14.102  0.3518 -0.2195  0.2091
 8430W        W27964  17.064  16.715   0.867  0.0296  0.1353 -0.1681
 8431W        W27965  10.748   1.466  13.729  0.3797  0.1451 -0.0580
 8432W        W27966   4.461   0.650   3.147  0.0443  0.1419 -0.2562
 8433W        W27967   9.556   2.310  14.036 -0.2016  0.2642 -0.0995
 8434W        W27968   4.420  10.900   0.677 -0.2123  0.2875  0.4598
 8435W        W27969   6.348   4.676   3.606  0.1250 -0.0025  0.2493
 8436W        W27970   4.834  11.213  14.172  0.3217  0.1825  0.1491
 8437W        W27971  16.239   0.023   2.371 -0.0292 -0.0787 -0.0346
 8438W        W27972   6.845  12.939  12.111  0.0495  0.0433 -0.2926
 8439W        W27973  14.232  16.782   0.196  0.2577 -0.4798 -0.0751
 8440W        W27974   9.516  12.878   5.082 -0.2073 -0.2922  0.1497
 8441W        W27975  16.548   9.183   4.017 -0.0705 -0.1439  0.0127
 8442W        W27976  10.131  14.036  14.834 -0.1170 -0.1310 -0.0862
 8443W        W27977  15.630   7.163  14.629 -0.0073 -0.1678  0.0361
 8444W        W27978  16.494  10.995   2.594 -0.1440 -0.1257  0.0360
 8445W        W27979  10.291  14.347   1.941  0.2395  0.1192  0.0954
 8446W        W27980  17.299   1.474  13.977 -0.1653  0.0634 -0.1010
 8447W        W27981   6.516   2.775   2.170 -0.2205 -0.0102  0.3120
 8448W        W27982  14.016   7.007   2.614  0.0060  0.0999  0.0190
 8449W        W27983  11.688   2.005  14.824 -0.1115 -0.4078  0.2659
 8450W        W27984   0.098  14.321  11.848 -0.0548 -0.2200  0.1602
 8451W        W27985   6.008  17.601   1.466 -0.0077  0.0214 -0.1087
 8452W        W27986  13.391   1.636   0.031  0.2145  0.3078  0.1196
 8453W        W27987   0.017  16.909   3.061  0.2901  0.0972 -0.0047
 8454W        W27988   1.139   6.302  12.203  0.2324  0.2100  0.0148
 8455W        W27989   8.278   2.216   4.280 -0.0406 -0.0402  0.2259
 8456W        W27990   1.722  16.215   4.506  0.1809  0.0613  0.0980
 8457W        W27991   6.477   7.681   1.376  0.1450  0.1583  0.2110
 8458W        W27992  17.415  16.237  14.006 -0.1400  0.0384  0.0150
 8459W        W27993   5.196   8.628  12.202  0.0236  0.0977  0.0797
 8460W        W27994  13.000   7.915   3.281  0.2552  0.1937  0.0016
 8461W        W27995   7.464   2.295   0.060 -0.1126 -0.0040 -0.0039
 8462W        W27996  16.095   7.242  11.607  0.2336  0.1428 -0.1904
 8463W        W27997   4.058  16.621  11.952 -0.0575 -0.0419 -0.1394
 8464W        W27998  16.770   7.368   2.415 -0.3373 -0.0979  0.1330
 8465W        W27999   8.830  13.098  11.607  0.0410 -0.2368 -0.1245
 8466W        W28000  12.145  15.012   0.205  0.3003 -0.1718 -0.1344
 8467W        W28001  15.348   1.353  14.944 -0.3735 -0.3139 -0.0015
 8468W        W28002   4.434   4.723  12.723  0.0074 -0.1878  0.1684
 8469W        W28003   2.446  12.608  15.117  0.0237 -0.0070 -0.2422
 8470W        W28004   6.486   5.971   4.905  0.0472 -0.2238 -0.1327
 8471W        W28005   2.275  10.220   0.073 -0.2672 -0.0245 -0.0037
 8472W        W28006   0.818   4.783  15.592 -0.4341 -0.0677 -0.0124
 8473W        W28007   9.051  13.323  14.087  0.0954  0.2026  0.0786
 8474W        W28008   6.996  15.379   1.050 -0.1048 -0.3426 -0.1817
 8475W        W28009   5.168  16.052   3.307 -0.0652  0.3163  0.0656
 8476W        W28010  17.452  13.346   3.246  0.0578 -0.0109  0.3087
 8477W        W28011  13.203  13.445   3.458  0.0218 -0.1070 -0.2507
 8478W        W28012  17.172   6.707  13.888 -0.0546  0.1116  0.2179
 8479W        W28013  15.865   5.588   0.017 -0.0234 -0.0922 -0.2467
 8480W        W28014  15.942  16.797   4.065  0.0430  0.2538 -0.0281
 8481W        W28015   9.943  17.032   2.761  0.1185 -0.3242  0.3667
 8482W        W28016   0.413  14.657  12.713  0.1488 -0.1302 -0.0023
 8483W        W28017  13.784  15.863   4.730 -0.0022  0.0485  0.1762
 8484W        W28018  14.974   3.943   0.682  0.0943  0.0770 -0.0623
 8485W        W28019   8.872   4.727  13.274 -0.0366 -0.0277  0.5077
 8486W        W28020   0.211   7.571  13.709 -0.0695  0.1144 -0.2433
 8487W        W28021   3.566  15.189  11.266 -0.0326 -0.0630  0.1500
 8488W        W28022   7.599   3.922   2.125 -0.3335 -0.0032 -0.1884
 8489W        W28023   7.659  12.917   3.097  0.2162 -0.3084  0.2747
 8490W        W28024  13.811   9.868   4.070 -0.1738  0.0370  0.0619
 8491W        W28025   4.140   8.824   4.450  0.4913 -0.1135  0.2279
 8492W        W28026  12.976  13.930   0.794  0.0336 -0.0973  0.0118
 8493W        W28027   0.124  15.377   1.042  0.0571 -0.1123 -0.2415
 8494W        W28028  10.200   3.672  13.488  0.1434 -0.2950 -0.0769
 8495W        W28029  10.411   8.472   0.703  0.0160  0.1082 -0.0182
 8496W        W28030   6.244   1.877   1.129 -0.0466  0.2185 -0.0774
 8497W        W28031   7.483   2.467  14.587 -0.3786  0.2198  0.2708
 8498W        W28032  11.023   3.169  12.909  0.0264  0.1963  0.0052
 8499W        W28033  10.062   0.577  14.551  0.1411 -0.1164  0.5419
 8500W        W28034   6.644   9.708   2.226 -0.1669  0.0739 -0.1523
 8501W        W28035  13.750   8.627  14.414  0.0564  0.0253  0.2201
 8502W        W28036  10.532  12.142   4.094  0.0742  0.1411  0.0176
 8503W        W28037   5.809  11.775   3.546  0.2473 -0.0732  0.1665
 8504W        W28038   1.721   7.579  11.114 -0.0552  0.1216  0.2733
 8505W        W28039  12.333  16.683   3.371 -0.1959  0.1102 -0.0391
 8506W        W28040  11.278  11.872   4.749  0.0564 -0.1862  0.0886
 8507W        W28041  17.491   2.865   4.565 -0.1516  0.0921 -0.2141
 8508W        W28042   9.176  17.776   1.476  0.1128  0.1279 -0.4117
 8509W        W28043   9.116   2.429   0.474 -0.1361 -0.1027 -0.0287
 8510W        W28044   4.110   5.490  15.215 -0.0847 -0.0561  0.0480
 8511W        W28045  12.327   8.888  13.964 -0.0455  0.1758 -0.0846
 8512W        W28046  18.177  13.167  11.723 -0.0201 -0.0840 -0.0763
 8513W        W28047  16.619  17.904  11.805 -0.0315 -0.0125 -0.2900
 8514W        W28048   6.431   8.200  15.679 -0.0588 -0.0721  0.0326
 8515W        W28049   6.566  16.124  12.328  0.0143  0.1600 -0.1422
 8516W        W28050   4.690  14.171  10.993  0.0575 -0.0001  0.0163
 8517W        W28051   3.270   6.555   2.529 -0.0108 -0.1848  0.0596
 8518W        W28052   9.434   2.731  14.468 -0.2484 -0.0895  0.0002
 8519W        W28053  14.970   4.380  14.687  0.1528 -0.3240  0.1680
 8520W        W28054   6.676   2.079   0.947 -0.0052  0.0654 -0.0206
 8521W        W28055  10.232   1.236  12.359 -0.3041 -0.0202  0.1066
 8522W        W28056   0.123  14.154   2.318 -0.1271 -0.4271  0.3482
 8523W        W28057   9.381  12.273  13.058 -0.3362 -0.0216  0.1899
 8524W        W28058   4.730   4.608   4.038  0.0675  0.0312 -0.0835
 8525W        W28059   3.889   8.901   1.310 -0.1195 -0.0585 -0.3265
 8526W        W28060  12.576  14.993   1.558  0.0132  0.1519  0.1327
 8527W        W28061  17.691   0.314   0.111 -0.1444 -0.1189 -0.0695
 8528W        W28062   7.777  16.699  12.023 -0.0938 -0.0716 -0.0561
 8529W        W28063   7.927  12.721   2.067 -0.1234 -0.0854  0.0060
 8530W        W28064   0.843  15.475  13.582 -0.2250  0.1665  0.1544
 8531W        W28065   6.123   1.147   2.522  0.2862 -0.0458 -0.0756
 8532W        W28066   7.680   4.307   2.458 -0.1440 -0.0330  0.1605
 8533W        W28067  15.272   9.363   1.277  0.2406 -0.2592  0.2120
 8534W        W28068   6.514  14.267  12.662 -0.0534  0.1369 -0.0163
 8535W        W28069  16.994   4.573   0.609  0.2652  0.0515 -0.0981
 8536W        W28070   2.383  16.057  14.517 -0.3098  0.3568  0.0303
 8537W        W28071   6.956  10.348   0.151 -0.0232  0.1154  0.2152
 8538W        W28072   2.232  13.084   4.795 -0.2323 -0.1964 -0.2299
 8539W        W28073   3.068   1.509   1.649 -0.0230  0.2875 -0.2788
 8540W        W28074   5.504  15.079  15.405  0.0529  0.0953  0.1400
 8541W        W28075  15.227   8.477   1.095 -0.1815  0.5145 -0.3499
 8542W        W28076  15.690  16.111   1.698  0.1736  0.1421  0.1105
 8543W        W28077  11.787  16.234   4.069 -0.1423 -0.1260 -0.0647
 8544W        W28078   9.655  10.324  12.897  0.1089 -0.4165  0.0740
 8545W        W28079  13.073   2.677   1.846 -0.1478 -0.2960  0.1219
 8546W        W28080   9.716   5.670  10.653  0.1471 -0.1038  0.0704
 8547W        W28081   8.057  13.804   0.582 -0.0292 -0.1924 -0.0740
 8548W        W28082  10.385  11.598  14.240  0.2508  0.0306 -0.2798
 8549W        W28083   7.920  14.442  14.812  0.0235  0.3648 -0.2079
 8550W        W28084   1.578  12.255  14.413  0.0183  0.2074  0.1115
 8551W        W28085  17.111   5.568   3.371 -0.2147 -0.1123 -0.1339
 8552W        W28086   3.621   9.432  13.000  0.0183  0.0576 -0.2662
 8553W        W28087   8.933  12.607   4.862  0.1409 -0.0461  0.0851
 8554W        W28088   0.212   3.339   2.562  0.0987  0.0275 -0.1242
 8555W        W28089  13.209   5.854  15.095  0.1074  0.0861  0.1019
 8556W        W28090   9.070  13.254  12.148  0.0858  0.0890  0.2384
 8557W        W28091  16.604  17.259   0.268  0.0244 -0.0172 -0.1115
 8558W        W28092  17.403  16.363  15.333 -0.1074  0.0303  0.3795
 8559W        W28093  14.733  12.606  15.271 -0.1949 -0.2274  0.1256
 8560W        W28094   8.683  15.480  12.306 -0.0540  0.0442  0.3666
 8561W        W28095   7.749   4.585  15.159  0.3200 -0.0626  0.1182
 8562W        W28096   7.881   6.883  15.922 -0.0592 -0.1517 -0.1200
 8563W        W28097   0.896   0.764  14.598 -0.0131  0.3880 -0.2278
 8564W        W28098   3.173   6.946  15.871 -0.0297 -0.1206  0.0871
 8565W        W28099   2.949  12.423   4.041  0.4246  0.2796  0.0988
 8566W        W28100   7.941  13.862   2.719  0.1716 -0.0729 -0.1447
 8567W        W28101   9.197  11.254   3.441  0.0212 -0.2220  0.0932
 8568W        W28102  16.937  11.732   0.300  0.0724  0.1600  0.0673
 8569W        W28103  15.992   7.890   0.640 -0.1731  0.1363  0.1173
 8570W        W28104   2.795  14.336   2.135  0.0962 -0.2284  0.0967
 8571W        W28105   8.008   3.744  11.172  0.0920  0.2797 -0.1105
 8572W        W28106   6.909  17.737   2.046  0.0763  0.0999  0.2720
 8573W        W28107   9.549   9.224  13.864 -0.1897 -0.1263  0.2504
 8574W        W28108   4.982  16.620   1.526  0.1294 -0.1005  0.0499
 8575W        W28109   6.616   5.131  12.963 -0.0618 -0.0610 -0.0439
 8576W        W28110   4.519   2.449   0.379  0.0508 -0.1909  0.0451
 8577W        W28111  11.330   0.665  12.174 -0.2054  0.1908 -0.1127
 8578W        W28112   2.496   7.277   3.858 -0.2645 -0.2215 -0.0768
 8579W        W28113   8.857   3.653   3.551 -0.0613  0.2438 -0.3790
 8580W        W28114   2.411  17.892  14.696  0.0925 -0.2675 -0.2866
 8581W        W28115   9.699   1.873  14.300  0.0861  0.3113  0.3030
 8582W        W28116  12.618   9.878   2.387 -0.2299  0.0354  0.0412
 8583W        W28117  11.641   5.523   2.253  0.2614  0.0916 -0.0637
 8584W        W28118  16.307   6.148  12.091 -0.1284  0.1138  0.0017
 8585W        W28119  10.468   6.908   0.995 -0.0724  0.2733 -0.0821
 8586W        W28120   1.451  10.031   3.220 -0.0071  0.0964  0.2426
 8587W        W28121   0.524   2.462   2.822  0.0590  0.1752  0.1277
 8588W        W28122   3.280  11.997  15.434  0.1788  0.0696  0.0845
 8589W        W28123  13.760  11.367  12.467 -0.2554 -0.1447 -0.1226
 8590W        W28124  11.820   6.670  10.840  0.2037  0.1553 -0.1203
 8591W        W28125   4.474   8.289  14.726  0.1007 -0.4662  0.3931
 8592W        W28126  10.088  17.732  15.379 -0.1811  0.1850  0.0133
 8593W        W28127   7.350  14.304  12.118 -0.0608  0.1574 -0.1831
 8594W        W28128   6.633  15.888  13.487  0.0879  0.1233  0.1873
 8595W        W28129  11.529   1.026  13.495  0.1397 -0.1735 -0.0271
 8596W        W28130  14.997  17.500   0.804 -0.1344  0.1407 -0.2049
 8597W        W28131  13.369  11.127   4.639 -0.1888 -0.0035 -0.0387
 8598W        W28132  16.228  15.020  14.122  0.2905 -0.0213  0.1720
 8599W        W28133   8.898   8.194   3.399  0.3877  0.2568  0.1172
 8600W        W28134  14.918   2.251  13.594 -0.1005 -0.3860  0.1341
 8601W        W28135   5.235   5.496   2.609  0.0528 -0.0842 -0.0966
 8602W        W28136   4.247   8.570  15.392 -0.2006 -0.2155 -0.1043
 8603W        W28137  10.162  16.735  13.137 -0.1069  0.1570  0.0331
 8604W        W28138   5.414   9.132  11.013  0.2623 -0.0006 -0.0086
 8605W        W28139   1.108  15.802  15.332 -0.0206 -0.1226 -0.1342
 8606W        W28140   6.446  17.218  13.331  0.2417 -0.0642 -0.2209
 8607W        W28141   3.027  12.671   1.082 -0.0108  0.0913  0.2818
 8608W        W28142   9.082  13.913   2.711 -0.1893 -0.1504  0.1302
 8609W        W28143  11.536   5.921  15.929  0.2448 -0.1776  0.1467
 8610W        W28144   5.534  14.749  15.795  0.2199 -0.2225  0.3079
 8611W        W28145   3.627   8.861   3.149  0.0567  0.0381 -0.3350
 8612W        W28146   3.128  14.421  13.435 -0.0391 -0.2870  0.1437
 8613W        W28147   5.398  14.912   3.769 -0.0512  0.1742 -0.0260
 8614W        W28148   8.959  12.028  15.002 -0.1891 -0.1199 -0.0094
 8615W        W28149   6.650  17.282  15.275  0.1564  0.1810 -0.1194
 8616W        W28150   0.589   5.273  12.212 -0.0728 -0.1896 -0.0536
 8617W        W28151  13.352  13.434  14.940 -0.3629  0.1321  0.0835
 8618W        W28152   1.755  17.346   1.644 -0.3302  0.0451 -0.2547
 8619W        W28153   2.062   2.550  11.938 -0.1718 -0.0810  0.1001
 8620W        W28154  13.098  11.527  13.804  0.0103 -0.0970  0.1956
 8621W        W28155   0.917  12.961   0.324  0.1719 -0.2743  0.0861
 8622W        W28156  11.042  10.974  15.817  0.0358 -0.2013  0.0718
 8623W        W28157  12.572  14.364   4.503  0.3277 -0.0233  0.1690
 8624W        W28158  12.902  11.435   0.286 -0.2631 -0.0894 -0.0644
 8625W        W28159  17.480  11.079  15.173  0.0349  0.2767 -0.4569
 8626W        W28160  16.091  12.992  13.937 -0.1844 -0.1242 -0.0586
 8627W        W28161  16.699  16.364   4.359 -0.0121  0.3172  0.1953
 8628W        W28162  11.148   7.913   4.900  0.0233 -0.2874 -0.1929
 8629W        W28163   0.091   7.105   2.523  0.1334 -0.0742  0.1934
 8630W        W28164  14.664  15.785   1.286 -0.0346 -0.2175 -0.0720
 8631W        W28165  11.047  10.913  12.035 -0.0556 -0.1921  0.0814
 8632W        W28166  11.606  17.768  12.812  0.2252  0.0765 -0.0464
 8633W        W28167   7.369  16.881   0.301 -0.0053 -0.3913  0.0865
 8634W        W28168  15.949   8.505   0.606 -0.0076  0.0358 -0.1755
 8635W        W28169   2.567   2.861  14.825 -0.1272 -0.4145 -0.0698
 8636W        W28170   7.884   0.846  12.054  0.0698 -0.0130 -0.3203
 8637W        W28171  15.288   0.060  15.412 -0.3852  0.1291 -0.0410
 8638W        W28172   3.808   7.698  11.213  0.1309  0.1365 -0.4067
 8639W        W28173  16.536  17.367   2.881  0.0114 -0.4401 -0.2095
 8640W        W28174  15.267   8.620   0.210 -0.0860  0.0488  0.0769
 8641W        W28175   3.457   9.016   4.393  0.2477 -0.4368  0.1050
 8642W        W28176  16.511   9.571   4.985  0.2670  0.1220 -0.3167
 8643W        W28177  17.782   3.241   4.822  0.3649 -0.0189  0.0075
 8644W        W28178   6.518   6.480   0.186  0.3463  0.3755 -0.0715
 8645W        W28179  17.207   9.981  12.244 -0.2011  0.2835  0.0156
 8646W        W28180   5.486   2.104  15.661  0.0722 -0.0877  0.1414
 8647W        W28181   4.448  15.501   1.773 -0.0787  0.0864  0.0307
 8648W        W28182   8.570   0.923  14.007  0.0412  0.1190  0.2427
 8649W        W28183   3.944  10.750  15.192  0.0585 -0.1209  0.0792
 8650W        W28184   1.028  10.008   3.537 -0.1486  0.2361 -0.0338
 8651W        W28185  13.998   3.796   4.656 -0.0969  0.0972 -0.0235
 8652W        W28186   3.197  13.838   4.413 -0.2139 -0.0144 -0.0195
 8653W        W28187   6.382   4.857  15.545  0.1042  0.0302 -0.2055
 8654W        W28188   5.899   3.103   2.853 -0.1567  0.0926 -0.0808
 8655W        W28189  12.164  13.117   2.323  0.1906  0.0745  0.0352
 8656W        W28190  17.473   2.448   2.223  0.1123  0.1146 -0.0434
 8657W        W28191   8.832   9.410  15.372  0.0564  0.0127 -0.1187
 8658W        W28192   8.006  14.233   0.041  0.0437 -0.2783  0.0451
 8659W        W28193  11.926  10.732   4.730 -0.1356  0.4243  0.0741
 8660W        W28194  10.824  15.746  13.021 -0.1379 -0.2442  0.0594
 8661W        W28195   7.634   5.555  13.895  0.0291 -0.1200 -0.2818
 8662W        W28196  15.958  17.341   2.699 -0.1681 -0.0068  0.1590
 8663W        W28197   0.792  17.248   0.244 -0.4060 -0.2546 -0.1956
 8664W        W28198   8.541   8.174  13.425 -0.4193 -0.1317  0.1789
 8665W        W28199   5.686   7.261   0.328  0.0059  0.2415 -0.1268
 8666W        W28200   7.147   1.279  12.025  0.4444 -0.0969 -0.1093
 8667W        W28201  13.498  16.245  15.369  0.1358  0.1834 -0.2068
 8668W        W28202   4.446  16.608   3.211 -0.1180 -0.1451 -0.0747
 8669W        W28203  13.134   5.728  11.937 -0.0693  0.0541  0.2323
 8670W        W28204  17.357   2.649  14.492 -0.0063  0.2636  0.3017
 8671W        W28205   3.323   4.126  13.755  0.1268 -0.0808  0.0235
 8672W        W28206  12.114  12.532   3.691  0.1728 -0.0262 -0.2098
 8673W        W28207   7.131   3.529  11.374  0.1734 -0.2049  0.0256
 8674W        W28208   7.329  14.674   1.582 -0.2585  0.0693 -0.0053
 8675W        W28209   8.380  16.913  15.706  0.0825 -0.0048 -0.1712
 8676W        W28210  17.396   5.398   1.072 -0.3626  0.3869  0.0126
 8677W        W28211  15.444   5.008  13.654  0.0445 -0.0170 -0.0005
 8678W        W28212   0.351  11.301   4.601 -0.1765  0.1038 -0.0741
 8679W        W28213   1.043   1.449  12.030  0.2690  0.1430 -0.1943
 8680W        W28214  10.703  17.085   4.000 -0.5529 -0.1487  0.3294
 8681W        W28215   4.145   4.637  13.601  0.0136 -0.0343  0.0165
 8682W        W28216   2.739   5.459   1.174  0.1155  0.2536  0.0258
 8683W        W28217   5.114   3.519   0.125  0.0527  0.0728  0.0366
 8684W        W28218  15.768   3.625  13.356  0.0692 -0.1023 -0.1512
 8685W        W28219   5.223  14.604   2.607 -0.2497  0.2735  0.0475
 8686W        W28220   6.463   9.098   1.639  0.0967 -0.0627 -0.0245
 8687W        W28221  15.360   2.655   4.410  0.1728  0.1082 -0.1478
 8688W        W28222   9.618  10.878   4.668 -0.0353 -0.0845  0.1863
 8689W        W28223   2.851  13.269  15.597 -0.1324  0.0500 -0.0740
 8690W        W28224  10.394   3.641   3.812 -0.0618  0.0010 -0.4860
 8691W        W28225  17.811   8.415   2.695  0.1119 -0.2284 -0.0192
 8692W        W28226   7.608  15.421   4.821 -0.0462  0.0024 -0.0222
 8693W        W28227   4.534  13.320   1.980  0.1382 -0.0603  0.1243
 8694W        W28228  12.898   6.220  16.042  0.1261  0.0013  0.4216
 8695W        W28229   8.709   8.977  11.038 -0.0557  0.2707  0.1345
 8696W        W28230  16.246  15.429  13.740 -0.0173  0.0166 -0.1999
 8697W        W28231   4.216  17.326  15.692  0.2427  0.1404 -0.1310
 8698W        W28232   7.209  11.514   4.395 -0.2072 -0.0945  0.2252
 8699W        W28233   0.232  11.667  15.975  0.3370  0.0744 -0.1293
 8700W        W28234  15.208   1.847   4.983  0.1471 -0.0964 -0.1362
 8701W        W28235   3.510  10.414   1.412 -0.0316  0.0461  0.0061
 8702W        W28236  11.779  14.975   2.081 -0.0381 -0.0787 -0.2964
 8703W        W28237   1.121  10.915  15.965 -0.1137 -0.3010  0.1873
 8704W        W28238   1.800  10.323  16.020 -0.0054  0.0669  0.0209
 8705W        W28239  17.611   6.176   0.545  0.1027  0.1837 -0.0126
 8706W        W28240  16.080   6.940  11.118 -0.0421 -0.2461  0.1451
 8707W        W28241  14.500   7.114  14.338  0.2347 -0.1573  0.0534
 8708W        W28242  15.159   7.711   3.306 -0.1427 -0.2130  0.1722
 8709W        W28243  10.492   2.073   0.459 -0.1650 -0.0705 -0.0450
 8710W        W28244  13.749  10.233  13.255  0.0801 -0.1204  0.0773
 8711W        W28245  14.455  11.405  13.579 -0.3831  0.0109  0.1778
 8712W        W28246   1.444   6.168   3.386 -0.2517  0.1238 -0.0306
 8713W        W28247   7.486   2.327  13.577 -0.2274  0.1711  0.0535
 8714W        W28248   9.538   3.058   2.528 -0.1751 -0.4967  0.0628
 8715W        W28249  17.320   4.288   0.974 -0.0920 -0.2637  0.3371
 8716W        W28250  11.989   4.412   5.939 -0.0103  0.3908 -0.0324
 8717W        W28251  13.547   0.248  15.707 -0.1609  0.1543  0.0636
 8718W        W28252  17.967   7.214  15.083 -0.1262  0.0844 -0.3043
 8719W        W28253  17.319   5.831   4.941  0.3531 -0.2911 -0.1511
 8720W        W28254   8.622   8.768  12.141 -0.0488 -0.2894 -0.0248
 8721W        W28255   6.670  10.367   0.989  0.2888  0.0739 -0.2408
 8722W        W28256   4.349   3.083   3.837  0.0909 -0.2283  0.1953
 8723W        W28257  13.730  16.309  12.567 -0.1112  0.1261 -0.1085
 8724W        W28258  12.664   8.263  13.203 -0.0660  0.3012 -0.0395
 8725W        W28259  13.362   2.145  11.648  0.2453 -0.0856  0.2296
 8726W        W28260  14.747  10.292   0.899  0.0424 -0.0792 -0.2207
 8727W        W28261   2.863  12.838  14.436  0.4388 -0.0408 -0.0109
 8728W        W28262   2.171   2.705  14.566 -0.0191 -0.2292 -0.0849
 8729W        W28263   7.090  15.956  15.000  0.0686  0.1184  0.1326
 8730W        W28264  12.412   4.250  13.259  0.3505 -0.0983  0.0366
 8731W        W28265  15.208  11.005   0.947 -0.0271 -0.2002  0.0390
 8732W        W28266  17.860   8.252   1.211 -0.1520  0.1973  0.2058
 8733W        W28267  12.617  16.281  12.294 -0.2413 -0.1768  0.1249
 8734W        W28268  12.819   3.384  11.538 -0.0520  0.0003  0.3548
 8735W        W28269  14.200   3.040  14.194  0.3268  0.2336 -0.2798
 8736W        W28270   7.029   0.619   1.270  0.4050 -0.0631  0.3856
 8737W        W28271  17.401  15.333   3.702  0.0882  0.0036  0.0034
 8738W        W28272  12.556  13.815  13.202  0.3349  0.2390 -0.0196
 8739W        W28273   5.792  16.742  12.797  0.0598 -0.1843 -0.1731
 8740W        W28274   3.486  14.605   3.151 -0.0075 -0.0420 -0.1424
 8741W        W28275   4.887  13.411  12.766  0.1354  0.2231 -0.0474
 8742W        W28276  16.930   4.431   0.166 -0.0244 -0.0294  0.0811
 8743W        W28277   5.861   3.423  13.066  0.2417 -0.0731 -0.2116
 8744W        W28278  11.979  15.069  11.720 -0.0117  0.3487  0.3449
 8745W        W28279   0.728   3.229  14.667 -0.2267  0.3566 -0.1142
 8746W        W28280  14.929  17.280  16.036  0.0751  0.0071  0.0403
 8747W        W28281   4.845  16.052  12.074 -0.0006 -0.1793  0.1715
 8748W        W28282  10.981   3.091  14.252 -0.1578 -0.1646  0.2532
 8749W        W28283   4.679  13.884  13.393  0.0636 -0.4709 -0.0259
 8750W        W28284   3.750   9.602   3.765 -0.0002 -0.0932 -0.1326
 8751W        W28285  18.056  12.900   1.740  0.0946  0.0507  0.1252
 8752W        W28286   7.025   6.829   1.240  0.0011 -0.1075  0.0510
 8753W        W28287   4.335   1.406   2.745 -0.1663  0.0335  0.1427
 8754W        W28288   4.515  15.558  11.129 -0.0517 -0.2502 -0.0146
 8755W        W28289  10.526  12.898  14.806  0.1006 -0.1394 -0.0543
 8756W        W28290  13.707  13.362   4.388 -0.1445  0.1633  0.0948
 8757W        W28291  14.450  15.048  11.665 -0.1519 -0.0028 -0.0473
 8758W        W28292   6.566   8.687  13.961  0.0865  0.1733 -0.1956
 8759W        W28293   3.605   5.550   3.434 -0.2025 -0.3391 -0.0820
 8760W        W28294   2.383  13.645   0.106  0.1416  0.0483  0.0822
 8761W        W28295  14.501   7.439   3.344  0.2000  0.0304 -0.2829
 8762W        W28296  11.799   9.905   5.419  0.1000 -0.0751 -0.2527
 8763W        W28297  17.134  13.109   1.450  0.1355 -0.1823 -0.2356
 8764W        W28298  16.947   7.661   2.783 -0.0428  0.2475  0.0137
 8765W        W28299   4.623   1.262  11.863 -0.0211  0.1697  0.1990
 8766W        W28300   4.079   4.845  13.051 -0.0672 -0.0815 -0.0757
 8767W        W28301  10.624   9.545  14.827 -0.0177  0.1323 -0.3793
 8768W        W28302  16.230   6.736   3.424  0.0500 -0.2572  0.2590
 8769W        W28303  18.152   1.699  15.250 -0.0697  0.0458  0.1044
 8770W        W28304   6.498  13.990   1.915  0.0562 -0.3431 -0.2834
 8771W        W28305   8.573   7.751  11.389 -0.0229 -0.1732 -0.2429
 8772W        W28306  17.551   7.280   0.386  0.0582 -0.0744  0.0396
 8773W        W28307  13.221  11.351   3.067 -0.2129  0.1024 -0.3270
 8774W        W28308  15.484   5.421   3.214  0.1624  0.1474  0.1511
 8775W        W28309   5.316  17.332  14.417  0.0063  0.1287 -0.3921
 8776W        W28310   9.557   4.307  13.617  0.0715 -0.1458  0.1953
 8777W        W28311  11.031   4.928   4.621 -0.4122  0.1358  0.2567
 8778W        W28312  11.834   9.085   4.569 -0.0599  0.2042  0.1115
 8779W        W28313   6.675  16.910  14.469 -0.2207 -0.0452 -0.0898
 8780W        W28314  14.172   1.809   4.497 -0.1242 -0.0048 -0.2947
 8781W        W28315  12.590  15.549   2.430  0.4293 -0.1769 -0.0857
 8782W        W28316   0.498  17.549   2.393  0.1065 -0.1367 -0.0220
 8783W        W28317   3.352   4.184   0.465 -0.1126  0.1758  0.0144
 8784W        W28318   0.381   5.151  12.769 -0.3576 -0.1251  0.2558
 8785W        W28319  12.325  14.619  12.518 -0.2273 -0.0259 -0.2249
 8786W        W28320  15.714  10.919  14.091 -0.0590 -0.0013 -0.0204
 8787W        W28321  12.757  18.160   2.159 -0.0836 -0.1921 -0.0271
 8788W        W28322  14.044  17.970  12.568  0.0716  0.3209 -0.1279
 8789W        W28323  11.814   6.504  12.597  0.2684  0.1857 -0.0672
 8790W        W28324  16.962  17.782  14.228 -0.1414 -0.0833  0.0654
 8791W        W28325   2.810  11.534   0.024  0.1817 -0.0604  0.2502
 8792W        W28326  14.893   1.519   3.541 -0.0138  0.0791  0.1917
 8793W        W28327   2.682  14.924   5.069  0.2206 -0.0402 -0.0464
 8794W        W28328  10.398   8.127   0.306  0.0036 -0.1696 -0.2622
 8795W        W28329   4.612   5.012  11.760 -0.0786  0.2635  0.3186
 8796W        W28330   4.340  10.872   3.929  0.1641  0.1006 -0.0433
 8797W        W28331  16.349  13.000  11.002  0.0511  0.0711 -0.0316
 8798W        W28332   8.050   9.837   0.157 -0.0033 -0.0305  0.1061
 8799W        W28333  14.353   1.386   3.273 -0.0495 -0.1854 -0.1401
 8800W        W28334   4.609  16.910   0.738  0.0629 -0.0976  0.0507
 8801W        W28335   3.761  17.940   0.261 -0.0536 -0.1677  0.1528
 8802W        W28336   8.365   7.451   1.523  0.2101  0.1624  0.0189
 8803W        W28337   1.625   9.020   2.098  0.1034  0.1929 -0.1082
 8804W        W28338   4.940   9.922   0.904  0.0072 -0.2248  0.1920
 8805W        W28339   9.435  17.577  11.670  0.0205  0.1414 -0.0400
 8806W        W28340   7.635  10.085   1.083  0.0826 -0.2142 -0.0112
 8807W        W28341  14.269   5.354   1.544  0.2963 -0.1436  0.1808
 8808W        W28342   5.137  13.497   0.440 -0.2131  0.0454 -0.0042
 8809W        W28343   3.016   4.051   2.272  0.1152  0.0846  0.0548
 8810W        W28344   7.570   8.311  14.364  0.1058 -0.1796  0.4197
 8811W        W28345   8.273   8.466  14.493 -0.2969 -0.1031 -0.1190
 8812W        W28346  12.637  11.330  15.665  0.1907  0.2271  0.0321
 8813W        W28347   0.945  18.179   1.398  0.0155 -0.1498 -0.0432
 8814W        W28348  10.198  11.379   3.326 -0.1473 -0.0013 -0.2043
 8815W        W28349   0.579   9.885   4.517 -0.2289  0.0283 -0.2712
 8816W        W28350  17.324   6.695   2.638 -0.1670 -0.3853 -0.1232
 8817W        W28351   4.900   6.404   1.938  0.1186  0.0857 -0.0522
 8818W        W28352  15.638   8.883   2.243  0.3085  0.0479  0.5096
 8819W        W28353   9.862  13.750   4.794 -0.3880  0.1661  0.0476
 8820W        W28354   8.765  10.014   2.882 -0.0714  0.1115 -0.0802
 8821W        W28355  12.894  18.174  15.437 -0.2738  0.0614  0.1391
 8822W        W28356   7.535   4.290   4.273  0.0327  0.0192  0.0542
 8823W        W28357   7.809  11.532   3.681 -0.1347  0.1417  0.1393
 8824W        W28358  12.099   7.355   1.691  0.0451  0.0833 -0.2091
 8825W        W28359   9.408  15.789   4.605 -0.0497  0.1707 -0.1445
 8826W        W28360  13.548   3.841  15.393  0.1145 -0.1785  0.3411
 8827W        W28361  15.229   1.940   3.203 -0.1054  0.4334  0.0052
 8828W        W28362   3.570  11.527  14.047  0.1340  0.0984  0.2147
 8829W        W28363   8.225   2.444  10.045  0.1403  0.0164 -0.1344
 8830W        W28364   9.057   0.272  11.508  0.3393 -0.0389  0.0492
 8831W        W28365   5.065  16.868  15.337 -0.0965 -0.1233 -0.1294
 8832W        W28366   7.519   7.391  14.440 -0.0055  0.1027 -0.3780
 8833W        W28367   9.343   0.256   3.341 -0.1243 -0.2063 -0.2010
 8834W        W28368   8.866   7.809  14.659 -0.1567 -0.2125 -0.0814
 8835W        W28369  12.648   4.073  11.831 -0.1067  0.3456  0.0004
 8836W        W28370  16.841  14.813  12.660 -0.0865  0.1941  0.1011
 8837W        W28371   8.383   4.263  14.033 -0.0721 -0.0880 -0.1197
 8838W        W28372  11.713   0.484  11.892 -0.2943  0.0966  0.2873
 8839W        W28373  11.118   0.270  12.367 -0.2803  0.1920 -0.0200
 8840W        W28374   6.184  18.025   0.795 -0.2756  0.0510  0.3202
 8841W        W28375   0.167  11.386   0.716  0.2686  0.0069  0.1660
 8842W        W28376   9.456  16.372   2.232 -0.2279  0.1442 -0.1113
 8843W        W28377   1.062  12.937  13.969 -0.2222  0.0902 -0.0055
 8844W        W28378  12.985   5.501   3.948  0.0671  0.0400  0.0141
 8845W        W28379  12.791   0.849   1.143  0.0839 -0.3652 -0.0972
 8846W        W28380  12.426  16.905  15.823 -0.0900  0.0887  0.1334
 8847W        W28381   8.675   6.368  11.871 -0.2196 -0.1277 -0.1816
 8848W        W28382   8.097   7.633  15.128  0.1325  0.0009  0.2239
 8849W        W28383   7.940   4.959  12.691  0.1123  0.0497  0.1550
 8850W        W28384   0.078   8.305   2.420  0.2919 -0.1637 -0.0025
 8851W        W28385   7.559   5.509  14.638 -0.0071  0.0442 -0.2627
 8852W        W28386   2.987  14.689   3.072  0.1773  0.1277  0.2042
 8853W        W28387  13.620   4.194  11.514 -0.1419  0.0718 -0.2671
 8854W        W28388  15.531  10.830  13.607 -0.1856  0.2605 -0.2357
 8855W        W28389  17.868  16.978  15.499  0.3135 -0.1750  0.0861
 8856W        W28390   3.018   6.976  14.767  0.5317 -0.2227  0.3324
 8857W        W28391   9.111   3.317   0.317  0.1157  0.0357  0.3105
 8858W        W28392   6.526  13.297  14.381  0.0203 -0.0244  0.2905
 8859W        W28393  15.516   2.110  15.424  0.0664 -0.4151 -0.0396
 8860W        W28394  18.153   2.493  13.844 -0.1619 -0.1501 -0.0598
 8861W        W28395   8.325   6.551   3.737  0.2343 -0.2762  0.0712
 8862W        W28396  16.658  13.968  14.451 -0.1921  0.1821 -0.0559
 8863W        W28397   3.887   9.268  16.045 -0.0507  0.0335 -0.0972
 8864W        W28398  16.199   4.045  11.452 -0.0886 -0.1720  0.2137
 8865W        W28399   3.721  17.788  11.699 -0.3500  0.1534  0.0594
 8866W        W28400  11.774  12.578  11.432  0.0908  0.1892 -0.2887
 8867W        W28401   3.369   3.494  12.610  0.1038  0.0574 -0.1071
 8868W        W28402   9.941   6.362   2.140 -0.1274  0.0073  0.2074
 8869W        W28403   3.550  11.848   4.982  0.1132  0.1097 -0.0787
 8870W        W28404  14.570   6.174   4.727  0.1194 -0.1728 -0.1140
 8871W        W28405   7.273  14.974   3.471  0.2537 -0.0104  0.0568
 8872W        W28406  13.034  10.120   2.658 -0.1657 -0.0215  0.0262
 8873W        W28407   0.949   3.898   1.814 -0.0988  0.0716 -0.1171
 8874W        W28408  12.298   7.171  12.295  0.0159  0.0573 -0.0036
 8875W        W28409   7.760   7.181   0.298 -0.2667 -0.1100  0.0224
 8876W        W28410   4.659  11.655  12.983  0.2093 -0.0708 -0.0146
 8877W        W28411   9.874   5.709   1.593  0.0380 -0.1281 -0.0127
 8878W        W28412   2.829  13.821  14.405  0.2059 -0.1658  0.0109
 8879W        W28413   5.508   4.464  15.152  0.2352 -0.0016 -0.0772
 8880W        W28414  16.304   5.526  14.369  0.2498  0.2167  0.1019
 8881W        W28415  11.944  17.518   1.199 -0.1311  0.0207  0.3221
 8882W        W28416  11.982  13.945  12.455  0.1050 -0.1317 -0.2002
 8883W        W28417   0.311   6.068   3.621  0.1690 -0.1050 -0.1048
 8884W        W28418   1.507   8.859  14.819  0.2498 -0.2956 -0.0442
 8885W        W28419  17.990   1.737  11.923  0.1206 -0.1622  0.1044
 8886W        W28420   1.617  16.383   3.628  0.2076  0.1189 -0.3131
 8887W        W28421   4.205   2.137  14.790  0.0894  0.0881  0.0370
 8888W        W28422  10.867  14.776  14.988  0.1453 -0.3601  0.0951
 8889W        W28423   7.448  17.534   2.885 -0.1624  0.1365  0.0232
 8890W        W28424  13.027   4.496   4.586 -0.1108  0.0438  0.1981
 8891W        W28425   5.136   3.920   2.566  0.0486 -0.2141  0.1045
 8892W        W28426  15.226  18.025   0.654 -0.1332  0.2844  0.2262
 8893W        W28427  17.242   3.163  12.106 -0.1653  0.0097  0.0260
 8894W        W28428  15.435  15.034  14.370 -0.0401 -0.1788 -0.0305
 8895W        W28429   6.666  17.349  12.822  0.2391 -0.1046 -0.0099
 8896W        W28430  16.236  10.920   4.549 -0.1811  0.1707 -0.0895
 8897W        W28431   7.914   9.214   3.627 -0.4032  0.1101  0.1535
 8898W        W28432  16.131   6.268   3.593 -0.1974  0.0096  0.1863
 8899W        W28433   8.287  14.385   4.611 -0.0947 -0.2519 -0.2747
 8900W        W28434   8.422  17.354   3.505 -0.1010  0.0044 -0.2088
 8901W        W28435  10.216  12.061   3.484 -0.2086 -0.1710  0.0552
 8902W        W28436   3.273  12.472  15.642  0.0392  0.3171 -0.0249
 8903W        W28437   9.823  16.900  11.970 -0.3384 -0.1354 -0.1250
 8904W        W28438   3.637   2.232   3.612 -0.1567  0.4885  0.0554
 8905W        W28439  13.300  17.588   4.994 -0.1030 -0.1354  0.1651
 8906W        W28440   7.002  16.901   4.342  0.0154 -0.0481  0.0057
 8907W        W28441   3.979   7.341  11.517 -0.2436  0.2190  0.1190
 8908W        W28442  15.347   6.773   0.973  0.1325  0.1019  0.2234
 8909W        W28443  13.638   2.134  13.387  0.2023  0.0747 -0.0727
 8910W        W28444  11.968  13.536   2.684  0.2752  0.1132 -0.2772
 8911W        W28445   9.323   5.527  12.830  0.1823  0.3075  0.0350
 8912W        W28446   8.928  10.943   5.979  0.1619  0.1826  0.0148
 8913W        W28447   4.484   9.583  14.829 -0.2840  0.3318  0.0041
 8914W        W28448  11.023  14.379  14.731 -0.2108 -0.4168 -0.0333
 8915W        W28449   7.911  17.217  14.645 -0.0576 -0.0663 -0.2248
 8916W        W28450   0.329  16.198   3.820 -0.0695  0.3532 -0.1064
 8917W        W28451   0.455   7.978   0.911  0.0931  0.1594  0.0299
 8918W        W28452   0.798  10.142  15.190  0.1406 -0.1662 -0.2982
 8919W        W28453  11.287  13.693   2.115 -0.1235 -0.3140 -0.2137
 8920W        W28454  12.098  15.600   2.462  0.3622  0.0006 -0.1825
 8921W        W28455  12.143   7.148   1.242 -0.1061 -0.2321  0.4422
 8922W        W28456   2.150  10.283  15.134  0.0341 -0.0731 -0.0209
 8923W        W28457   4.187   1.645  14.083  0.2017  0.0659  0.0273
 8924W        W28458  16.188  10.372   3.958  0.0789 -0.2001 -0.2730
 8925W        W28459  13.672   9.791  14.942 -0.3405 -0.1812  0.2061
 8926W        W28460  12.634  16.743  10.691  0.1995  0.1362  0.1430
 8927W        W28461  11.534   0.169  13.683  0.2706  0.4036 -0.0292
 8928W        W28462   0.396   0.715  11.840 -0.1740  0.1671  0.1555
 8929W        W28463   1.936   0.224   1.751 -0.0650  0.3704 -0.1731
 8930W        W28464  16.290  17.714  13.558 -0.1570  0.0513 -0.1204
 8931W        W28465   4.701   2.986  15.727  0.1990  0.0837  0.2091
 8932W        W28466   5.263   1.396   2.284 -0.0130  0.2966  0.0943
 8933W        W28467   8.313   9.803   1.675 -0.2394 -0.1577  0.3437
 8934W        W28468   0.736   3.642   1.431 -0.2973 -0.1051  0.1045
 8935W        W28469   2.746   5.153   3.823 -0.2373 -0.0588  0.3509
 8936W        W28470   8.316  12.893  11.668 -0.0587 -0.0151 -0.1594
 8937W        W28471  13.399   3.034  12.694 -0.0103  0.1536 -0.1473
 8938W        W28472   2.644   1.546  15.869  0.0552 -0.3439 -0.2783
 8939W        W28473   9.917  12.461   0.528  0.0954  0.0510  0.0171
 8940W        W28474   1.925  17.904  13.365  0.1872 -0.0175  0.0631
 8941W        W28475   4.204   7.726   2.501  0.0249  0.0519  0.0738
 8942W        W28476   9.147   2.678   2.611  0.0256 -0.0326 -0.0929
 8943W        W28477  12.493   0.704  12.448 -0.0991 -0.0277  0.1178
 8944W        W28478   4.503   5.954  14.429 -0.1955  0.0434  0.3335
 8945W        W28479  15.733   3.670   2.180  0.2122 -0.0565  0.0857
 8946W        W28480   4.400   9.919  11.569 -0.3078 -0.2531  0.1639
 8947W        W28481  10.674  13.285  12.084 -0.0759 -0.1290 -0.1434
 8948W        W28482  14.823   9.665  15.542 -0.3042  0.0844  0.3799
 8949W        W28483  12.734   0.455   4.649 -0.2313  0.0316  0.0909
 8950W        W28484   5.154  12.733  14.330  0.2021 -0.3283  0.0701
 8951W        W28485   0.546   1.075   3.309  0.0044  0.0406 -0.1628
 8952W        W28486   3.358   8.218  10.664  0.1516  0.0994 -0.1416
 8953W        W28487   4.305   4.864   2.229  0.1808  0.4767  0.0533
 8954W        W28488  13.760   5.954   0.940  0.0250  0.1401 -0.0562
 8955W        W28489  15.563   4.994   3.426 -0.1302  0.1904  0.2086
 8956W        W28490   4.585   2.626   3.534 -0.0622  0.1018  0.2536
 8957W        W28491  13.558   3.539   4.794  0.0485 -0.2338 -0.1450
 8958W        W28492   0.578  18.012  13.162 -0.2026 -0.0757 -0.0942
 8959W        W28493   8.406  17.319  15.410  0.2093 -0.1090 -0.1964
 8960W        W28494  13.516   6.079  14.286  0.3793 -0.2187  0.2618
 8961W        W28495  16.330   2.235   1.524 -0.0388  0.2032  0.0350
 8962W        W28496  13.006  13.489   0.395 -0.0877  0.0935  0.1038
 8963W        W28497  17.892   9.182   2.209  0.1294  0.0521 -0.0160
 8964W        W28498   0.471  11.920  12.749  0.3116 -0.0744 -0.0072
 8965W        W28499   1.929  16.796  11.129 -0.3444 -0.0106 -0.1115
 8966W        W28500  17.031   7.025  11.782 -0.1149  0.0068 -0.2132
 8967W        W28501   2.858  13.073   1.276  0.1910  0.4403  0.0379
 8968W        W28502  16.406  17.253   1.091  0.1212 -0.2405  0.0527
 8969W        W28503  14.866  18.020  15.601 -0.0539 -0.0593 -0.0095
 8970W        W28504  17.815  13.729   3.208 -0.1677  0.1284  0.2167
 8971W        W28505   7.493  12.963  11.584 -0.1529 -0.0814 -0.1544
 8972W        W28506  13.321  16.273   0.105 -0.1216  0.0237 -0.2746
 8973W        W28507   7.652  16.971  12.462 -0.0642 -0.1536  0.3298
 8974W        W28508   2.125   5.838   1.562  0.1378  0.1179  0.0401
 8975W        W28509  15.417   4.558   1.204  0.2304 -0.0222 -0.2751
 8976W        W28510   1.180  12.540  14.345  0.2777 -0.2982  0.0109
 8977W        W28511   2.419   4.906  13.846  0.2015  0.3669 -0.0040
 8978W        W28512  10.248  12.344   0.127 -0.1060 -0.3214  0.1421
 8979W        W28513  16.810   2.425   1.658  0.0430  0.2465  0.2783
 8980W        W28514   8.301   2.395  14.894  0.0907  0.0447  0.1666
 8981W        W28515  15.084   8.404  13.809  0.0214  0.4534  0.2312
 8982W        W28516   6.236   5.561   1.740 -0.0134 -0.0900  0.3133
 8983W        W28517  12.132   6.443  13.860 -0.0212 -0.1140  0.1087
 8984W        W28518  17.209   5.598  13.262 -0.0736  0.2024  0.0782
 8985W        W28519   6.295   4.983   4.146  0.1036 -0.0152 -0.1327
 8986W        W28520   7.623  10.322  14.406  0.1144  0.0572  0.1014
 8987W        W28521  14.405  10.341  15.951  0.0742  0.3750  0.1501
 8988W        W28522   9.455   8.167  14.981 -0.0832  0.1065  0.0381
 8989W        W28523   9.862   4.352  14.730  0.0798 -0.1459 -0.0792
 8990W        W28524   5.468   7.038  13.741 -0.1672 -0.3548  0.2073
 8991W        W28525   3.097   1.644   0.000  0.2618  0.0967  0.1101
 8992W        W28526   6.088  15.986  12.566 -0.1501  0.1823 -0.0037
 8993W        W28527  12.627  13.615  11.232 -0.0657  0.1025  0.1161
 8994W        W28528   1.259   1.934   2.314 -0.3155 -0.1639 -0.1861
 8995W        W28529  10.221  12.658   2.615 -0.0506  0.0542 -0.2465
 8996W        W28530  10.038  10.145  11.847  0.0891  0.2454  0.1582
 8997W        W28531   1.533  17.976  13.035  0.0738  0.0309 -0.0885
 8998W        W28532  14.241   2.286  15.904  0.1742 -0.3626 -0.0998
 8999W        W28533  11.303   1.756  13.055 -0.0253 -0.0813 -0.2143
 9000W        W28534   0.255  17.903  15.436 -0.0144 -0.0721 -0.1525
 9001W        W28535   3.129   2.344   4.606  0.0241 -0.1327  0.2938
 9002W        W28536  16.324   3.273   0.347  0.0268  0.3119 -0.2225
 9003W        W28537  15.148   5.921  14.673  0.2604  0.2003 -0.0963
 9004W        W28538  16.431   0.219   0.173 -0.2817 -0.0074 -0.1208
 9005W        W28539   7.592   1.031  14.281 -0.0092  0.0130 -0.1334
 9006W        W28540   0.151   1.991  16.058 -0.0845  0.0647 -0.1033
 9007W        W28541   4.644   9.593  12.783  0.2540  0.0739  0.0319
 9008W        W28542   6.056   7.032  11.665  0.0333  0.2170 -0.0786
 9009W        W28543   1.451   5.873  12.512 -0.0868 -0.0998  0.0885
 9010W        W28544  12.443  16.804  14.634  0.2696  0.2747 -0.2101
 9011W        W28545  16.978  17.101  13.701 -0.0504  0.0515 -0.3125
 9012W        W28546   5.523  17.122   0.968  0.0386  0.0765  0.2040
 9013W        W28547   0.795   7.921  15.590 -0.0787  0.0061 -0.4644
 9014W        W28548   1.517  12.061   2.206  0.0270 -0.0530 -0.1747
 9015W        W28549  15.693  14.198  11.787 -0.0110 -0.2195 -0.1284
 9016W        W28550   7.963   8.853   4.075 -0.0630 -0.1260 -0.1595
 9017W        W28551  13.064   8.195  12.016  0.2733 -0.0388  0.0099
 9018W        W28552  11.807   7.817   1.808 -0.3594 -0.1810 -0.0691
 9019W        W28553   4.339  15.590   1.325  0.2022 -0.0533  0.0021
 9020W        W28554   0.318   0.681  15.861 -0.0502 -0.1820  0.1078
 9021W        W28555   0.358  10.150  15.464 -0.0367 -0.2496  0.0021
 9022W        W28556  16.832  12.503   3.685  0.1235 -0.1597 -0.0742
 9023W        W28557   4.525   3.217   3.291 -0.1461 -0.0672 -0.0534
 9024W        W28558  14.228   1.943  11.688 -0.0311 -0.1494 -0.3485
 9025W        W28559  17.608   9.161   4.025 -0.0846  0.2297  0.0744
 9026W        W28560   6.430   6.369  15.142 -0.1295 -0.2164  0.2442
 9027W        W28561   0.254   5.137   2.221 -0.1867  0.0649 -0.0631
 9028W        W28562   4.097  11.844  11.004  0.2503 -0.0235  0.0347
 9029W        W28563   6.640   1.268   4.624  0.2266  0.0216  0.1785
 9030W        W28564   4.515  14.511  11.876 -0.1845 -0.4130 -0.0882
 9031W        W28565   1.786   0.091  15.353  0.1306  0.0688 -0.0129
 9032W        W28566  17.713  17.086  14.265  0.3771  0.1214  0.1365
 9033W        W28567   5.006  12.418  11.432 -0.0469  0.0699 -0.0569
 9034W        W28568  12.622   4.072  12.757  0.2278  0.3695  0.1080
 9035W        W28569   3.865   6.928   3.837 -0.0219 -0.3229 -0.0042
 9036W        W28570  16.884   2.436  13.571 -0.1695 -0.3673  0.2440
 9037W        W28571  17.500   1.060  15.677 -0.0394  0.0323  0.1726
 9038W        W28572  18.095   3.141   0.461  0.0008 -0.2317  0.1633
 9039W        W28573  13.017   4.117   0.763 -0.1309  0.2238  0.1709
 9040W        W28574  12.748  17.045   3.206 -0.2278 -0.1354  0.0225
 9041W        W28575   1.454  14.238   2.538 -0.1701  0.1774  0.0543
 9042W        W28576  12.983   9.639  14.228  0.1054 -0.4987 -0.3826
 9043W        W28577   6.759  10.184   2.356  0.0260  0.2282 -0.2291
 9044W        W28578   8.053  17.840  13.733 -0.0876  0.2005  0.0279
 9045W        W28579   9.900   3.970  13.890  0.2252  0.2548  0.2578
 9046W        W28580   9.836  11.430   2.049  0.2075  0.0548  0.1743
 9047W        W28581   8.863  13.881   2.196 -0.1038  0.1538 -0.1465
 9048W        W28582   0.827   5.816   3.897  0.0078 -0.0196  0.1993
 9049W        W28583  12.623   0.280   2.841  0.2598  0.1511  0.0678
 9050W        W28584  16.619  11.772   1.483  0.1664  0.1697 -0.4666
 9051W        W28585  12.792   3.040   0.373  0.0244  0.2182 -0.0190
 9052W        W28586   1.933  16.463  10.659 -0.0321  0.0637  0.1108
 9053W        W28587   9.340   2.340   1.419 -0.4436 -0.1693  0.0772
 9054W        W28588   0.534   2.023   3.198 -0.1860  0.2303 -0.0605
 9055W        W28589  14.584  13.207   5.517  0.0212 -0.0200  0.1278
 9056W        W28590   5.013  11.108  15.876 -0.0372 -0.1262 -0.1404
 9057W        W28591   8.670  11.432  14.363 -0.1745  0.0509  0.0227
 9058W        W28592  17.373  15.686   4.131 -0.4239 -0.0672 -0.1960
 9059W        W28593  13.424   8.663   3.044  0.1435 -0.0975  0.2527
 9060W        W28594   5.204   8.076   5.295 -0.2011  0.1535  0.0818
 9061W        W28595  18.119  16.027  15.107 -0.1000 -0.1523 -0.0164
 9062W        W28596   8.072  12.849   5.225  0.1948  0.0057  0.1638
 9063W        W28597   0.896   0.423   1.762 -0.1837  0.0807  0.2499
 9064W        W28598  13.813   6.041   2.830 -0.1304 -0.0675 -0.0878
 9065W        W28599   1.195   8.320  10.796 -0.2212 -0.1169  0.0119
 9066W        W28600  17.123  13.365  11.965 -0.1292 -0.0421 -0.1192
 9067W        W28601  11.940   1.901  13.660  0.0087 -0.0695 -0.0342
 9068W        W28602   2.866  17.369   4.326  0.0126  0.2143 -0.1465
 9069W        W28603  17.834  16.624   3.264  0.3407 -0.1688 -0.1110
 9070W        W28604  16.480   1.047  10.595 -0.0469  0.0717 -0.0213
 9071W        W28605  14.952   5.377  13.031 -0.0516  0.1733 -0.1893
 9072W        W28606   2.392   0.686  13.727  0.0282 -0.0194  0.2100
 9073W        W28607   3.994  15.778  12.353 -0.2168 -0.3605  0.0628
 9074W        W28608  10.441   5.158  14.777 -0.0904  0.0414 -0.1116
 9075W        W28609   9.386   8.365  13.027 -0.0127 -0.1193  0.0258
 9076W        W28610  11.236   7.814  11.961 -0.0662 -0.1443  0.1542
 9077W        W28611   5.797   1.310  12.898 -0.1649 -0.2580  0.0257
 9078W        W28612   8.772  17.072   3.345 -0.0365 -0.1672 -0.2555
 9079W        W28613   9.083  11.875   3.744  0.0289 -0.1653  0.1483
 9080W        W28614   6.809  16.168   2.775  0.1939 -0.0434  0.0983
 9081W        W28615   3.121   8.625   4.399  0.1482 -0.2012 -0.0433
 9082W        W28616   3.996  16.639   2.887 -0.3986  0.1360  0.1882
 9083W        W28617  12.429   6.205  14.230  0.2034 -0.1323 -0.2124
 9084W        W28618   8.822  18.107  13.277 -0.2450 -0.0391 -0.1354
 9085W        W28619   3.044   4.860   1.981  0.2695  0.0496  0.0397
 9086W        W28620  10.072  12.024  12.366 -0.1999  0.4189 -0.1573
 9087W        W28621   1.437  17.183   4.110  0.0337 -0.0217  0.1196
 9088W        W28622   7.268  13.094   3.994 -0.0732 -0.2533  0.2788
 9089W        W28623  17.603   9.335  15.481 -0.2423  0.0901 -0.2953
 9090W        W28624  12.758   0.466  15.230  0.1013  0.1330 -0.1971
 9091W        W28625   5.860   2.274  10.951  0.0880  0.0714 -0.0616
 9092W        W28626  17.566  10.296  14.867  0.3441 -0.2068 -0.4953
 9093W        W28627   7.234   7.737  13.820 -0.0627  0.1377 -0.2379
 9094W        W28628  16.063   4.005   2.695 -0.2193 -0.1846  0.2512
 9095W        W28629  13.115   3.460  13.434  0.1180  0.0658 -0.0127
 9096W        W28630   0.942  12.206  15.691  0.1835 -0.0018  0.0751
 9097W        W28631   1.671  14.431  13.202  0.0350 -0.4188  0.0573
 9098W        W28632  13.891  15.161  13.447 -0.0479  0.3449  0.1591
 9099W        W28633  15.278   5.799  12.909  0.2049  0.0378  0.2864
 9100W        W28634  12.292   9.719  14.411  0.0149  0.0280 -0.0293
 9101W        W28635  10.830  11.834  10.844 -0.0608  0.0479 -0.2257
 9102W        W28636   4.562   3.822   0.632  0.1053  0.0793  0.1670
 9103W        W28637   7.696   9.955   1.864 -0.1399 -0.0980 -0.1421
 9104W        W28638   6.943   6.955  15.997 -0.3680 -0.1896 -0.0933
 9105W        W28639   6.900   9.985  10.628 -0.1661  0.4119  0.0312
 9106W        W28640  10.540  16.082  12.631  0.5637  0.0578  0.1999
 9107W        W28641   5.049   2.502   3.617 -0.2147  0.1549 -0.1134
 9108W        W28642   5.930  16.548  13.659  0.1561  0.0010 -0.3269
 9109W        W28643  14.764  17.103  13.168  0.2526 -0.0864  0.2634
 9110W        W28644  17.939   7.624   0.252 -0.2264  0.2221 -0.0217
 9111W        W28645  12.441   0.661   0.473 -0.0171  0.1568 -0.3289
 9112W        W28646  13.889   7.951   4.424 -0.0779  0.0655 -0.1874
 9113W        W28647   5.614  15.817   3.011  0.3276  0.0552  0.0936
 9114W        W28648   3.668   0.991  11.871 -0.1526 -0.3591  0.0512
 9115W        W28649  12.564  14.555   3.269 -0.1622  0.2843 -0.0418
 9116W        W28650   1.957  14.255   2.282  0.0777 -0.0038 -0.1270
 9117W        W28651   8.447  10.395   4.962 -0.1067 -0.0592  0.0279
 9118W        W28652  18.038   9.868  13.762  0.0271  0.0971 -0.0617
 9119W        W28653   4.373  14.160   2.476 -0.0076 -0.2202  0.2319
 9120W        W28654  15.036   2.422   3.276 -0.1016 -0.0392 -0.3472
 9121W        W28655  17.287  14.895   2.672  0.0148 -0.0239 -0.0799
 9122W        W28656   1.874   2.150  14.181 -0.4509 -0.1392  0.1200
 9123W        W28657  13.197  17.184   4.298 -0.1578  0.1541  0.2364
 9124W        W28658   2.537   9.285   5.627  0.0773  0.2761 -0.0968
 9125W        W28659   2.541  16.807  13.310 -0.1574 -0.1134 -0.0102
 9126W        W28660  10.104   3.091   1.211  0.0870 -0.0755 -0.1039
 9127W        W28661   9.689   1.702   3.953  0.1496 -0.0503 -0.0632
 9128W        W28662   0.218  11.762  12.346  0.0434 -0.0465 -0.2114
 9129W        W28663  12.867   5.821  13.117  0.0823  0.0016 -0.2175
 9130W        W28664   4.374  17.227   3.344  0.2270  0.1369 -0.0445
 9131W        W28665  16.015   5.037   5.950 -0.2140  0.0236 -0.1070
 9132W        W28666   8.292  18.117   2.771 -0.0815 -0.1267  0.0753
 9133W        W28667   1.315   4.592  15.794  0.1462 -0.0409  0.0621
 9134W        W28668   5.573  16.333   1.528 -0.1710 -0.4031  0.0927
 9135W        W28669   6.772   5.357  13.475 -0.1679  0.0239  0.0374
 9136W        W28670   0.691   9.110   1.935  0.2354  0.1311 -0.0651
 9137W        W28671   6.034   3.789  11.537  0.3491 -0.1676 -0.1710
 9138W        W28672   3.140   1.222  14.299  0.1756  0.0425 -0.2368
 9139W        W28673   8.064  14.897  14.726 -0.0524 -0.2262  0.1158
 9140W        W28674  11.873  16.856   4.463  0.1948 -0.1893  0.1027
 9141W        W28675   0.512   1.869   0.355 -0.2433 -0.0033  0.0963
 9142W        W28676   3.704  12.501   2.259  0.4448 -0.1784 -0.0389
 9143W        W28677   2.343  10.790  12.047  0.0034 -0.0775  0.0976
 9144W        W28678  15.733   2.861  15.602  0.2711  0.0712  0.2333
 9145W        W28679  16.599   2.341   0.726  0.0948  0.1770 -0.0693
 9146W        W28680   2.471  14.399   1.260 -0.2452 -0.2807 -0.1489
 9147W        W28681  14.629  11.736   2.009 -0.1598  0.1219 -0.0218
 9148W        W28682   8.986   7.654   3.330 -0.1050  0.4166 -0.1172
 9149W        W28683  17.974  12.607  13.789 -0.0721  0.1170 -0.1259
 9150W        W28684   0.258   0.508   4.322  0.2183  0.0051  0.0937
 9151W        W28685   2.660  16.859  14.356  0.1956  0.0564 -0.0103
 9152W        W28686   6.527   5.983  14.115  0.1182  0.0289 -0.1154
 9153W        W28687  12.941  17.725   4.205  0.0255  0.0013 -0.0375
 9154W        W28688  11.860   9.044   1.988 -0.1801  0.1625  0.4304
 9155W        W28689   0.909  10.523  13.820 -0.0308 -0.1346 -0.0378
 9156W        W28690  13.635   8.866  15.258  0.1053 -0.2392 -0.1489
 9157W        W28691   2.704  16.430  12.325 -0.0465 -0.1469  0.0862
 9158W        W28692   2.639  14.315  13.454  0.2886 -0.2152 -0.1113
 9159W        W28693   5.484  12.175   1.756 -0.1343  0.0181 -0.2114
 9160W        W28694  12.340  16.770   2.852 -0.2117  0.0452 -0.0425
 9161W        W28695   0.013  17.076  14.406  0.1703  0.0517 -0.3784
 9162W        W28696   7.063   8.703   3.961  0.2301 -0.1680 -0.1298
 9163W        W28697  16.892  16.527   1.810 -0.1497  0.0668  0.1098
 9164W        W28698   5.711   0.281   3.667 -0.2030 -0.3672  0.1708
 9165W        W28699   4.090   9.918   4.353  0.1092 -0.2387  0.2269
 9166W        W28700   0.506   8.267  15.310  0.0040  0.1237  0.2098
 9167W        W28701  12.671   6.788   1.110 -0.2532 -0.1289  0.1704
 9168W        W28702  10.199   6.207  12.758  0.0435 -0.0610  0.2058
 9169W        W28703  11.886   9.606   1.690 -0.0687  0.1200  0.0764
 9170W        W28704  16.462   4.810  15.230 -0.2969 -0.0374  0.0709
 9171W        W28705   6.214   6.269  14.292  0.0007  0.1795  0.0266
 9172W        W28706  15.122  17.690  15.314  0.2074 -0.0829  0.3250
 9173W        W28707  15.465  16.910   2.534  0.0228 -0.2113  0.0913
 9174W        W28708  14.455   8.564  15.850  0.0879  0.0255 -0.1322
 9175W        W28709   2.799  16.987   1.443  0.0733 -0.1053  0.1498
 9176W        W28710   0.267   6.361   1.922  0.0493  0.0778 -0.0031
 9177W        W28711   4.174  15.031   9.998  0.0177  0.2323 -0.0435
 9178W        W28712  15.853   1.197   1.435  0.3645 -0.1312  0.2445
 9179W        W28713  16.754   9.861   4.710 -0.0423 -0.1081  0.0606
 9180W        W28714   7.994  10.860   2.018 -0.0012 -0.1452 -0.4462
 9181W        W28715  17.101  17.517   1.541 -0.4136  0.0213 -0.0688
 9182W        W28716  17.440  16.241   0.195 -0.2444 -0.2513 -0.0289
 9183W        W28717   5.674   6.289   1.558  0.0831  0.0198  0.1556
 9184W        W28718   5.843   2.782   0.985 -0.1086  0.5661 -0.0923
 9185W        W28719  14.766  17.110   1.491 -0.0453 -0.1329  0.2950
 9186W        W28720  12.507   3.595  14.042  0.1678 -0.0026 -0.1244
 9187W        W28721   5.543   4.794   1.849  0.0200 -0.0452 -0.4080
 9188W        W28722   7.209   3.305  13.383 -0.0300 -0.2661  0.3569
 9189W        W28723  17.926   7.450  14.064 -0.0023  0.2432 -0.0783
 9190W        W28724  16.745  13.454   1.709  0.0410 -0.1497  0.0670
 9191W        W28725  15.997  13.727   1.235 -0.1540 -0.0422  0.2007
 9192W        W28726  12.151   1.960  13.188  0.2189  0.1453  0.3375
 9193W        W28727   8.367  13.851   4.397 -0.2007  0.0984 -0.0831
 9194W        W28728   8.462  10.875  12.898 -0.1290  0.0218  0.0565
 9195W        W28729  11.524   6.030  11.998  0.1364  0.0423  0.0307
 9196W        W28730  11.309   6.764  14.102  0.1578  0.1975 -0.2439
 9197W        W28731   9.425   2.990   1.977  0.0083  0.0585  0.1039
 9198W        W28732  12.289   0.537   3.087  0.1667  0.0508 -0.1636
 9199W        W28733  13.448   3.095   4.405 -0.2081  0.1810 -0.1180
 9200W        W28734  18.086  16.056  12.132  0.0386 -0.1505  0.3114
 9201W        W28735  17.201  15.014   1.332 -0.2144 -0.0489 -0.0803
 9202W        W28736   7.136   9.603   2.336 -0.3907  0.0223  0.1108
 9203W        W28737  13.439   1.964  12.437  0.3855  0.0386  0.6080
 9204W        W28738   3.976   3.871   3.961  0.0039 -0.2205 -0.2680
 9205W        W28739  17.635   5.229   0.594  0.2356  0.0605 -0.0015
 9206W        W28740   2.840  12.557   4.522  0.0238 -0.0914  0.2182
 9207W        W28741   6.750   0.730  13.353 -0.2681  0.3099  0.0003
 9208W        W28742   8.389  13.958   1.990 -0.0144  0.0686  0.0682
 9209W        W28743  11.396  17.399  13.573 -0.0313 -0.1069 -0.0156
 9210W        W28744  16.544   7.805   2.553  0.2392 -0.0476  0.0241
 9211W        W28745  17.459   8.611  11.230  0.2026  0.1285  0.0775
 9212W        W28746  12.736  17.063  12.373 -0.0517 -0.0889 -0.1524
 9213W        W28747  14.836  18.094  12.967  0.0091 -0.1835  0.0441
 9214W        W28748  11.532  12.449  15.994 -0.4651  0.0290 -0.0384
 9215W        W28749   3.263   2.108  15.150 -0.3841 -0.1034 -0.1357
 9216W        W28750   6.922  16.460   3.158  0.1567  0.4519 -0.1740
 9217W        W28751   6.778  10.608   5.096 -0.0088  0.3384  0.0268
 9218W        W28752   5.261   0.389  11.839 -0.1153  0.1054  0.2457
 9219W        W28753  13.651  17.681   1.262 -0.0447 -0.0125 -0.0560
 9220W        W28754   4.416   3.655  13.393  0.1325 -0.1195 -0.1554
 9221W        W28755   5.173   0.489  15.594 -0.0139  0.1802  0.0193
 9222W        W28756   1.881   4.698  12.120 -0.0636  0.0809  0.2579
 9223W        W28757   9.645   7.518  14.105  0.2994 -0.1083 -0.0234
 9224W        W28758  12.586  13.387  10.657  0.2747 -0.0752 -0.0029
 9225W        W28759   0.371  16.501   2.031  0.1742 -0.0933  0.1719
 9226W        W28760  14.437   2.750  15.702  0.2286 -0.0685 -0.0261
 9227W        W28761   4.377   0.815   1.461 -0.1552  0.2854 -0.1438
 9228W        W28762  18.061   0.629  16.031 -0.1361 -0.0485 -0.1782
 9229W        W28763   5.715  12.969   2.244  0.0371 -0.2685  0.0320
 9230W        W28764   5.751   7.695  15.686  0.3072 -0.0171 -0.0862
 9231W        W28765   4.449  16.215   0.134  0.0076 -0.0299  0.0829
 9232W        W28766   7.401   9.751   1.357  0.1974 -0.1604 -0.1678
 9233W        W28767  10.351  10.276  12.251  0.0542  0.3565  0.0921
 9234W        W28768   3.202  17.921   0.257  0.0733  0.0103 -0.0129
 9235W        W28769   1.291  11.717  15.657  0.3307 -0.3107 -0.0165
 9236W        W28770   8.258  14.638   3.595 -0.2010 -0.2612  0.1608
 9237W        W28771   4.873   5.841   4.257 -0.2384  0.0830 -0.2071
 9238W        W28772  14.333  11.190   0.441 -0.2873  0.0169 -0.1450
 9239W        W28773  16.247   6.635  13.909 -0.1161 -0.0890 -0.0723
 9240W        W28774  10.314   2.858  12.882  0.0516  0.3198  0.0192
 9241W        W28775   5.296   1.198  12.742  0.3704 -0.1707 -0.1196
 9242W        W28776   5.972  16.107   3.825 -0.3660 -0.0959 -0.0364
 9243W        W28777   6.796   6.854  11.398 -0.0622 -0.0341 -0.1392
 9244W        W28778  14.532   6.045  10.809  0.0927 -0.2388 -0.0161
 9245W        W28779  17.024   9.403   3.977 -0.0706  0.1324 -0.0822
 9246W        W28780   3.057  11.486  13.991  0.0205 -0.0584  0.0721
 9247W        W28781   6.687   1.485   3.811 -0.1266 -0.0486 -0.2549
 9248W        W28782   7.469   0.157   0.462 -0.0398  0.2953  0.0209
 9249W        W28783   1.001   0.780  15.136  0.0142  0.0118  0.1359
 9250W        W28784   3.950  10.131   0.688  0.1284 -0.2021  0.1068
 9251W        W28785  16.150   5.667   4.469  0.0874  0.1708  0.1622
 9252W        W28786  11.230   9.548   1.003  0.0629  0.0481  0.3203
 9253W        W28787   6.664   2.679   1.625 -0.0796  0.2646  0.0202
 9254W        W28788  10.497   7.512  12.661 -0.1974 -0.0435  0.0941
 9255W        W28789   2.046  14.514  12.838  0.4175  0.1647  0.0032
 9256W        W28790  10.603   7.407   0.131 -0.0917 -0.2269 -0.2047
 9257W        W28791  13.254  11.615   4.017 -0.1379 -0.2688 -0.0056
 9258W        W28792  11.691  14.090   4.354 -0.2839 -0.0877  0.2384
 9259W        W28793   2.752  16.186   2.120 -0.3695  0.5123  0.1088
 9260W        W28794   1.884   1.499   4.045 -0.0498 -0.2259 -0.0214
 9261W        W28795  10.306  13.880  13.104  0.0832 -0.2085 -0.0265
 9262W        W28796   8.447   5.793  13.522  0.1031 -0.0080 -0.0603
 9263W        W28797   6.853   6.250  13.734  0.0818  0.2354 -0.2922
 9264W        W28798   8.356  15.170   4.137 -0.3761  0.1163 -0.0208
 9265W        W28799  12.510  14.298  15.860 -0.2681 -0.1699  0.3133
 9266W        W28800   5.683  14.989  14.208 -0.2835  0.1127 -0.2696
 9267W        W28801  10.909  14.026  11.524 -0.0587  0.1381 -0.2846
 9268W        W28802  14.855   4.497   0.430  0.0772 -0.3331  0.0720
 9269W        W28803   9.998   5.465  13.303  0.0320  0.2315  0.1191
 9270W        W28804   1.015  13.676  15.342 -0.0696  0.0654  0.1754
 9271W        W28805   8.169   3.431  14.535 -0.0684  0.0543 -0.2531
 9272W        W28806   5.628  16.155  14.434 -0.0839 -0.3125 -0.0930
 9273W        W28807   1.221   0.833   2.471  0.1701 -0.1650  0.1750
 9274W        W28808  11.682   5.067  14.311 -0.1575 -0.0009 -0.1177
 9275W        W28809   9.883  11.379  15.375  0.1612  0.1185 -0.0240
 9276W        W28810   6.184  14.313   0.761 -0.1086  0.1340 -0.0132
 9277W        W28811  15.004   3.657  13.888 -0.2131  0.1224  0.0097
 9278W        W28812   7.394  13.722  13.345  0.1052 -0.2861 -0.0219
 9279W        W28813   2.814   9.703  12.758 -0.4001  0.0233 -0.3446
 9280W        W28814   1.662  17.022  12.943 -0.4086  0.1141 -0.1419
 9281W        W28815  12.940   4.936  14.748  0.3279  0.0956  0.0353
 9282W        W28816   2.872  14.444  15.115 -0.1662  0.0779  0.1349
 9283W        W28817  16.706  10.177  12.359  0.1363 -0.1191 -0.4228
 9284W        W28818   0.119   4.954   1.744  0.2484  0.3580 -0.1398
 9285W        W28819   0.598  12.460   1.845 -0.2287 -0.2808 -0.1295
 9286W        W28820  14.476   8.105   4.597  0.1277  0.0329  0.0917
 9287W        W28821  12.707   1.348  11.927 -0.1082  0.0391 -0.0218
 9288W        W28822   1.580   9.960  13.379  0.3298  0.0216 -0.1474
 9289W        W28823   8.102  17.033  14.142 -0.0988  0.0356  0.1072
 9290W        W28824  15.407   1.325   4.271  0.3313 -0.0706  0.0265
 9291W        W28825  10.287  12.136   2.652  0.0103 -0.2984  0.0991
 9292W        W28826   5.939  15.196  15.642  0.0147 -0.0767 -0.0014
 9293W        W28827  15.695  13.903   2.208  0.2136 -0.0095  0.3543
 9294W        W28828   4.511  10.413  12.473 -0.0470  0.1021 -0.0214
 9295W        W28829  11.830   7.172  12.484 -0.1538 -0.1338  0.1207
 9296W        W28830   7.278   2.138   4.290 -0.0517  0.0747 -0.5594
 9297W        W28831  10.932   0.321   3.226 -0.0863  0.0116 -0.0862
 9298W        W28832  13.383   9.624   0.541 -0.1214 -0.1809  0.0425
 9299W        W28833   0.697  15.677  15.056  0.1355  0.0126 -0.0925
 9300W        W28834   8.194   9.582   0.671  0.0664 -0.1089 -0.1581
 9301W        W28835   8.078   0.414  12.649  0.1430  0.0463 -0.2320
 9302W        W28836   7.893  11.156   4.887  0.1447 -0.1502 -0.3326
 9303W        W28837   0.473   2.755   0.779  0.1774  0.1375 -0.0288
 9304W        W28838  14.841  15.230   0.933 -0.1840  0.1330 -0.0542
 9305W        W28839  12.796   3.447   3.790 -0.0912 -0.0628  0.0810
 9306W        W28840  13.069  13.393  10.281 -0.1096  0.4581  0.2275
 9307W        W28841  14.935  16.966   0.800 -0.0636 -0.0449  0.1466
 9308W        W28842   4.765  17.785   0.832  0.0018 -0.2841  0.0787
 9309W        W28843  18.093  13.131   4.630  0.0334 -0.0400 -0.1457
 9310W        W28844   6.469   6.669  13.766 -0.0669  0.1782 -0.1242
 9311W        W28845   7.080   0.574  14.998  0.0007 -0.1700 -0.1549
 9312W        W28846  13.442  13.356  14.466  0.1438  0.0984 -0.2706
 9313W        W28847   3.097  15.814  15.794 -0.0513 -0.1743  0.2010
 9314W        W28848   3.211   9.670  13.251  0.1626 -0.2218 -0.0329
 9315W        W28849   4.692  17.525  12.954  0.0484 -0.1194  0.2573
 9316W        W28850   7.559  12.516   3.437 -0.3843 -0.2518  0.3279
 9317W        W28851  16.437   1.943   3.050 -0.1266  0.1739  0.1667
 9318W        W28852   7.025  12.286   2.529 -0.2316 -0.0875 -0.2000
 9319W        W28853   6.669  10.467   2.795 -0.0429 -0.0939 -0.0626
 9320W        W28854   3.452   7.033  15.479  0.0380 -0.0480  0.2388
 9321W        W28855   0.952  14.720   1.984  0.3059 -0.1670  0.1863
 9322W        W28856  16.994  11.262  12.276 -0.1108 -0.1123 -0.3888
 9323W        W28857   1.962  13.658  12.421  0.0540  0.2135  0.1435
 9324W        W28858  11.977  12.675  13.783 -0.1682 -0.2531 -0.0764
 9325W        W28859   0.855   2.766   3.233  0.0141  0.0720 -0.0317
 9326W        W28860   9.940   5.871  14.696 -0.1137  0.3010  0.2592
 9327W        W28861  15.441   2.898   3.536 -0.0022  0.1043  0.1791
 9328W        W28862  18.118   9.800   0.226 -0.0930  0.0704 -0.2086
 9329W        W28863  14.792  14.375  13.408 -0.0047 -0.0699 -0.1525
 9330W        W28864  15.469  13.714  15.433 -0.0181 -0.1713 -0.2626
 9331W        W28865   5.611  11.673   0.993 -0.1560 -0.0821 -0.2506
 9332W        W28866   2.966  11.023  15.084  0.1232  0.0221 -0.4981
 9333W        W28867   4.299   0.952   0.937  0.0018  0.0054  0.3734
 9334W        W28868   8.151   8.480   0.631 -0.1668  0.1310 -0.0199
 9335W        W28869  12.592   9.405   1.100 -0.2517  0.0670  0.2460
 9336W        W28870  10.836   7.765   0.357 -0.2281 -0.2796  0.1965
 9337W        W28871   0.892  18.072  14.282 -0.1211 -0.2444  0.2020
 9338W        W28872  12.553  14.270   2.343  0.0202  0.0334 -0.2842
 9339W        W28873   7.782   4.315  12.984 -0.0379  0.1366  0.2367
 9340W        W28874  11.049   8.702  13.745 -0.2244  0.0633  0.0086
 9341W        W28875  14.122  17.374   2.600 -0.0777 -0.1557  0.0500
 9342W        W28876  15.163   2.942  12.119  0.0029  0.2193 -0.0649
 9343W        W28877  11.659   7.785  14.314  0.0422 -0.1655  0.1738
 9344W        W28878  12.175  13.954  12.924 -0.1433  0.0314 -0.0549
 9345W        W28879   4.940   4.762   0.748  0.2866 -0.1504  0.1746
 9346W        W28880   8.886   0.262  12.911  0.2570  0.1930  0.0242
 9347W        W28881  13.747  10.326  11.898 -0.0831 -0.2797  0.0989
 9348W        W28882   4.729   6.073   1.449  0.1151 -0.0796 -0.0693
 9349W        W28883  15.467   9.180  15.413  0.0941 -0.1955  0.0643
 9350W        W28884   9.410   7.640   4.341  0.0166 -0.1386  0.1841
 9351W        W28885   0.958  10.098  12.417  0.0497  0.0924  0.0857
 9352W        W28886  16.082   4.473  13.195 -0.2037 -0.1197  0.1570
 9353W        W28887   2.868  13.908  13.262 -0.0159  0.1603  0.1500
 9354W        W28888   0.751   9.373  12.302  0.0840  0.0804 -0.0695
 9355W        W28889   8.146  10.046  10.810 -0.2800 -0.0510 -0.3566
 9356W        W28890   2.346   5.212   3.000  0.2896 -0.1249 -0.1978
 9357W        W28891   6.102   0.360   1.759  0.0182  0.0340  0.0844
 9358W        W28892  16.515  13.527   0.761 -0.0883  0.3277  0.0287
 9359W        W28893  10.008   6.748   3.103  0.1802  0.0945  0.0061
 9360W        W28894  12.662  14.746   2.067 -0.1894  0.0810  0.0480
 9361W        W28895  15.948  16.659  15.502  0.0193 -0.0829 -0.0734
 9362W        W28896  15.331  10.536   4.211  0.0930 -0.0852 -0.0729
 9363W        W28897   0.379  15.573  14.316 -0.2085  0.1216  0.3473
 9364W        W28898  16.151  13.714  13.075 -0.1643  0.4598 -0.2114
 9365W        W28899   4.847  10.842   3.852  0.0414  0.0829  0.3216
 9366W        W28900   6.076  16.966   5.570  0.0443 -0.0389 -0.1403
 9367W        W28901  12.670   2.731   0.760  0.0813  0.0896  0.0019
 9368W        W28902  13.609  17.449   3.469 -0.0693 -0.1908  0.1067
 9369W        W28903   3.275   4.554  10.594 -0.1062  0.0910 -0.2322
 9370W        W28904  14.806  14.360  15.610  0.2612  0.0797 -0.1809
 9371W        W28905   0.569  14.004   2.091 -0.0397  0.1686  0.0472
 9372W        W28906  11.016   4.613  14.014  0.1375 -0.0687  0.2866
 9373W        W28907   4.360  13.439  12.923  0.0846 -0.1492 -0.0657
 9374W        W28908  13.683   1.258   0.492  0.1492  0.0661 -0.1686
 9375W        W28909   2.881  10.291  11.990 -0.2190  0.1638 -0.2529
 9376W        W28910   6.837   3.712   4.391 -0.1435 -0.1667 -0.4510
 9377W        W28911  13.842  14.174   0.430 -0.0743  0.0670  0.4464
 9378W        W28912  12.883   6.404  15.009 -0.0218 -0.0056 -0.1896
 9379W        W28913   1.581   2.914  13.203 -0.1097  0.0527  0.2204
 9380W        W28914   7.659   5.251   2.308 -0.2676 -0.0333  0.0783
 9381W        W28915   4.756   3.763   4.283 -0.4570  0.0575 -0.2132
 9382W        W28916   4.480   8.159   3.913 -0.2973 -0.3559  0.1059
 9383W        W28917   0.963  16.472   0.860 -0.1469  0.0007  0.0440
 9384W        W28918   7.690   7.723   1.066 -0.0473  0.2658  0.1295
 9385W        W28919   8.014   9.921  15.033  0.0997 -0.0150 -0.0421
 9386W        W28920  11.104  11.895   1.085  0.1980 -0.4429 -0.0201
 9387W        W28921   1.973  10.994   1.456 -0.1240  0.0542 -0.0924
 9388W        W28922  15.212   1.113   2.369 -0.2410 -0.0805 -0.1883
 9389W        W28923  14.100   2.601   1.185 -0.2186 -0.3083 -0.4678
 9390W        W28924  11.139   8.667   5.672 -0.0101  0.0105 -0.0299
 9391W        W28925  10.609  10.796   0.370  0.0638 -0.0229 -0.1317
 9392W        W28926  14.472   6.849  12.836 -0.1764  0.0956 -0.2446
 9393W        W28927  11.072   0.846  14.311 -0.0362  0.0748  0.1888
 9394W        W28928  13.150  17.237   3.464  0.2199  0.1679  0.2273
 9395W        W28929  10.349   3.027  15.467 -0.0473 -0.1199  0.1221
 9396W        W28930  15.626   9.505   5.513  0.0652 -0.0916  0.3501
 9397W        W28931  13.046  13.415   1.930 -0.0184  0.2568  0.1383
 9398W        W28932   5.905   1.970   2.024 -0.5614  0.1787  0.3721
 9399W        W28933   1.477  17.261  13.904  0.3475  0.1140  0.2548
 9400W        W28934   1.736  11.097  14.851 -0.1281 -0.0810 -0.1278
 9401W        W28935   3.190  16.296   2.454  0.0305 -0.0600 -0.2735
 9402W        W28936  15.810  13.138  15.244 -0.1313 -0.1358  0.1827
 9403W        W28937   1.579  11.687  13.433  0.2583  0.1671 -0.0699
 9404W        W28938  17.094  11.823   1.605 -0.0640  0.1973  0.0601
 9405W        W28939   2.329   0.020   3.069 -0.0835 -0.0490 -0.0371
 9406W        W28940  16.766   4.535  12.752 -0.2230 -0.2991  0.1041
 9407W        W28941   1.976   3.185  13.032  0.0186  0.1356  0.3064
 9408W        W28942  16.215   0.114   5.634  0.5031 -0.0240 -0.0440
 9409W        W28943   1.469  13.011  12.073  0.0210 -0.1392  0.1338
 9410W        W28944  13.355   9.603  13.449  0.0280 -0.1851  0.1912
 9411W        W28945  10.752   6.189  14.399 -0.0583 -0.2100 -0.0444
 9412W        W28946   7.486   7.219   0.815 -0.1030  0.0084 -0.1557
 9413W        W28947  16.820   6.847   2.644  0.3607  0.1926  0.1184
 9414W        W28948   5.338   1.324  13.240 -0.0118  0.1520 -0.0377
 9415W        W28949   6.130   3.306  13.814 -0.0147  0.0704 -0.3057
 9416W        W28950   0.481  16.797   0.086  0.1851 -0.1509 -0.2601
 9417W        W28951   2.692  17.230   3.468 -0.2079  0.2555  0.2599
 9418W        W28952   5.187  10.139   3.966  0.2455 -0.1499 -0.2490
 9419W        W28953   3.852  13.376   0.029  0.0797 -0.0022  0.3702
 9420W        W28954   1.674   0.620   4.453 -0.0324  0.3688 -0.1263
 9421W        W28955  11.984   1.264  13.195  0.2274 -0.0119  0.2785
 9422W        W28956  12.301   5.413  15.190  0.0773  0.3448  0.0114
 9423W        W28957  17.101   1.910  11.331 -0.0266 -0.2543  0.2479
 9424W        W28958   4.461  17.224  12.133 -0.0444  0.4457 -0.2201
 9425W        W28959   2.812   9.291  12.526 -0.2804 -0.1175 -0.0153
 9426W        W28960  13.587   8.773   3.559 -0.2183 -0.0879  0.3132
 9427W        W28961  15.950   2.810  13.306 -0.1959  0.0071 -0.1507
 9428W        W28962   0.832  15.230   0.553  0.2288 -0.2341  0.1521
 9429W        W28963   9.474   6.068  13.877 -0.2584 -0.2666  0.0530
 9430W        W28964  10.850  14.641   1.129 -0.1872  0.0970 -0.2381
 9431W        W28965   3.702   1.031   2.176  0.1038 -0.0649 -0.0907
 9432W        W28966   4.350  16.858   4.135  0.0391  0.0111 -0.3321
 9433W        W28967  14.825  11.297   1.240  0.1221 -0.1137 -0.2810
 9434W        W28968   2.368  13.873   3.963 -0.0206  0.0430 -0.1701
 9435W        W28969   7.416   1.992   2.012  0.2327 -0.0363  0.3220
 9436W        W28970   2.083   0.189  13.522  0.1405 -0.0549 -0.2275
 9437W        W28971   1.163   7.052  15.492  0.1137 -0.1391 -0.1768
 9438W        W28972   2.244   1.560   2.741 -0.2007 -0.3108 -0.0548
 9439W        W28973   7.921   0.997  11.585 -0.0058 -0.0520 -0.1933
 9440W        W28974  11.933  12.312   2.036 -0.0353 -0.2468 -0.2946
 9441W        W28975   8.027  13.238  13.445  0.2999  0.2140 -0.0454
 9442W        W28976   8.648  12.487   2.428 -0.0407 -0.1250  0.0893
 9443W        W28977   4.429   5.247  12.884  0.0255  0.1701 -0.1315
 9444W        W28978  18.009  11.928   2.808  0.3565 -0.3713 -0.2498
 9445W        W28979  16.862   2.613   0.344  0.1885 -0.5105 -0.2202
 9446W        W28980  16.881  15.108   2.904  0.0628  0.0873 -0.1942
 9447W        W28981  17.252  12.366  13.735  0.1510 -0.2037  0.0953
 9448W        W28982   8.904   1.193   5.348 -0.1677 -0.0221 -0.3225
 9449W        W28983   3.908  17.095   0.991 -0.0772 -0.0906 -0.0930
 9450W        W28984  14.347   5.786   3.528  0.0459  0.0474 -0.0961
 9451W        W28985  17.919  17.514   4.939 -0.2283 -0.0468 -0.1463
 9452W        W28986  14.164   6.261   1.062 -0.1008 -0.0434 -0.2312
 9453W        W28987   9.071   3.840   4.415  0.5228 -0.0116  0.0049
 9454W        W28988   8.833   5.925   2.465 -0.0498  0.1218  0.0476
 9455W        W28989   8.853  14.107  12.025 -0.0070 -0.3883  0.2405
 9456W        W28990   6.993  16.047  14.523 -0.1132  0.0782  0.1519
 9457W        W28991   0.021   9.046   0.916  0.0742 -0.2842  0.1310
 9458W        W28992   2.759   3.746  11.402 -0.0060 -0.2236 -0.0224
 9459W        W28993   7.220   5.345  11.413  0.3164  0.1288  0.0407
 9460W        W28994   2.080   0.606  11.097 -0.3399  0.0589  0.2227
 9461W        W28995  14.837   6.435  12.259  0.0191  0.0622  0.4383
 9462W        W28996   4.087   5.978  12.938  0.0852 -0.3606  0.0052
 9463W        W28997  16.502   9.408   4.535 -0.0413  0.2257  0.3973
 9464W        W28998   5.383  13.897  14.448  0.0114  0.0440 -0.2481
 9465W        W28999  14.934   4.363   0.966 -0.1140 -0.1354  0.1145
 9466W        W29000   6.905  15.689   2.777 -0.1940 -0.2531  0.1754
 9467W        W29001   5.626  11.201   2.892 -0.0680  0.2122  0.2698
 9468W        W29002  16.369  17.579  12.108  0.1084  0.1777  0.1731
 9469W        W29003  16.810   8.859  11.864  0.0133 -0.1000 -0.0597
 9470W        W29004  14.452   5.717  15.789  0.0369 -0.0059 -0.2105
 9471W        W29005  18.058   1.595   5.216 -0.0293 -0.0170  0.2347
 9472W        W29006   2.453  14.825   3.948 -0.1309 -0.0691  0.0908
 9473W        W29007  18.016   8.880  11.448 -0.1394 -0.0496  0.0746
 9474W        W29008   2.286   9.930  12.747  0.3671  0.1997 -0.2277
 9475W        W29009   7.524   6.769  15.495  0.1463 -0.1089 -0.1650
 9476W        W29010   9.200  17.948  15.545  0.1412  0.3157  0.1728
 9477W        W29011  13.121  17.234   2.776 -0.1321  0.0609  0.1308
 9478W        W29012   1.173   3.555  15.863 -0.1065  0.0009 -0.0643
 9479W        W29013   8.354   5.508  12.476 -0.1103 -0.0905 -0.0779
 9480W        W29014   0.540   6.235   3.189  0.0370 -0.0065  0.0817
 9481W        W29015   8.750  18.075  15.750 -0.0327  0.0230  0.0633
 9482W        W29016   7.800   1.221   3.093  0.3765 -0.1367  0.3485
 9483W        W29017   0.161  12.009  13.156 -0.2272 -0.0881 -0.2891
 9484W        W29018  10.340   6.838   3.497 -0.2515 -0.0519  0.0463
 9485W        W29019   7.737  16.133  12.105 -0.2186 -0.1445 -0.0504
 9486W        W29020  14.138   4.112   2.351 -0.1096  0.0526  0.0533
 9487W        W29021  16.259   7.683  11.582  0.4392 -0.2109 -0.2320
 9488W        W29022   9.800   4.068   0.191  0.2709  0.1419  0.0293
 9489W        W29023   5.368  16.132  11.966  0.0080 -0.1351 -0.1510
 9490W        W29024  16.697  11.466  15.001 -0.2215 -0.2234 -0.0005
 9491W        W29025   6.935   7.371   3.721 -0.1606  0.2344 -0.3829
 9492W        W29026   7.008  10.911  12.167 -0.2978  0.3350  0.2079
 9493W        W29027   3.064   5.418  11.586  0.2981  0.0883  0.1940
 9494W        W29028   5.704   7.081  12.655  0.4622 -0.0817  0.1988
 9495W        W29029   1.116  10.229  11.740  0.0539 -0.1902  0.0417
 9496W        W29030   5.876   3.218   0.749  0.0768 -0.0880  0.4101
 9497W        W29031   3.423   6.817  14.929 -0.6845  0.1824 -0.0833
 9498W        W29032  15.875   5.331  13.539 -0.0496  0.0093 -0.1190
 9499W        W29033  16.698  11.525   3.424  0.2611  0.0033 -0.0992
 9500W        W29034  13.636   6.943  12.676  0.0162  0.0423  0.1055
 9501W        W29035  16.898   6.532  15.931  0.2085 -0.0447 -0.0424
 9502W        W29036   7.227   9.860  13.664  0.1804  0.0055  0.0091
 9503W        W29037   2.589  12.481  15.698  0.0586  0.0980  0.3167
 9504W        W29038   8.626  10.031  15.531 -0.2375  0.0500 -0.1138
 9505W        W29039   9.256  16.161  14.533  0.1500  0.1161  0.1887
 9506W        W29040  10.750   2.368   3.020  0.1645 -0.4102  0.2944
 9507W        W29041  13.254   1.667  13.358 -0.0826 -0.1393  0.0043
 9508W        W29042   6.796   5.409   2.569 -0.1535  0.2067  0.1536
 9509W        W29043   0.813   8.317  12.496 -0.2365 -0.1842  0.0203
 9510W        W29044  10.128   5.427  13.886 -0.2461 -0.0020 -0.1204
 9511W        W29045  14.462   3.776   1.596  0.1657 -0.1404 -0.0899
 9512W        W29046  15.271   4.678   3.631 -0.0207  0.1156  0.2368
 9513W        W29047   5.732  16.978  14.750  0.0483 -0.1528 -0.0668
 9514W        W29048  11.451  15.132   1.597 -0.0713  0.1030  0.1611
 9515W        W29049   8.940  18.051  11.144 -0.1431  0.2688  0.0159
 9516W        W29050   2.412   7.852  12.185  0.1163  0.0070  0.1503
 9517W        W29051  13.885   5.052  13.848 -0.2817  0.1549 -0.2352
 9518W        W29052  13.223  15.073  14.852 -0.2162  0.1455 -0.0871
 9519W        W29053   8.115  16.018   3.847  0.3442 -0.0213 -0.5910
 9520W        W29054  10.082   2.951   1.756 -0.0102  0.2142 -0.0768
 9521W        W29055   9.069   3.484   4.001  0.0717 -0.3600  0.1845
 9522W        W29056  16.697   1.724  12.895 -0.1043 -0.0301 -0.1787
 9523W        W29057   7.403   1.924  13.240 -0.0173 -0.0015  0.0464
 9524W        W29058   5.621   8.191  16.023  0.0965  0.2280  0.1529
 9525W        W29059   9.222   9.504  14.773 -0.2463 -0.2545 -0.2328
 9526W        W29060   5.046  16.153   4.338 -0.2021  0.2016  0.0695
 9527W        W29061   2.973  15.447  12.503 -0.0965 -0.0350  0.4876
 9528W        W29062   5.706  14.945  12.435 -0.0495  0.1133 -0.0659
 9529W        W29063  17.552   8.707   4.394 -0.1234  0.0354  0.1357
 9530W        W29064  16.603   8.042   3.621 -0.0831 -0.2289  0.0226
 9531W        W29065   4.736  11.942  11.409  0.1352  0.0098 -0.2090
 9532W        W29066  16.179  17.658  12.627  0.0012  0.0347 -0.0933
 9533W        W29067  11.974   6.474  11.351 -0.1529 -0.1386 -0.2213
 9534W        W29068  12.406   3.696  13.488 -0.0018  0.0747  0.1827
 9535W        W29069   0.086   2.439   5.486 -0.1181 -0.1449 -0.2167
 9536W        W29070   5.516  11.356   3.840 -0.2282  0.2964 -0.0077
 9537W        W29071  11.371   8.394  14.050 -0.0346  0.0948  0.1844
 9538W        W29072  10.406   3.091   3.630  0.2474  0.1408  0.0916
 9539W        W29073  12.431  12.503   0.319  0.3649  0.2017 -0.1673
 9540W        W29074   6.677   0.459  11.745  0.0124 -0.2572  0.1766
 9541W        W29075   3.198  12.542  12.435 -0.1640 -0.2709  0.0494
 9542W        W29076   3.354   1.167   0.180  0.0654  0.1614 -0.2564
 9543W        W29077  17.647  16.692  11.687  0.0826 -0.0023  0.1712
 9544W        W29078  18.035   7.207   3.009  0.1568 -0.2881  0.2127
 9545W        W29079   7.682  12.232   4.810 -0.3634  0.1756  0.1270
 9546W        W29080  15.081   2.463   1.015 -0.1161  0.3910 -0.0325
 9547W        W29081  10.135  11.878   5.501 -0.1758 -0.0290  0.3189
 9548W        W29082   5.267  14.353  13.634 -0.1560 -0.0660  0.3484
 9549W        W29083  12.572  17.953   0.612 -0.1555  0.2462 -0.1823
 9550W        W29084   2.652  16.473   2.542  0.1000 -0.2112  0.1585
 9551W        W29085  13.610  12.745   2.576 -0.1553 -0.0070 -0.0498
 9552W        W29086   0.241  15.194   1.793  0.2129 -0.4271 -0.1680
 9553W        W29087   0.932  14.631  12.553 -0.1208 -0.2253 -0.1668
 9554W        W29088  16.869  13.995  13.384 -0.0620  0.0848 -0.2668
 9555W        W29089  17.733   5.808   2.348  0.0116 -0.1162 -0.0277
 9556W        W29090  11.379   0.677  15.208  0.0416  0.4404  0.1370
 9557W        W29091  14.331   3.765  15.614 -0.0253 -0.0757  0.1340
 9558W        W29092  17.961   8.383  12.645 -0.1578 -0.3498  0.0399
 9559W        W29093   2.920  17.158  13.962  0.0269 -0.1619 -0.4583
 9560W        W29094   5.843  17.117   3.794  0.1853 -0.1656  0.0880
 9561W        W29095   8.883   8.210   1.554 -0.2395  0.0400 -0.1313
 9562W        W29096  16.508   5.989  12.555  0.2995 -0.1249 -0.1850
 9563W        W29097  12.493   0.886  15.519 -0.1003 -0.0944  0.2438
 9564W        W29098  15.005   5.374   0.835  0.0154  0.0574  0.0888
 9565W        W29099   8.332  11.365  12.098  0.0604 -0.2212 -0.1009
 9566W        W29100  13.398  16.032  13.907 -0.2499 -0.1687 -0.1991
 9567W        W29101  12.459   0.300  15.602  0.0520 -0.2344 -0.1093
 9568W        W29102  10.845   0.151  12.839 -0.0055 -0.0396  0.2523
 9569W        W29103  14.379   6.339  13.754 -0.3140  0.1095 -0.2667
 9570W        W29104  16.900  16.237   0.132 -0.0541 -0.0538 -0.0007
 9571W        W29105  12.451   3.711  14.539  0.1183  0.0259 -0.0269
 9572W        W29106   5.962  13.578   4.765 -0.0198  0.0659 -0.0492
 9573W        W29107   9.282   2.333  11.659  0.1137 -0.2444  0.0307
 9574W        W29108  15.290  11.523  15.646  0.2400 -0.1096 -0.1451
 9575W        W29109  13.362   3.153   0.351 -0.4380  0.0870 -0.2366
 9576W        W29110  13.846   0.118   2.958  0.3240 -0.0213  0.1326
 9577W        W29111  13.726  16.150  15.844  0.0796 -0.0883  0.3123
 9578W        W29112  14.069   6.217   4.649  0.3303  0.1811  0.1117
 9579W        W29113   9.897  10.685  13.359 -0.0638 -0.1533 -0.0100
 9580W        W29114  17.597  14.722   1.380  0.0188  0.0880 -0.1863
 9581W        W29115   3.876  17.115  13.459 -0.0697 -0.0033 -0.2213
 9582W        W29116  17.682  12.326   1.112  0.2983  0.0156 -0.3550
 9583W        W29117   5.772  17.049  14.159  0.0393  0.0794  0.0543
 9584W        W29118   5.099  10.221   3.042 -0.0127  0.0211 -0.3901
 9585W        W29119   8.474  17.323  11.834  0.0007 -0.3168  0.0569
 9586W        W29120   7.970  14.347   1.602  0.3780 -0.2007  0.1488
 9587W        W29121   5.603   3.037  16.032 -0.0602  0.2097 -0.1830
 9588W        W29122  13.563  11.238  14.515 -0.0608 -0.1378  0.1447
 9589W        W29123  17.823  10.035  12.345  0.1041  0.1782 -0.1629
 9590W        W29124   5.230  11.391   0.176 -0.0343  0.0514  0.2117
 9591W        W29125   7.574  11.119  14.316 -0.1077 -0.0566  0.1704
 9592W        W29126   0.834   8.877  13.674 -0.1727 -0.2523  0.1911
 9593W        W29127   5.309  14.797  12.697  0.3020  0.2589 -0.0997
 9594W        W29128  16.424   1.870   0.710 -0.0458  0.3100 -0.2594
 9595W        W29129  16.517  14.068  12.156 -0.4141 -0.0366 -0.3523
 9596W        W29130   5.162  11.317  11.049 -0.0041 -0.0328 -0.0573
 9597W        W29131   0.237  13.575   0.137 -0.0027  0.0436 -0.1045
 9598W        W29132   0.983  17.041   3.049  0.0820  0.1205  0.2422
 9599W        W29133   6.317  12.965  15.178  0.1175 -0.2349  0.2233
 9600W        W29134   9.201  11.835  13.255  0.1322 -0.0533 -0.2505
 9601W        W29135   6.746   2.949   4.569  0.0001  0.2882  0.0187
 9602W        W29136  12.434   0.744  14.676 -0.3165  0.0188  0.0163
 9603W        W29137   5.022  13.303   4.119  0.4109  0.0644 -0.0531
 9604W        W29138  10.207   4.003  12.500 -0.3636 -0.2234 -0.0303
 9605W        W29139  12.401  12.447  15.049 -0.2966  0.1967 -0.2298
 9606W        W29140   2.045   9.951  15.720 -0.0230 -0.0100  0.1169
 9607W        W29141  12.245   2.312  14.129 -0.0943 -0.0375  0.0662
 9608W        W29142   5.044  15.172  12.998 -0.2159 -0.1077 -0.1564
 9609W        W29143  13.530   1.841   2.871 -0.0637 -0.0892 -0.1323
 9610W        W29144   8.826   7.127  12.470 -0.1044  0.1236 -0.1512
 9611W        W29145  13.609   4.753   1.977 -0.0025 -0.0859  0.0026
 9612W        W29146   7.753  15.109  15.116  0.3761 -0.2008  0.0035
 9613W        W29147   7.421   4.197  13.270 -0.1268  0.2348  0.0724
 9614W        W29148   2.707   1.983   0.719  0.0156 -0.0370 -0.0368
 9615W        W29149   9.326   1.119   1.361  0.2558  0.0611 -0.2532
 9616W        W29150   3.294  13.553  14.562 -0.3904  0.1677  0.1780
 9617W        W29151   6.618   3.185   1.820  0.0112 -0.0694 -0.1072
 9618W        W29152   2.833  11.760  12.991  0.0319  0.1029  0.2440
 9619W        W29153   2.441   6.899   3.511  0.0657 -0.0355  0.2640
 9620W        W29154  12.279  13.185   4.268  0.1566 -0.2878 -0.4194
 9621W        W29155   0.080   9.850  15.772 -0.0599 -0.0187  0.2662
 9622W        W29156   7.839   4.222   2.935  0.1768 -0.1897  0.0882
 9623W        W29157   1.338   6.288   1.609 -0.1943 -0.4080  0.2785
 9624W        W29158  15.975  15.695  14.350 -0.4701 -0.0556  0.3002
 9625W        W29159  16.443   3.322   2.656  0.0050 -0.0039  0.1588
 9626W        W29160   7.680  13.298   0.258  0.0386  0.0899  0.0564
 9627W        W29161   9.061  12.375   5.986 -0.2445 -0.0322 -0.1832
 9628W        W29162   8.069  10.297  14.665 -0.1101  0.0011  0.0813
 9629W        W29163  11.345   7.194   3.281  0.1536  0.0470 -0.0820
 9630W        W29164   0.470  18.184   2.889  0.0436  0.0805 -0.2477
 9631W        W29165  10.433   7.437  12.147 -0.2203  0.2134  0.0220
 9632W        W29166  16.788   1.082   3.560 -0.0219  0.2403 -0.0975
 9633W        W29167   8.889   6.326  11.419  0.0829  0.0359 -0.2271
 9634W        W29168   7.623   8.404   1.647 -0.0574  0.2500 -0.1066
 9635W        W29169   7.352   3.718  15.716  0.2452  0.0520  0.0142
 9636W        W29170   3.865  11.887  13.284 -0.1520 -0.0868 -0.0846
 9637W        W29171   5.136  10.563  13.389 -0.0271  0.4472 -0.1702
 9638W        W29172   0.692  13.975  13.539  0.2215 -0.0044 -0.1011
 9639W        W29173   6.735  10.172  13.775 -0.1634 -0.0596  0.0926
 9640W        W29174   1.116   4.314   2.967 -0.0124 -0.1719 -0.0580
 9641W        W29175   7.450   0.308   3.161 -0.0852  0.0646 -0.1945
 9642W        W29176   4.379   9.623   3.503 -0.4709 -0.0075  0.1118
 9643W        W29177   4.503  11.146   2.183 -0.1927  0.0498 -0.0571
 9644W        W29178  16.566   8.558   1.245 -0.2106 -0.1542 -0.1679
 9645W        W29179   1.268  13.108   2.992 -0.3175  0.2147 -0.0162
 9646W        W29180  15.153  10.902  13.960 -0.0914 -0.0474  0.1067
 9647W        W29181   7.702  10.490   0.824  0.3610  0.0979  0.1554
 9648W        W29182   8.817   6.142  15.933  0.0106 -0.1517 -0.1230
 9649W        W29183   0.755  13.784  12.485 -0.2621  0.2033  0.0176
 9650W        W29184  11.789  14.004   2.897  0.2618 -0.0399 -0.1191
 9651W        W29185  18.065   4.754  15.839 -0.2147 -0.3039 -0.2282
 9652W        W29186   0.081  17.063  13.488 -0.0817  0.2049  0.0370
 9653W        W29187  10.932   2.936  12.173 -0.0405  0.0287 -0.0545
 9654W        W29188  11.254  16.291   2.350  0.2399  0.2848  0.0102
 9655W        W29189   9.363   7.914   2.490 -0.0958  0.0731  0.0702
 9656W        W29190   1.005  17.643  11.892  0.0986  0.0171  0.1802
 9657W        W29191  10.355  17.390   5.364 -0.1704 -0.2939 -0.1192
 9658W        W29192   9.578   6.848  15.173  0.0263 -0.1258  0.1557
 9659W        W29193  11.824   5.642  13.124  0.1847  0.1421 -0.2436
 9660W        W29194  15.740   1.249   2.476  0.1482  0.1854 -0.2546
 9661W        W29195   5.915   7.240   0.748 -0.2285 -0.1232 -0.1542
 9662W        W29196  13.427   0.813  14.885  0.2777  0.3002  0.1442
 9663W        W29197  13.524  13.436   2.170  0.3259  0.0882  0.0673
 9664W        W29198   3.846   7.871   3.343 -0.0159  0.0648  0.0618
 9665W        W29199   0.760   5.355   0.161 -0.1496 -0.1432 -0.0943
 9666W        W29200  14.563  11.012   2.442  0.1897 -0.0625 -0.0596
 9667W        W29201  15.675  11.521   2.489  0.3256  0.0880  0.1611
 9668W        W29202   3.146   5.518  12.137  0.3178 -0.1313  0.2653
 9669W        W29203   5.149  16.462  12.312  0.0134 -0.0873 -0.0342
 9670W        W29204  11.054   4.250   2.258 -0.1198 -0.2121 -0.0843
 9671W        W29205   9.989  13.384  13.639  0.2916 -0.0712  0.1461
 9672W        W29206   7.965   2.854   4.237 -0.2407 -0.0646  0.0567
 9673W        W29207   3.079  13.218  12.085  0.1237 -0.1131 -0.2880
 9674W        W29208   0.042  16.561  14.281 -0.0615  0.0528 -0.1939
 9675W        W29209  15.243  15.490   0.159  0.1745 -0.0524  0.2978
 9676W        W29210   7.654   4.592  14.601  0.1158 -0.0512 -0.0688
 9677W        W29211  15.133   3.802   1.555 -0.2095  0.0731 -0.1766
 9678W        W29212   0.159  13.752  15.335 -0.0559  0.1492 -0.1662
 9679W        W29213  18.151   6.186   4.533  0.2012  0.0907 -0.0849
 9680W        W29214   8.158   4.940   5.207  0.0404 -0.2126 -0.2215
 9681W        W29215  10.501  17.275  15.588  0.2035  0.0957 -0.1696
 9682W        W29216   0.148  10.187  12.476 -0.1708  0.1795  0.3032
 9683W        W29217  15.900   8.451   3.091  0.1214  0.0707 -0.1116
 9684W        W29218   0.748   6.710  14.291  0.0866 -0.1433  0.0169
 9685W        W29219   3.063   4.363  12.149 -0.0576  0.2741 -0.0170
 9686W        W29220  16.978   2.166   0.002 -0.2900 -0.1712  0.2691
 9687W        W29221  14.057  10.983   4.657 -0.0704 -0.0364 -0.1583
 9688W        W29222  16.403  15.080   4.854 -0.2487  0.1356  0.3268
 9689W        W29223  10.576   1.824  14.029 -0.2314 -0.0914  0.1876
 9690W        W29224  15.842   2.363  15.639  0.0597  0.2124  0.1644
 9691W        W29225   9.375   1.313   1.841  0.1421  0.1801 -0.0052
 9692W        W29226  14.742  17.699  11.855  0.2667 -0.4309  0.1518
 9693W        W29227   5.148   5.997   2.313 -0.0780 -0.0281  0.2090
 9694W        W29228   7.251   6.640  15.899 -0.1404  0.0096 -0.3859
 9695W        W29229   2.677   2.291   4.854  0.0951  0.0760 -0.1784
 9696W        W29230  16.744  16.022   1.604 -0.0424  0.3564  0.1005
 9697W        W29231  11.960  12.160  13.220 -0.2800 -0.1697  0.0704
 9698W        W29232  17.690   5.540  14.681  0.0327  0.0886  0.2483
 9699W        W29233  11.121   5.163   3.793  0.2378 -0.2459 -0.2102
 9700W        W29234   4.630   7.972   4.477  0.0410 -0.1466  0.1399
 9701W        W29235   1.773  14.640  14.765 -0.1518 -0.2544 -0.0894
 9702W        W29236   7.113  16.385   3.670 -0.2147 -0.0347  0.0180
 9703W        W29237  14.813   7.929   1.533  0.2440 -0.0778  0.2582
 9704W        W29238   5.660   8.338  13.413 -0.0556  0.1851  0.3087
 9705W        W29239  10.413   6.057  12.030 -0.0420  0.1227  0.2334
 9706W        W29240  15.312  16.411  13.331  0.1345 -0.1519  0.0571
 9707W        W29241  12.392  11.395   0.048  0.1388 -0.0145  0.0582
 9708W        W29242   2.812  16.848   4.258 -0.0235 -0.1614  0.2611
 9709W        W29243   2.281  10.545  15.630 -0.0666  0.2712  0.4411
 9710W        W29244  13.409   7.245   2.135 -0.1756 -0.3617  0.2190
 9711W        W29245   4.134   8.013  11.993 -0.0160 -0.0231  0.1211
 9712W        W29246  16.869   1.929  13.343 -0.2224 -0.1211  0.1078
 9713W        W29247   3.115  15.182   4.257 -0.2665 -0.0613  0.1160
 9714W        W29248   8.682  16.915   5.116  0.0115  0.1891 -0.0037
 9715W        W29249   1.893  13.440   2.497 -0.2483  0.0141 -0.2107
 9716W        W29250  15.946   9.176  15.269  0.2113 -0.3122 -0.0094
 9717W        W29251   9.947   2.161  14.972 -0.4338 -0.1228 -0.1511
 9718W        W29252  17.747   0.214  14.391  0.2118  0.2409  0.0886
 9719W        W29253   6.451   1.928   0.084 -0.0260  0.2165 -0.0432
 9720W        W29254  14.282  17.748  13.385 -0.1071 -0.1234 -0.2072
 9721W        W29255  16.447   5.115  14.843  0.1124 -0.2896  0.1419
 9722W        W29256   3.272  17.919  13.039 -0.1704 -0.2127  0.2400
 9723W        W29257  15.683  17.065   1.829  0.0690  0.1722 -0.2420
 9724W        W29258  12.315  13.452  12.311  0.0827 -0.1216 -0.2779
 9725W        W29259   0.586  16.181  14.011 -0.1682  0.0561  0.3263
 9726W        W29260  13.148   6.950  14.384 -0.1860 -0.2288  0.2306
 9727W        W29261  17.885  11.479   3.766 -0.1757  0.1349 -0.2201
 9728W        W29262   3.322  12.152   0.261  0.0272 -0.3174  0.1046
 9729W        W29263  15.071   4.896   0.648 -0.0797  0.3039  0.2213
 9730W        W29264   3.382  14.190  13.821 -0.3952  0.0074 -0.0917
 9731W        W29265  13.500   5.369  15.805 -0.0673  0.2198  0.0901
 9732W        W29266   5.350  15.266   1.525  0.1348 -0.2389  0.2082
 9733W        W29267  10.138  12.861  15.263 -0.0468  0.1908 -0.0317
 9734W        W29268  17.926   0.110   0.954  0.3361 -0.0103 -0.0325
 9735W        W29269   2.707  17.233  15.318 -0.0475  0.1259  0.0412
 9736W        W29270  17.360   0.665   4.857  0.1259 -0.2120  0.1984
 9737W        W29271  16.260   2.532  15.371  0.0371  0.2549 -0.3170
 9738W        W29272  17.634   0.466   2.412 -0.0117 -0.1991 -0.0302
 9739W        W29273   1.389  15.280   4.132 -0.0978 -0.3390 -0.1248
 9740W        W29274  14.225  13.910  12.856 -0.0192 -0.1238 -0.0607
 9741W        W29275   0.860   0.151   0.213 -0.0347 -0.0106 -0.1503
 9742W        W29276  17.293   9.109  11.792  0.0188  0.3065 -0.2521
 9743W        W29277  12.827  10.489  15.657 -0.2605  0.0394  0.3072
 9744W        W29278  16.711   6.619  13.680  0.0342 -0.0225 -0.3534
 9745W        W29279   0.310  15.003   2.717  0.0396 -0.0514 -0.3486
 9746W        W29280   8.510   2.969   3.685  0.1005 -0.2300  0.0414
 9747W        W29281  17.424  16.424   2.404  0.3850  0.0781 -0.0418
 9748W        W29282   8.359  15.624   3.457  0.2006  0.1807  0.0254
 9749W        W29283  14.485  11.803  11.308  0.0442 -0.0882 -0.4330
 9750W        W29284   1.822   0.550  11.485  0.2886  0.0228  0.0009
 9751W        W29285  12.801  14.713   1.209 -0.0984  0.2089  0.0822
 9752W        W29286  10.105  15.376   1.766 -0.0273  0.1362 -0.2874
 9753W        W29287  17.016   3.780  12.102 -0.3631 -0.1197  0.2416
 9754W        W29288  13.962   7.154  15.307  0.1186 -0.1249 -0.2462
 9755W        W29289   2.057  11.188  11.897  0.4120 -0.1636  0.1211
 9756W        W29290   7.547   9.308  12.265  0.0316  0.0965 -0.0531
 9757W        W29291   0.457   9.635  14.554  0.1041 -0.0450  0.0099
 9758W        W29292   5.771   8.349   2.968 -0.4083 -0.0168  0.0978
 9759W        W29293   9.841   9.294   2.144  0.0737 -0.2746  0.1907
 9760W        W29294   1.261   7.494  10.950 -0.1270 -0.2343 -0.1238
 9761W        W29295  10.847   4.747   2.386 -0.1864  0.0361 -0.2163
 9762W        W29296  11.913  10.298  15.170  0.0557 -0.0701 -0.0761
 9763W        W29297   1.098   0.098  13.174 -0.0227  0.0579  0.0376
 9764W        W29298   2.066   3.871   2.004  0.0631  0.0351  0.2441
 9765W        W29299   3.035   4.904   2.467 -0.1236 -0.1758 -0.0533
 9766W        W29300  16.421  12.216   0.688  0.1109  0.1106 -0.0687
 9767W        W29301   1.811  16.518   4.080  0.0875 -0.0150  0.0503
 9768W        W29302   4.999   9.290  11.113  0.1072  0.0331  0.3290
 9769W        W29303   4.735   7.986  15.775  0.0176  0.1821  0.0631
 9770W        W29304   3.104   7.788   1.145 -0.2241  0.0036  0.0774
 9771W        W29305  17.590   7.017   2.219 -0.0766  0.4095 -0.0185
 9772W        W29306  10.146   7.769  11.949 -0.2938  0.2866 -0.0490
 9773W        W29307  16.908  13.792   0.023  0.3561 -0.0733  0.1777
 9774W        W29308   2.423  16.823  12.429  0.0911 -0.2351  0.1333
 9775W        W29309   5.514  13.672   1.065  0.1252  0.1195  0.1101
 9776W        W29310  17.318   5.589   4.214  0.1745 -0.1191  0.2174
 9777W        W29311   2.100   6.341  11.905  0.1827  0.1019  0.2161
 9778W        W29312  12.435  11.342   3.153  0.2111 -0.0043  0.3343
 9779W        W29313   6.524  11.212   1.882  0.0766  0.2230 -0.3448
 9780W        W29314   6.082   3.500  14.255  0.3624  0.2150 -0.0550
 9781W        W29315   3.653  13.065   1.849 -0.1559 -0.1285  0.1350
 9782W        W29316   5.339   3.437  14.253 -0.2643  0.1970  0.0782
 9783W        W29317  11.163   1.652  13.826 -0.0580 -0.0407  0.1760
 9784W        W29318   6.401   0.804  14.664 -0.1927 -0.0530  0.1086
 9785W        W29319   3.522   5.860   5.348 -0.0259  0.0048  0.2472
 9786W        W29320   6.504  16.889   0.055  0.0293  0.0464  0.1232
 9787W        W29321  13.758   0.838   1.719 -0.0570 -0.4279  0.0178
 9788W        W29322  12.803  13.321   4.448  0.0391  0.1232 -0.0555
 9789W        W29323   4.030  11.405  13.401  0.0989 -0.4049  0.0109
 9790W        W29324  17.903   2.118   3.937  0.0438 -0.0754  0.2436
 9791W        W29325  16.274   2.529   4.334  0.2993  0.2752  0.1591
 9792W        W29326   4.793  13.056  14.600 -0.2811 -0.2493 -0.1039
 9793W        W29327   2.258  13.937   1.394  0.0926 -0.1233 -0.0335
 9794W        W29328   9.101   9.703   1.065 -0.1058  0.1611  0.1067
 9795W        W29329  16.744   5.503  15.810  0.0566 -0.2207 -0.1619
 9796W        W29330   0.387  18.072  13.707  0.0873  0.2216  0.1736
 9797W        W29331  16.041   3.717  13.818 -0.0934  0.0928 -0.1252
 9798W        W29332   0.031   3.605   2.099 -0.0321  0.0199 -0.1798
 9799W        W29333  15.595  12.717   1.413  0.3507  0.0054 -0.2106
 9800W        W29334   5.155  11.570  15.126  0.1955 -0.1106  0.2435
 9801W        W29335  11.309   5.684  12.335  0.0881 -0.0991 -0.0757
 9802W        W29336   1.138   9.634   0.588 -0.0069  0.1480  0.1608
 9803W        W29337   0.666  12.234  13.785  0.1978  0.1788 -0.1331
 9804W        W29338   0.176  14.628   0.895 -0.1167  0.0398  0.1077
 9805W        W29339   8.046  16.313  13.052 -0.1677  0.1712  0.0244
 9806W        W29340   6.132   6.652   4.488 -0.0276  0.2079 -0.0872
 9807W        W29341   0.887  15.468  14.455  0.1339 -0.0910  0.0128
 9808W        W29342   1.479  12.221  13.526  0.0765  0.0351  0.0036
 9809W        W29343   2.372   3.060   3.199  0.0531 -0.1709 -0.0320
 9810W        W29344  11.302   3.559  15.874 -0.0479 -0.0853  0.1994
 9811W        W29345   6.344  13.392   2.122 -0.0947  0.2342 -0.3188
 9812W        W29346  15.358   3.596  11.539 -0.0137  0.1801  0.1146
 9813W        W29347  15.476  16.483  11.629 -0.0842  0.0054 -0.0917
 9814W        W29348   5.506   3.593   0.755 -0.1177  0.0763  0.4115
 9815W        W29349  18.094  11.352  15.803  0.2110 -0.1501  0.0709
 9816W        W29350   9.350  13.888   4.719 -0.1883  0.2626 -0.0238
 9817W        W29351   5.326   9.966  13.946  0.1771  0.1159  0.1337
 9818W        W29352   9.988   8.995  15.280 -0.2956 -0.1333 -0.2551
 9819W        W29353   7.510   7.955   1.562  0.1936  0.0850  0.0428
 9820W        W29354  11.369  15.986   1.909  0.3667  0.1850  0.1283
 9821W        W29355   4.142   8.317   3.122  0.1709  0.1780 -0.2991
 9822W        W29356  12.318  10.525  15.504 -0.1159 -0.0788  0.0774
 9823W        W29357   0.762  13.149   3.178  0.0382 -0.0456 -0.0415
 9824W        W29358  16.699  15.466  13.166 -0.2472 -0.1669  0.1574
 9825W        W29359  15.149   3.395   4.223 -0.2757  0.1737  0.1147
 9826W        W29360  17.133  10.450  12.510  0.2419  0.0270 -0.1419
 9827W        W29361  14.331   5.869   2.804 -0.0151  0.0987 -0.5331
 9828W        W29362  17.189   2.904  15.447 -0.3029  0.2967 -0.1853
 9829W        W29363   4.629   4.718   2.635 -0.0064 -0.1000  0.1363
 9830W        W29364  13.800  13.675  12.609  0.1836  0.0849 -0.1730
 9831W        W29365   0.863  16.743   3.411  0.1319  0.1571 -0.2379
 9832W        W29366   9.900   7.234  15.171 -0.2412  0.3823  0.2486
 9833W        W29367  10.509   2.455  15.502  0.2050  0.2089  0.1444
 9834W        W29368   3.781   0.229   2.939 -0.0034  0.1732  0.3727
 9835W        W29369   5.983   8.500   3.440  0.1707  0.1233 -0.0622
 9836W        W29370   0.635   7.197   2.590  0.2040 -0.0263 -0.3433
 9837W        W29371   2.336  14.415  15.365  0.2375  0.0292  0.1550
 9838W        W29372   5.466   0.852  14.691  0.1569  0.0185 -0.0562
 9839W        W29373   8.022   5.629  15.374 -0.0589  0.0092 -0.0115
 9840W        W29374   4.241   4.424   1.867  0.0667 -0.2680 -0.1634
 9841W        W29375   9.019  17.395  13.511 -0.3031 -0.0402 -0.0756
 9842W        W29376   8.278   2.344  14.089  0.4121  0.0545  0.0706
 9843W        W29377  17.711   3.193   4.223 -0.1436 -0.1310 -0.3957
 9844W        W29378   6.028  17.467  11.602 -0.0077  0.2197 -0.3076
 9845W        W29379   2.863  12.846  14.941 -0.1342  0.1254 -0.0407
 9846W        W29380   1.414   4.710   1.161  0.0429 -0.2973  0.1517
 9847W        W29381   8.728  14.600  11.827  0.0319 -0.1651  0.1214
 9848W        W29382   7.517   5.160  12.007 -0.2789  0.0366  0.1161
 9849W        W29383  16.420   3.239  15.183 -0.1184 -0.1791  0.3043
 9850W        W29384   2.276   0.567   1.502 -0.1487 -0.0383 -0.0734
 9851W        W29385   5.406   5.868   1.550 -0.0372 -0.1803  0.1212
 9852W        W29386  10.417   9.705   3.508  0.2091 -0.0190  0.0479
 9853W        W29387  13.981   7.240  14.756  0.0915 -0.2725 -0.0292
 9854W        W29388  11.620   6.599  13.037  0.0489 -0.0809  0.1116
 9855W        W29389   9.431   1.863  11.479  0.1894 -0.2454 -0.2190
 9856W        W29390  12.223  14.909   3.153  0.1467 -0.0031 -0.0807
 9857W        W29391  16.308  17.790   2.029 -0.0148  0.0409 -0.0443
 9858W        W29392   1.526  13.919  15.922 -0.1643  0.1736  0.2008
 9859W        W29393   8.170  16.968  15.037 -0.1449 -0.2217 -0.0847
 9860W        W29394   6.123   0.530  11.648 -0.2946  0.0872  0.0237
 9861W        W29395   3.986   9.709   1.005 -0.1124  0.0834  0.0099
 9862W        W29396   9.943   7.858   6.101 -0.1287 -0.1226 -0.1003
 9863W        W29397   5.390  15.481   2.035 -0.0533  0.1846 -0.0827
 9864W        W29398  17.745  18.175   4.155 -0.1327 -0.1071  0.0497
 9865W        W29399   3.543   5.811  10.944 -0.0682  0.0065  0.3194
 9866W        W29400   3.154   9.558  15.020  0.1873  0.1798  0.1477
 9867W        W29401  17.563   8.758   2.315  0.0214  0.3246  0.0363
 9868W        W29402  14.955  10.269   4.032 -0.0726 -0.0517  0.0779
 9869W        W29403   5.993  14.063  12.518  0.2149  0.0914  0.0217
 9870W        W29404   7.864   1.135   2.576  0.0211  0.3423 -0.0146
 9871W        W29405  14.556   0.185  14.788 -0.1473 -0.0403 -0.2688
 9872W        W29406  11.970   1.782   2.972  0.3458 -0.0316 -0.3003
 9873W        W29407   9.898   4.153   4.485 -0.0976  0.0568 -0.1000
 9874W        W29408   2.129  12.241   0.473 -0.0851  0.0857 -0.2225
 9875W        W29409   5.895  13.155  13.689 -0.0704 -0.2679  0.0610
 9876W        W29410  16.103  14.479   0.862  0.0650 -0.0442  0.1008
 9877W        W29411   5.922   8.167  15.560 -0.2217  0.0450 -0.1687
 9878W        W29412  17.919   1.792   2.791 -0.2184 -0.1147 -0.2242
 9879W        W29413   8.043  16.072   1.829  0.0826  0.1467  0.0993
 9880W        W29414  16.089   0.483   2.549 -0.1667  0.0846 -0.0403
 9881W        W29415  11.410  11.567  13.416  0.3424 -0.0019  0.3024
 9882W        W29416  11.352   1.970   2.494 -0.2432  0.2470  0.1631
 9883W        W29417   9.319  13.917  15.865  0.0762 -0.1956 -0.1116
 9884W        W29418   7.100  15.372  12.460 -0.0820 -0.3847  0.1648
 9885W        W29419   4.964  16.009  13.525 -0.3511  0.2004  0.0996
 9886W        W29420  11.281   3.921   2.766 -0.0476  0.1008  0.3354
 9887W        W29421   4.179   0.841   3.482  0.0844 -0.1101 -0.0695
 9888W        W29422   2.001  16.708  14.945 -0.1858 -0.3419 -0.1144
 9889W        W29423   3.780  10.519  15.645 -0.1882  0.3204  0.0546
 9890W        W29424  15.207   9.210   2.851  0.1127  0.1175 -0.2667
 9891W        W29425  15.877  14.239  15.593 -0.0744 -0.0513 -0.3371
 9892W        W29426   5.169   8.907  15.769 -0.1688  0.0326 -0.0077
 9893W        W29427  15.979   0.846   6.207 -0.1466 -0.2060  0.0308
 9894W        W29428  14.784  10.794   1.102  0.0760  0.0764 -0.3756
 9895W        W29429  15.712   0.907   4.332  0.1202  0.0923 -0.2088
 9896W        W29430  12.977   2.032   3.665  0.2087 -0.0047  0.3778
 9897W        W29431  10.403   1.091   3.420  0.2424 -0.2526  0.1514
 9898W        W29432  15.521   5.079  14.193  0.2833  0.2383 -0.2437
 9899W        W29433  15.245   2.966  15.810 -0.0093  0.1050 -0.3150
 9900W        W29434   9.238  12.645  16.011  0.0686  0.1702  0.0245
 9901W        W29435   4.582  13.727  11.394  0.2890  0.1618  0.3784
 9902W        W29436   2.715   9.391   2.793  0.0497 -0.0396 -0.3096
 9903W        W29437  17.263  16.675  12.071  0.1144  0.0180 -0.3550
 9904W        W29438  12.711  14.761   4.011  0.1920  0.0074 -0.0930
 9905W        W29439  15.200  16.099   4.448 -0.1492 -0.1213  0.1105
 9906W        W29440  12.467   0.916  12.020 -0.2722 -0.3496  0.0286
 9907W        W29441  15.489  10.347   5.458  0.0968  0.2200 -0.0789
 9908W        W29442   4.296  11.538  15.423  0.2492  0.3658 -0.2281
 9909W        W29443  15.721   1.619   5.039  0.0875  0.1574 -0.0686
 9910W        W29444   9.802   8.259  12.751 -0.1480 -0.0588 -0.1007
 9911W        W29445   8.253   0.926  14.449  0.0530  0.0025 -0.0155
 9912W        W29446   8.707   3.492   2.189  0.0658  0.2083  0.1392
 9913W        W29447   6.792   5.218   0.699 -0.1707 -0.1102 -0.0190
 9914W        W29448   0.961  16.599  14.210  0.4752  0.1755 -0.0806
 9915W        W29449   6.681   9.610   1.412 -0.0884  0.1160 -0.0780
 9916W        W29450   1.861   4.876  11.443  0.1653 -0.2530  0.4833
 9917W        W29451  16.191   9.061  14.399 -0.2619  0.3348  0.0126
 9918W        W29452  11.156  18.067   1.391 -0.2435 -0.2075  0.0837
 9919W        W29453  17.540  17.338  15.539 -0.0661 -0.2562 -0.0828
 9920W        W29454  14.033   2.272   0.290  0.2116 -0.2171  0.2020
 9921W        W29455   2.050   4.221  11.466  0.1240 -0.0838  0.0912
 9922W        W29456   5.445  17.306   3.382  0.0501 -0.0104  0.2118
 9923W        W29457  16.069   7.740   2.996  0.3231 -0.0978  0.2410
 9924W        W29458   7.675   3.783   4.186 -0.3974  0.1548 -0.3236
 9925W        W29459   0.115  12.103   3.221  0.0135  0.0094  0.1200
 9926W        W29460  13.457   5.994  15.954 -0.0361  0.1496 -0.3078
 9927W        W29461   6.517   9.924  14.848 -0.0089  0.0179  0.0980
 9928W        W29462  12.380   6.152  11.438  0.3156  0.4783 -0.0864
 9929W        W29463  14.148   7.796   2.143 -0.2101 -0.2044 -0.0434
 9930W        W29464  17.186   0.375   0.108 -0.1457  0.0164  0.0169
 9931W        W29465  16.237   3.118   1.521  0.0223 -0.0962  0.1573
 9932W        W29466   3.982   1.946  13.378  0.0517  0.0386  0.1947
 9933W        W29467   8.695  13.109   0.987  0.0403  0.1248  0.1036
 9934W        W29468  15.703   5.683   4.695 -0.1854  0.2747 -0.0946
 9935W        W29469  14.883   6.669   3.822 -0.2524 -0.2951  0.0955
 9936W        W29470   8.431  12.228   5.483 -0.0162 -0.4390  0.1393
 9937W        W29471   9.901  13.943   1.057  0.1087  0.1611  0.0444
 9938W        W29472  14.694  17.964  15.081 -0.0174  0.0991  0.0782
 9939W        W29473  10.890   8.942  14.179 -0.0039 -0.0899  0.0268
 9940W        W29474  11.172  11.677   3.747 -0.3028  0.0847 -0.2212
 9941W        W29475   7.974   8.887  14.337  0.4949  0.1033  0.2953
 9942W        W29476   5.024   4.521  14.389 -0.2317  0.0767  0.1484
 9943W        W29477   4.296   8.640   2.716 -0.4080 -0.1916 -0.0612
 9944W        W29478   4.658   1.977  15.584  0.1700  0.2373  0.1249
 9945W        W29479  13.668   6.865  15.907  0.1131  0.2216 -0.2003
 9946W        W29480   3.296   4.476  12.676  0.1997  0.1306  0.2848
 9947W        W29481  10.626   5.766   2.636  0.2256  0.0080  0.1992
 9948W        W29482   3.374   3.920   3.362  0.2633 -0.3198  0.0366
 9949W        W29483   0.948  12.945  14.472  0.1135 -0.1018 -0.1313
 9950W        W29484  10.933   9.296  15.141 -0.0373 -0.2592  0.0586
 9951W        W29485  14.038   2.902   0.741 -0.0205 -0.0313 -0.1821
 9952W        W29486  13.083   1.740   3.236 -0.3446 -0.4426  0.0623
 9953W        W29487  13.822   1.878   2.435  0.3975  0.1613 -0.1710
 9954W        W29488   1.733   9.109   0.246  0.0777  0.2599 -0.1132
 9955W        W29489   8.247  14.141   3.007 -0.1137 -0.1873  0.0306
 9956W        W29490   3.421  13.652   3.155 -0.4425  0.1010  0.0452
 9957W        W29491   2.011   9.731  14.841  0.0019  0.0408 -0.0776
 9958W        W29492  17.200   1.749  14.839  0.1978 -0.1273 -0.0207
 9959W        W29493  11.110   3.973  12.542 -0.3933 -0.1867  0.3590
 9960W        W29494  12.595  18.171  14.771 -0.0279 -0.1934  0.0621
 9961W        W29495  10.380   2.808  11.516  0.2527 -0.0668  0.0537
 9962W        W29496   3.087   7.246   1.296 -0.1569  0.2217  0.2672
 9963W        W29497   7.480  17.596  11.685 -0.0918 -0.0178  0.0902
 9964W        W29498   5.572   0.908   1.266 -0.1186  0.0681 -0.0411
 9965W        W29499   2.456   8.103   4.120  0.0111 -0.2362 -0.2379
 9966W        W29500   3.714   4.904   1.505 -0.1097  0.1392  0.5079
 9967W        W29501  16.818  10.578   2.345 -0.3593  0.1048 -0.0489
 9968W        W29502  11.226   1.399   3.101 -0.0041  0.0937 -0.3917
 9969W        W29503  14.040  17.223   3.108 -0.1315 -0.1379 -0.0072
 9970W        W29504  16.707  15.481  15.606  0.1300  0.1079 -0.3081
 9971W        W29505  10.639  12.041   2.273  0.3558  0.2701 -0.0264
 9972W        W29506  10.958   8.922   3.858 -0.0025  0.3810  0.3008
 9973W        W29507   6.148   8.757   3.917  0.1081  0.0589 -0.1434
 9974W        W29508   4.261   4.346  13.089 -0.3023  0.0648 -0.1076
 9975W        W29509   2.945   1.040   1.429  0.0121 -0.1775  0.0304
 9976W        W29510  12.263   0.988   2.369 -0.1558 -0.0338 -0.0532
 9977W        W29511   3.530   3.224   2.139 -0.0849 -0.2528  0.1136
 9978W        W29512   5.215   4.597  12.331  0.1654  0.1195 -0.3324
 9979W        W29513  13.209   9.588   3.485 -0.0970  0.1462 -0.0934
 9980W        W29514   6.950   3.790   0.568  0.0577 -0.0929  0.1138
 9981W        W29515   0.731   8.501   4.317  0.2189 -0.0002  0.0512
 9982W        W29516   4.467  13.410  14.217  0.0467  0.0620  0.2331
 9983W        W29517   1.624   0.352  13.846  0.2755 -0.0969  0.0927
 9984W        W29518   3.059  11.993   1.222 -0.2564  0.0034 -0.0348
 9985W        W29519   2.578  11.978   4.270  0.3624 -0.0481  0.0609
 9986W        W29520  14.615   4.705  14.663 -0.1930  0.1626  0.0850
 9987W        W29521   3.099  17.286  11.786 -0.1063  0.3995 -0.2444
 9988W        W29522  16.896   8.074   3.169  0.2146 -0.0730 -0.3553
 9989W        W29523  13.741  15.923   1.653 -0.1181 -0.1202  0.2601
 9990W        W29524  14.149   4.250  11.500  0.0287  0.1860 -0.1083
 9991W        W29525   5.274  11.335   1.148 -0.0253 -0.1694 -0.2668
 9992W        W29526   1.486  14.163  14.704  0.1786  0.0930  0.2053
 9993W        W29527  15.643  12.354  14.688 -0.1166  0.3261  0.1506
 9994W        W29528  16.261   9.917   0.656  0.0658  0.1160 -0.2200
 9995W        W29529   0.103   9.246  11.682  0.2297  0.0423 -0.2393
 9996W        W29530   2.883   6.730   1.492  0.1415  0.1794 -0.1405
 9997W        W29531  13.644  17.887  15.817 -0.0742 -0.0891  0.0877
 9998W        W29532  16.108   2.160   3.902 -0.0477 -0.1590  0.4772
 9999W        W29533   9.793   4.378  15.198  0.0752 -0.1943  0.1888
10000W        W29534   2.006  16.241   5.185  0.1046  0.0992 -0.3100
10001W        W29535   7.069  13.799   1.525  0.2749 -0.0768 -0.3200
10002W        W29536   6.227   2.638   1.317  0.1032 -0.2375  0.0958
10003W        W29537   6.933   1.516   2.218  0.2141 -0.1077 -0.0142
10004W        W29538  15.714   3.869  15.577 -0.0149 -0.2604  0.1493
10005W        W29539   2.566   5.318  11.800 -0.0162  0.5019 -0.3460
10006W        W29540  13.003   3.132   0.833 -0.2243  0.3206  0.2297
10007W        W29541  13.904   2.139   3.206 -0.4945  0.1075 -0.0809
10008W        W29542  12.931   4.691   0.909 -0.0018 -0.0445 -0.2032
10009W        W29543  17.858  11.730   1.127 -0.0198  0.1058 -0.1046
10010W        W29544   4.388   5.056  15.140  0.1474  0.0540 -0.1226
10011W        W29545   7.068  10.847   3.186  0.0404  0.0168 -0.3195
10012W        W29546   3.546  12.593   3.260  0.0980  0.0439 -0.1873
10013W        W29547   7.823   8.122  15.863 -0.2619 -0.1155  0.3687
10014W        W29548   2.604   1.745   0.262  0.3601  0.1265 -0.0774
10015W        W29549   8.130  15.561   0.096  0.1180  0.1079 -0.0827
10016W        W29550  14.675  14.685   2.256 -0.0857 -0.0766  0.2864
10017W        W29551   7.071  14.789  14.612  0.0200  0.0743  0.2194
10018W        W29552  14.762   8.728   0.997  0.0429  0.0058  0.1973
10019W        W29553  13.932   7.405  12.847 -0.1204  0.2873  0.2923
10020W        W29554  12.291   7.548  11.870 -0.1182 -0.0584  0.2200
10021W        W29555   7.696  10.400  15.534 -0.0168  0.0276 -0.3082
10022W        W29556  11.371  17.392   1.688  0.3651 -0.0896  0.0443
10023W        W29557   1.595   4.411   0.593  0.0705  0.0330 -0.4338
10024W        W29558   1.128   7.292   5.154  0.1980 -0.0478 -0.1992
10025W        W29559   3.747   2.457   3.130 -0.1086  0.1060 -0.1450
10026W        W29560   8.504   5.869   1.365  0.4508  0.0317  0.0630
10027W        W29561   9.738   2.389  11.955  0.0792 -0.0881  0.0988
10028W        W29562   2.671  15.576  12.119 -0.1279  0.2094 -0.1855
10029W        W29563   6.232   8.771   0.381 -0.1400  0.0745 -0.0074
10030W        W29564  12.725   9.060   3.597 -0.0803 -0.1244 -0.1454
10031W        W29565  14.819  15.320   4.047 -0.0014  0.1077  0.2126
10032W        W29566   9.023  10.263  15.039 -0.0864 -0.2287 -0.1529
10033W        W29567  15.063  13.843   4.676 -0.0064  0.0000 -0.0313
10034W        W29568   5.468   8.111  12.138 -0.2965  0.4856  0.2184
10035W        W29569   5.889   3.636   1.163 -0.2752 -0.3408  0.1168
10036W        W29570   0.059  14.264  12.540  0.2832 -0.0919 -0.2030
10037W        W29571   5.825   5.765  14.710  0.0649 -0.2539 -0.0400
10038W        W29572  14.950  18.081  12.125 -0.0063  0.3050  0.1964
10039W        W29573  15.607   7.511   5.582  0.2493 -0.2740  0.1928
10040W        W29574   0.319   0.984   0.206  0.2088 -0.0535 -0.0452
10041W        W29575  11.795   6.760   4.173 -0.0935 -0.1905 -0.0051
10042W        W29576  14.712  17.327  14.462  0.1295 -0.0243  0.0910
10043W        W29577  14.523  13.704  11.903 -0.3799 -0.1014  0.2061
10044W        W29578   2.336  16.279   4.736  0.1191 -0.0265 -0.1016
10045W        W29579   9.233  16.105   0.831 -0.0688  0.0689 -0.1556
10046W        W29580   1.257  11.550   0.060  0.0410 -0.2186  0.0509
10047W        W29581   0.619  15.427   3.841 -0.2361  0.3598 -0.2027
10048W        W29582   4.566  14.309   1.369  0.1014 -0.0502  0.0613
10049W        W29583   4.017   6.459   2.038  0.1211 -0.2253  0.1226
10050W        W29584  12.893  17.831   0.247 -0.3688 -0.0011 -0.1270
10051W        W29585  11.994  15.239   1.668 -0.0748 -0.0171  0.1477
10052W        W29586  10.140   1.296   4.008 -0.0125 -0.0149  0.3680
10053W        W29587   4.363  11.813  11.860 -0.0061 -0.0169  0.1498
10054W        W29588   3.652  12.065   2.546  0.4547 -0.0314  0.0765
10055W        W29589  17.658  17.085   4.220 -0.1623  0.0968 -0.0503
10056W        W29590   0.415   4.478   3.534  0.0545 -0.3399 -0.2857
10057W        W29591  16.030  12.936   4.976  0.0469  0.0862  0.1976
10058W        W29592   2.994   4.996   4.571 -0.0884  0.0691  0.0412
10059W        W29593   8.905  13.579  11.765  0.2733 -0.1810 -0.0255
10060W        W29594  15.333  17.034   5.177  0.0412  0.2247 -0.2493
10061W        W29595  12.091   7.851  15.545 -0.4098 -0.0007 -0.2052
10062W        W29596   9.593   8.063   4.007 -0.1500 -0.0444 -0.1413
10063W        W29597   2.895   3.146  12.832  0.1294  0.0523 -0.1671
10064W        W29598  16.795   9.918   0.680 -0.0327  0.0263  0.1084
10065W        W29599  13.337   4.946   1.609 -0.0689 -0.0706  0.1089
10066W        W29600   6.936  10.478   4.022  0.1223  0.3003 -0.0724
10067W        W29601  11.896   1.559  14.932  0.1995 -0.0593  0.2576
10068W        W29602   7.017   5.678   4.236  0.0132  0.1895  0.1309
10069W        W29603  12.027  14.331   1.493  0.1065  0.0097  0.1373
10070W        W29604   2.849   7.558   3.537  0.0154  0.0004  0.0462
10071W        W29605  10.908  12.147  15.315  0.2257  0.0794 -0.1149
10072W        W29606   0.666  15.400   1.054  0.2538  0.1765  0.1536
10073W        W29607  12.967   9.192  13.465 -0.1438 -0.2854 -0.0594
10074W        W29608  11.314   7.077  12.207 -0.2106  0.0988  0.1305
10075W        W29609   4.748   1.977   2.754  0.1118 -0.2328  0.4073
10076W        W29610  14.343  11.477   4.770  0.1680 -0.1403 -0.1406
10077W        W29611   2.208  10.784   0.072 -0.0671 -0.0065 -0.3116
10078W        W29612   7.007  17.218   0.196  0.3984 -0.0822 -0.0399
10079W        W29613  16.463   4.728   3.694 -0.2428  0.1397 -0.1014
10080W        W29614  10.723  11.642  14.671 -0.0578  0.0211 -0.1836
10081W        W29615  16.731   3.830  15.775  0.1541 -0.0804  0.0910
10082W        W29616  10.385   4.774   4.028 -0.0728  0.2759  0.3356
10083W        W29617  10.243   0.466   3.547  0.2373  0.0538 -0.1599
10084W        W29618   4.099   5.917   3.429  0.0853  0.2776  0.1410
10085W        W29619  12.805  12.319  13.610  0.1121  0.1361  0.2462
10086W        W29620   5.393  14.274  11.293  0.2519 -0.1441  0.1884
10087W        W29621  17.108   4.711  11.823  0.2095 -0.2576 -0.2512
10088W        W29622   3.855   5.958  11.276  0.1215 -0.0623 -0.3682
10089W        W29623   7.316   0.061  11.289  0.1394 -0.0074 -0.1606
10090W        W29624  10.918  12.947  11.789 -0.2011  0.2291 -0.0771
10091W        W29625  15.427  17.931  14.684 -0.2451  0.0126  0.2490
10092W        W29626  16.150  10.488   2.699 -0.0792 -0.1768  0.0436
10093W        W29627   2.945   5.549   0.526  0.1278 -0.0530  0.0204
10094W        W29628   8.281  13.954   4.892  0.0186 -0.0290  0.2334
10095W        W29629   5.817   0.641  12.130  0.1245 -0.1246 -0.1507
10096W        W29630  17.871   3.674   1.289  0.0178  0.3563 -0.1437
10097W        W29631  13.429   2.273   3.899  0.2093  0.0572 -0.0311
10098W        W29632  12.321  11.232  13.218  0.0657  0.0367  0.1305
10099W        W29633   6.806  17.096  12.026  0.0720  0.0806  0.0027
10100W        W29634  16.991  14.335   3.795 -0.5077  0.0347  0.1485
10101W        W29635   8.113   2.336  11.255 -0.0526 -0.3046 -0.1055
10102W        W29636  17.126  16.582   0.394 -0.1050 -0.0024 -0.3095
10103W        W29637  14.849   9.125   4.837 -0.3091  0.0227  0.1227
10104W        W29638   7.249   0.551   0.265  0.1918 -0.0450 -0.0036
10105W        W29639  15.550   7.701   4.189 -0.0582  0.0010  0.3346
10106W        W29640   0.115  17.870  15.921  0.1244 -0.2831 -0.0958
10107W        W29641  14.941   9.183  15.412  0.1067  0.0853  0.2224
10108W        W29642  11.140  14.164   1.217  0.1071 -0.2243  0.3132
10109W        W29643   3.246   8.432   1.902  0.0409  0.0326  0.3017
10110W        W29644   6.635   0.423  15.049  0.0151 -0.1773 -0.0797
10111W        W29645  18.099  12.849  12.961 -0.4217  0.1314 -0.0836
10112W        W29646  13.592  17.316  15.805  0.0499  0.0728 -0.0157
10113W        W29647  17.349   9.971   3.564 -0.2045  0.2169 -0.0797
10114W        W29648  14.129   9.399   1.593 -0.2477 -0.1196  0.0175
10115W        W29649   1.225   8.591  13.874  0.0491  0.0550  0.1008
10116W        W29650   8.794  16.367  13.656  0.3117 -0.1439  0.1249
10117W        W29651  13.609   1.418  11.229 -0.2041  0.1161 -0.0207
10118W        W29652   2.880   7.056  11.649 -0.0948 -0.0283  0.2419
10119W        W29653   5.014  12.186   3.689 -0.0292 -0.2508 -0.1375
10120W        W29654   7.555  16.079   5.441 -0.1299 -0.1937 -0.2861
10121W        W29655   2.522   7.047  15.108  0.2583 -0.2791 -0.0643
10122W        W29656  13.569   0.609   2.357 -0.0877 -0.1041  0.1332
10123W        W29657   3.649  14.817   0.985 -0.2457 -0.1188 -0.1943
10124W        W29658  11.995   3.192   1.396  0.3719 -0.0826 -0.1139
10125W        W29659   1.495   9.367  11.383  0.0317  0.2038  0.0143
10126W        W29660   9.013  11.698  15.866  0.0212 -0.0659  0.1929
10127W        W29661   1.429   1.815   4.163  0.0734 -0.1319 -0.0292
10128W        W29662  12.481   2.887  13.074 -0.0955 -0.2114  0.0039
10129W        W29663  11.673   4.575   4.755 -0.0920 -0.0616 -0.0654
10130W        W29664  13.854  13.881  14.075 -0.0295 -0.0026 -0.1678
10131W        W29665  15.483  16.955  12.607  0.2714 -0.0186  0.0074
10132W        W29666   7.074  13.738   0.304 -0.3972 -0.1234 -0.2644
10133W        W29667  14.280   0.946  15.878 -0.0756  0.0159 -0.0575
10134W        W29668   8.119   5.841  11.763 -0.2635  0.1523 -0.0920
10135W        W29669   7.671  12.231   0.813  0.1266 -0.3206 -0.1681
10136W        W29670   8.517   6.347   2.362  0.0521  0.0888  0.2084
10137W        W29671  13.081  14.366  12.925 -0.1107  0.2375  0.2255
10138W        W29672  16.082   2.002   5.206  0.1266 -0.0118 -0.1939
10139W        W29673  15.714   0.894   5.740 -0.2065 -0.0955 -0.1800
10140W        W29674   9.136   5.168   4.438 -0.2967 -0.0975  0.0068
10141W        W29675   8.663  14.337  13.293 -0.3355  0.0487  0.0487
10142W        W29676  12.739  11.443  11.631  0.4108  0.1185 -0.1511
10143W        W29677   8.412   0.055  12.867  0.0327  0.1785  0.2219
10144W        W29678   6.404  17.562  13.691 -0.0478 -0.0366  0.0140
10145W        W29679  16.833   1.651   1.446  0.0870 -0.0440  0.0096
10146W        W29680   3.328  14.520   4.983  0.1164  0.0143  0.2317
10147W        W29681  13.147  12.655  14.529  0.1072 -0.1548  0.1042
10148W        W29682  13.495   8.397   0.807  0.2345  0.2949  0.1535
10149W        W29683   6.290  14.359  13.459  0.1039  0.1840  0.0967
10150W        W29684  16.277   1.462   3.243 -0.1916 -0.1313  0.2450
10151W        W29685   5.406  13.505   3.880 -0.0867  0.2509  0.0106
10152W        W29686  17.963   5.133  14.886  0.3117 -0.1336 -0.2875
10153W        W29687  17.449   4.321  11.797 -0.0539 -0.2016  0.0852
10154W        W29688   9.748   5.442   0.483 -0.2996  0.1834  0.0756
10155W        W29689  10.645  13.145   3.292 -0.3288 -0.1378 -0.2279
10156W        W29690   0.658   4.613  13.828 -0.1092 -0.0949  0.1434
10157W        W29691  17.422  13.951  12.524  0.4198 -0.0534  0.1154
10158W        W29692   2.300   6.721   1.510 -0.2566 -0.2222  0.0408
10159W        W29693  10.056   4.729   2.749  0.2095  0.2789 -0.4700
10160W        W29694   8.709   7.361   4.471  0.1001  0.1147  0.1407
10161W        W29695  11.494   1.249  12.291 -0.0658  0.0909  0.1368
10162W        W29696  12.162  14.098  13.927  0.1791 -0.0508 -0.2622
10163W        W29697  12.291   3.536   1.179 -0.0681 -0.2199 -0.1660
10164W        W29698  15.032  18.155  10.242  0.1580 -0.0916 -0.4796
10165W        W29699  16.220  11.845   4.739 -0.3800 -0.0115  0.5747
10166W        W29700  10.729   6.193  11.640  0.0055  0.0717 -0.2467
10167W        W29701  18.063   5.451   3.181  0.0801  0.2110 -0.0297
10168W        W29702  11.986   6.391   5.268 -0.1089 -0.0281 -0.3526
10169W        W29703   6.015  18.166  14.371 -0.2764  0.0670  0.0656
10170W        W29704  17.708  15.576  13.208  0.0139 -0.2975  0.2772
10171W        W29705   8.394   1.000  11.935 -0.0168 -0.1474  0.0033
10172W        W29706   2.412   2.192  12.053 -0.1683 -0.2088  0.0774
10173W        W29707  12.706   0.890  12.877 -0.1682  0.1054 -0.3060
10174W        W29708  13.435  14.134  13.207 -0.1802 -0.0395 -0.0765
10175W        W29709   2.078  11.372   3.823 -0.1151  0.2456  0.3813
10176W        W29710  15.232   6.599   5.510 -0.1313 -0.1684 -0.2254
10177W        W29711   3.918  13.230  13.023  0.2129  0.0914  0.1967
10178W        W29712   5.620   0.631   4.056  0.1187  0.1706  0.3289
10179W        W29713   0.491   4.271  12.991  0.1562 -0.1079  0.1477
10180W        W29714  11.589   1.052  14.024 -0.0811 -0.0838  0.0379
10181W        W29715  14.234  16.060   3.601  0.0165 -0.0225 -0.0426
10182W        W29716  15.866   2.981   0.621 -0.2029  0.1673 -0.0216
10183W        W29717   8.440   5.594   0.049 -0.0536 -0.0259 -0.3538
10184W        W29718   9.575  17.056  12.406  0.2556 -0.0398 -0.3527
10185W        W29719  14.027  10.012  12.879  0.1722  0.0956  0.0176
10186W        W29720  16.591   5.941   1.161  0.1230  0.1312 -0.0317
10187W        W29721  11.062   7.992  15.540  0.0040 -0.0341 -0.0776
10188W        W29722  12.980   9.673   0.258  0.1673  0.2035 -0.0177
10189W        W29723   9.482  15.904  11.815  0.0147  0.1921 -0.0145
10190W        W29724   4.101  15.530  12.863 -0.0077  0.0957  0.0248
10191W        W29725  12.742   2.432   1.139 -0.0676  0.1844  0.0607
10192W        W29726  13.888   6.031  13.924  0.1569  0.0759 -0.0237
10193W        W29727   4.293   8.297   5.382 -0.1512 -0.0345 -0.1680
10194W        W29728   9.261  10.051  12.652  0.0587 -0.0912  0.1506
10195W        W29729   4.307   6.072   3.001 -0.3403  0.0932  0.1875
10196W        W29730   3.844  17.438   4.202 -0.0579  0.1162  0.1942
10197W        W29731   7.686   8.468   0.250 -0.1255  0.0565 -0.0794
10198W        W29732  10.554  10.808   3.666 -0.0960 -0.2932 -0.2396
10199W        W29733   8.111  17.332  15.889  0.1306  0.0981  0.2219
10200W        W29734  16.837  18.085   1.245 -0.0196 -0.1815 -0.1317
10201W        W29735   6.942  15.411  14.078  0.0299 -0.0316  0.0958
10202W        W29736  10.344   3.327  13.090  0.1469  0.1504  0.2627
10203W        W29737  12.921  16.692   3.547 -0.0965 -0.0503 -0.2753
10204W        W29738  13.815   0.608  15.900  0.2818 -0.2561 -0.1499
10205W        W29739  15.093  15.465   2.112  0.0468  0.2024 -0.0650
10206W        W29740  14.227  12.110  12.704  0.1660 -0.1558  0.0101
10207W        W29741   9.762   9.668  14.145 -0.0012 -0.1898 -0.1852
10208W        W29742   3.589  16.075   1.404  0.1806  0.3790 -0.1541
10209W        W29743   3.433  14.283  12.948  0.2976  0.0393 -0.4955
10210W        W29744  13.724  11.366   4.929 -0.0403  0.0255  0.1347
10211W        W29745   2.017   7.239  14.338 -0.1713  0.3160 -0.0901
10212W        W29746  16.215   9.474   1.511 -0.1191  0.1177 -0.1588
10213W        W29747   6.262   0.958  13.612 -0.0261  0.1101 -0.2792
10214W        W29748  17.043  15.679   3.777  0.1118  0.0411  0.0708
10215W        W29749   1.023   4.343  11.351  0.0223  0.2990  0.2624
10216W        W29750   0.048   8.584   2.911 -0.1226  0.0396 -0.1884
10217W        W29751   1.632   6.956  15.283  0.1604 -0.0565 -0.2277
10218W        W29752   1.471  11.785   0.828  0.0675 -0.0305 -0.2788
10219W        W29753  17.817  10.999   3.685 -0.2159 -0.1614  0.1012
10220W        W29754  11.518  13.273   2.609 -0.0616  0.0638 -0.0014
10221W        W29755   8.948   4.473   3.725 -0.4298 -0.0759  0.1966
10222W        W29756   7.583  13.069  12.648 -0.2419  0.0341 -0.0616
10223W        W29757  12.174   2.865   3.790  0.0608  0.2179 -0.2218
10224W        W29758   8.695   5.755  11.592 -0.1257  0.2137  0.1374
10225W        W29759  10.355  16.337   3.359  0.2372  0.1021 -0.0340
10226W        W29760  10.520   5.072  12.586 -0.3042 -0.0018  0.0825
10227W        W29761  14.274   4.749   3.317 -0.0841  0.2540 -0.0664
10228W        W29762   3.727   6.144  12.477 -0.0701 -0.0739 -0.0450
10229W        W29763  14.914   1.096  14.846 -0.2461  0.3360 -0.0591
10230W        W29764   5.656  15.250  13.615  0.0056 -0.0881  0.2858
10231W        W29765   4.791  11.243  11.508  0.0993 -0.0413 -0.0183
10232W        W29766  18.143   1.238   3.459  0.1846  0.1796  0.0173
10233W        W29767   3.566   6.997   2.700 -0.1999  0.2929 -0.1946
10234W        W29768  17.924  17.144   0.911 -0.2153 -0.1370 -0.1450
10235W        W29769   7.445   5.012  14.427  0.1413  0.0402 -0.1449
10236W        W29770  12.184  10.492   0.469  0.0827  0.1430 -0.0672
10237W        W29771   3.874   6.676  12.940 -0.0520 -0.1937  0.1260
10238W        W29772  17.757   5.661  12.029 -0.2337  0.4133 -0.0197
10239W        W29773   9.002  17.492  13.985  0.0390  0.0639 -0.4803
10240W        W29774   9.053   7.328  12.047 -0.1727  0.2902 -0.1319
10241W        W29775   7.522  13.900   3.529 -0.1806 -0.2903  0.1343
10242W        W29776   9.871   5.209   1.671 -0.3391 -0.4795 -0.0965
10243W        W29777  14.480  10.373   3.163 -0.2251  0.0326 -0.2793
10244W        W29778   9.895  15.986   0.660  0.0108  0.0983  0.0480
10245W        W29779   0.342   0.981   2.191  0.1523  0.0957 -0.1056
10246W        W29780   7.478  17.646   1.098 -0.1026  0.0817  0.0729
10247W        W29781   2.193   2.900  16.047 -0.0273  0.0656 -0.0644
10248W        W29782  17.473   7.685  14.432  0.1179  0.0905 -0.1299
10249W        W29783   3.255  16.283   1.834 -0.0288  0.0454  0.3204
10250W        W29784   3.898  13.892  13.539 -0.2707  0.2082  0.2404
10251W        W29785   7.018   0.005  13.896  0.1726 -0.0795 -0.0451
10252W        W29786   4.595   5.060   1.897  0.1833 -0.0716 -0.0657
10253W        W29787  16.629   1.119   4.046 -0.1395  0.0522  0.0494
10254W        W29788  15.329   4.098   1.048  0.0920  0.4314  0.1738
10255W        W29789   4.065   3.484  14.223 -0.1878 -0.0106  0.2822
10256W        W29790  17.145   6.163  11.602  0.3891 -0.1082  0.0779
10257W        W29791  12.014   4.484   3.570 -0.0515  0.0277 -0.2705
10258W        W29792   9.018   1.927  14.634  0.0526  0.1379 -0.1404
10259W        W29793  12.321  16.639   0.741  0.0656  0.2490  0.0604
10260W        W29794   7.872   4.011  12.430  0.0414 -0.1998 -0.1027
10261W        W29795  11.800   8.638   4.294  0.1187 -0.1190  0.2430
10262W        W29796   9.299  10.135   1.001 -0.4136  0.2064 -0.0903
10263W        W29797  13.056   0.452   2.265 -0.1775  0.0918 -0.2113
10264W        W29798  10.713  17.569   3.722  0.0025 -0.0705 -0.5407
10265W        W29799  16.602  14.504   2.474 -0.1023  0.0121  0.2646
10266W        W29800   2.731  17.794   2.258  0.1005  0.2019  0.2357
10267W        W29801  14.615   0.922   0.309 -0.2445 -0.1070  0.3491
10268W        W29802  10.544   7.914  13.221  0.0214  0.1897 -0.0590
10269W        W29803  15.599   6.757   0.197  0.3087 -0.2883  0.2034
10270W        W29804  14.709  15.551  15.351 -0.0615 -0.3467 -0.0588
10271W        W29805  16.673   3.204   4.190 -0.1416  0.3431  0.0835
10272W        W29806   9.824   5.746  14.154 -0.1900  0.1755 -0.1921
10273W        W29807  12.744   3.677  10.623 -0.0153 -0.1051  0.1088
10274W        W29808  16.146   7.577  13.404 -0.0692  0.0974  0.3445
10275W        W29809   1.170  11.370  13.899 -0.3828  0.0049 -0.1191
10276W        W29810   2.997  13.929   3.922  0.2741 -0.1702 -0.0007
10277W        W29811  16.802  13.090   2.337 -0.3188 -0.2073 -0.2840
10278W        W29812   3.617  14.079   3.429  0.2425 -0.0789 -0.2700
10279W        W29813   2.122  12.422  12.131 -0.0088 -0.0751  0.0568
10280W        W29814  14.536  14.348   3.597 -0.2254  0.0142 -0.1673
10281W        W29815   1.537   7.889  12.700 -0.0693 -0.0541 -0.2180
10282W        W29816   4.816   7.561  13.418  0.0424 -0.3366  0.0398
10283W        W29817  14.310  11.217   2.851  0.2038 -0.0485 -0.0653
10284W        W29818   2.941  12.800  15.462  0.1898  0.1797 -0.2381
10285W        W29819   3.355   2.345  11.885 -0.3526 -0.2762  0.0792
10286W        W29820  14.202   8.970   0.005  0.0406 -0.2273 -0.0505
10287W        W29821   7.052   4.082  15.415  0.0556 -0.2564  0.0002
10288W        W29822   3.179   0.163  12.776 -0.0426 -0.1774 -0.0161
10289W        W29823   5.944  13.519   3.615 -0.1422  0.0909 -0.0134
10290W        W29824   0.073  12.247  12.576  0.2001  0.0364  0.0799
10291W        W29825   9.316   5.993   2.518  0.0068  0.1452 -0.0418
10292W        W29826   7.604   0.431  15.550 -0.2021 -0.1171 -0.2022
10293W        W29827   9.262  11.988  15.505  0.0825 -0.0881  0.2158
10294W        W29828   4.568  12.749  14.990  0.0708 -0.2492 -0.1814
10295W        W29829   1.788  17.600   4.166 -0.2073  0.1902  0.0759
10296W        W29830   5.013   3.182   0.983  0.1922  0.1495 -0.0082
10297W        W29831   6.501   9.666  14.406  0.0355 -0.0616  0.0167
10298W        W29832   5.073   4.932  13.316  0.0029  0.1561  0.4922
10299W        W29833   9.380  12.608   0.835  0.0286  0.3900 -0.0204
10300W        W29834  16.417   5.816  13.119 -0.0371 -0.2432  0.1727
10301W        W29835   1.202   4.159   2.203  0.2248  0.2727 -0.1783
10302W        W29836  11.652  14.485   2.948 -0.1916 -0.2890  0.0069
10303W        W29837   8.576   7.720  13.002  0.0501 -0.2467  0.1224
10304W        W29838  16.040  12.154  15.986  0.1115 -0.2935 -0.1691
10305W        W29839   7.253   3.621   0.164  0.1632  0.0528 -0.1479
10306W        W29840   4.046   5.730   1.591  0.0132  0.2064  0.0429
10307W        W29841  12.583   9.506   4.572 -0.1571  0.1359  0.1478
10308W        W29842   3.468   9.587  15.993  0.4222 -0.0677 -0.1550
10309W        W29843   9.693   3.358   2.110 -0.2362 -0.0234 -0.2569
10310W        W29844   8.962  15.498  13.676 -0.1047 -0.1058 -0.2068
10311W        W29845  12.242  12.668  11.689 -0.0861 -0.1847  0.2276
10312W        W29846  10.525  11.694   3.517 -0.3019 -0.0146  0.0770
10313W        W29847   3.039  15.701  14.972  0.1831 -0.0578 -0.2894
10314W        W29848  12.031  15.173  15.371 -0.2598  0.1849 -0.5030
10315W        W29849   2.248  12.542   0.053  0.1682  0.0350 -0.3890
10316W        W29850  15.901   9.940  11.698  0.1256 -0.2250  0.0078
10317W        W29851  10.135   9.071  13.992  0.0697 -0.3049 -0.1684
10318W        W29852   3.603   9.161   2.193  0.4057 -0.1030  0.1456
10319W        W29853  13.155   9.387   2.135  0.0539  0.0160 -0.1854
10320W        W29854   8.041  12.423   3.717  0.4339  0.0786 -0.1189
10321W        W29855   4.833  17.865   1.352 -0.0645 -0.2714  0.0605
10322W        W29856   1.448  13.622  14.415 -0.1191  0.0827 -0.0233
10323W        W29857  12.917  14.090   0.211  0.3028  0.0455  0.0359
10324W        W29858  16.905  17.567  12.015  0.0848 -0.1781 -0.0050
10325W        W29859  16.955   7.088  15.190  0.0845 -0.3688 -0.1190
10326W        W29860   2.269   4.781  12.818  0.2307  0.4869 -0.1268
10327W        W29861   0.729   3.825  14.313  0.0308 -0.0693  0.1659
10328W        W29862   4.624   1.254   0.709  0.1858  0.0207  0.0378
10329W        W29863  11.491   1.880   4.231 -0.0321 -0.0500  0.3007
10330W        W29864   3.915   3.778  15.487  0.0173 -0.0640 -0.0826
10331W        W29865   2.790  12.209  13.177  0.0435 -0.0998  0.2693
10332W        W29866   5.238   0.619   0.966 -0.1402  0.2375  0.0478
10333W        W29867  17.683   8.134  14.213 -0.2570 -0.2356 -0.3737
10334W        W29868  11.191  17.932   4.355 -0.0222  0.0713  0.0660
10335W        W29869   3.150   0.563  15.483  0.0586 -0.1485 -0.1171
10336W        W29870   4.716  18.148  12.298  0.0138 -0.0427 -0.0315
10337W        W29871  16.037   5.109  14.363 -0.0273 -0.3529  0.1284
10338W        W29872   4.647  10.517  15.933 -0.0609 -0.1216 -0.2676
10339W        W29873   6.526  15.503  11.686  0.0478 -0.0751  0.0347
10340W        W29874  11.373  13.243   3.161 -0.4034 -0.2898 -0.1307
10341W        W29875   4.778  11.076   0.908  0.0198 -0.0167 -0.0245
10342W        W29876  14.441  10.705  12.297 -0.1652  0.1986  0.1115
10343W        W29877  12.267  16.464   1.901  0.0858 -0.0888 -0.1981
10344W        W29878   5.068   4.898   0.157 -0.1525  0.1744  0.2364
10345W        W29879   3.915   0.423  11.208 -0.0104  0.2849  0.0465
10346W        W29880  15.052   1.627   2.881 -0.1226 -0.1434 -0.0626
10347W        W29881  17.178  13.166  14.792 -0.0531 -0.2901 -0.0114
10348W        W29882   1.388  18.088  14.028 -0.5266  0.4429  0.3864
10349W        W29883  10.473  16.555  12.775 -0.1847 -0.1202 -0.2304
10350W        W29884  15.934   9.382  14.036 -0.0697  0.1031 -0.0093
10351W        W29885   2.110  11.291  15.129 -0.0392 -0.0926 -0.1388
10352W        W29886  15.378   9.998   2.936  0.2234 -0.0752 -0.4818
10353W        W29887   8.800  10.973  14.264 -0.1449  0.0047 -0.0486
10354W        W29888  12.423   4.625   6.015 -0.0726 -0.0190  0.1403
10355W        W29889   7.099  10.655   2.184  0.0979  0.1480  0.0988
10356W        W29890   6.699   5.136   5.422  0.1691 -0.0616  0.0543
10357W        W29891   4.632  11.407   0.502  0.1395  0.1327 -0.1273
10358W        W29892   7.349   6.294   0.532  0.1679  0.1734 -0.1530
10359W        W29893  11.821  17.808  12.367 -0.0650 -0.2077  0.1729
10360W        W29894  16.246  13.244   3.699  0.0035  0.1996  0.0932
10361W        W29895   1.042  11.796   2.243 -0.2908  0.0599  0.0443
10362W        W29896  10.170   9.284   0.169 -0.0171  0.2007 -0.1071
10363W        W29897   1.887  14.797   3.093  0.0054 -0.1805  0.1143
10364W        W29898  14.425  10.973  15.172  0.2130 -0.0359 -0.1382
10365W        W29899   3.089  12.921   4.172 -0.2793 -0.0656  0.1083
10366W        W29900   9.091   5.757  13.585 -0.1164  0.3673  0.2275
10367W        W29901   3.090  15.946  14.106  0.0092 -0.1051  0.2359
10368W        W29902  11.511  16.239  15.385 -0.2199 -0.0841 -0.2085
10369W        W29903   9.536  11.224  13.844 -0.0115  0.0442  0.1124
10370W        W29904   1.268   8.940  13.045 -0.0950  0.0536 -0.2099
10371W        W29905   2.870  12.348   0.063 -0.0850 -0.2178 -0.1168
10372W        W29906   5.835   6.209  10.975  0.3102 -0.2600 -0.1356
10373W        W29907   2.345  12.978  13.640  0.2300 -0.2433 -0.0964
10374W        W29908   4.050  10.841   4.347  0.2628 -0.2150 -0.0414
10375W        W29909   0.266   3.358   0.014 -0.1554 -0.0386 -0.0079
10376W        W29910  17.061   8.649  14.145  0.1113  0.1479  0.0933
10377W        W29911  16.788   5.975   2.258  0.2739 -0.0372 -0.0945
10378W        W29912  14.460  16.884   2.988 -0.1684 -0.0408 -0.2270
10379W        W29913   8.703  16.870  15.269 -0.2225 -0.0520 -0.1157
10380W        W29914   7.183   1.594   1.379 -0.3836  0.1419 -0.5420
10381W        W29915  13.904  10.924   0.549  0.1110 -0.1564 -0.1383
10382W        W29916   7.180   3.821  14.597 -0.1463 -0.1294  0.0044
10383W        W29917   5.761  15.565  13.961 -0.1356 -0.1242  0.0473
10384W        W29918  17.253   3.530   1.875  0.2906  0.1042  0.0351
10385W        W29919  16.594   3.255   1.849  0.1140 -0.2756 -0.4257
10386W        W29920   6.537   3.396   4.602  0.0872  0.0318 -0.0102
10387W        W29921  14.184  14.440  13.887 -0.0377  0.0434 -0.3883
10388W        W29922   3.260   4.951  11.527  0.0936 -0.2949 -0.1111
10389W        W29923   7.069  12.531   1.669  0.2582 -0.1732  0.2715
10390W        W29924   0.314   3.790  14.044 -0.0315  0.3169 -0.3227
10391W        W29925  11.634  16.222   0.699  0.0003 -0.0645  0.0012
10392W        W29926   1.952   9.091  12.550  0.5599  0.1398 -0.0592
10393W        W29927   1.027   1.820   1.297  0.2419 -0.2868  0.0425
10394W        W29928  16.404   9.202  12.634 -0.1988  0.0505  0.1826
10395W        W29929  10.560   7.447   2.481 -0.2378 -0.2092  0.2573
10396W        W29930   7.947  10.127   3.410  0.2587 -0.1461 -0.0203
10397W        W29931   1.788  13.899   2.642  0.1502 -0.2525  0.3112
10398W        W29932  10.529   8.817   2.635  0.0211  0.0100 -0.1109
10399W        W29933  15.712  14.897   3.974  0.2449 -0.1264 -0.2517
10400W        W29934   6.800   5.560   4.688 -0.0569  0.2497  0.0465
10401W        W29935   9.175  11.607  13.688  0.3502 -0.1891 -0.1306
10402W        W29936  12.848  14.851  13.696  0.0650  0.0483  0.0243
10403W        W29937   8.242  15.699  12.495  0.4843 -0.0549 -0.2505
10404W        W29938  17.336  15.760  11.512 -0.0778 -0.1776  0.1103
10405W        W29939   7.907  16.846   2.991  0.2358 -0.0471 -0.0837
10406W        W29940  14.815   8.336   1.998 -0.2502 -0.2117  0.0798
10407W        W29941  13.629   4.618   2.531  0.1008  0.0258  0.0084
10408W        W29942   2.498   8.196  12.578  0.1078  0.0276  0.1642
10409W        W29943  13.768   5.175   0.237 -0.0176  0.2877  0.1197
10410W        W29944  10.480  14.797   4.351 -0.1530  0.0288 -0.0561
10411W        W29945  15.724   0.509   4.079 -0.2938  0.0830 -0.1800
10412W        W29946   2.565   7.491  15.404  0.0920  0.0092 -0.4323
10413W        W29947  14.285  14.565  12.244  0.2808  0.0210 -0.3572
10414W        W29948   3.831  17.276  12.983  0.3204 -0.0164 -0.0083
10415W        W29949   6.809  11.514   0.890  0.2283 -0.0337  0.1685
10416W        W29950  13.215  13.543   4.374  0.1876 -0.1991 -0.0420
10417W        W29951  15.689  13.324  15.698 -0.0096  0.0159  0.1075
10418W        W29952  11.560  17.631   4.178 -0.0073 -0.3268 -0.0895
10419W        W29953  15.730   6.976   2.489  0.0169  0.1335 -0.0899
10420W        W29954  15.899  10.957  11.670 -0.2058 -0.1676  0.1657
10421W        W29955   4.175   3.261  11.770  0.1907 -0.0870  0.0160
10422W        W29956   0.095  14.664   3.465  0.1215  0.0355 -0.1231
10423W        W29957   3.110  11.980   4.288  0.0263 -0.2196 -0.2025
10424W        W29958   7.814  15.157   0.862  0.1793 -0.1120 -0.1170
10425W        W29959   6.072  12.067   2.357 -0.3239  0.1416  0.1165
10426W        W29960   5.171  10.852  12.400  0.1729  0.2579 -0.0926
10427W        W29961   4.547   7.721   2.039  0.2799 -0.2062 -0.0540
10428W        W29962  14.470   4.205   3.454  0.1080 -0.1785 -0.0847
10429W        W29963   4.361   4.023   2.150 -0.1329  0.0304 -0.0465
10430W        W29964  16.371   5.154   2.259  0.4661 -0.0928  0.3298
10431W        W29965  11.723   8.072  13.474 -0.4067 -0.2188 -0.3124
10432W        W29966   4.266   9.560  11.007  0.0400  0.1510  0.3185
10433W        W29967   9.662   3.503  15.826  0.1968  0.2019 -0.1303
10434W        W29968  13.793   6.320   1.874  0.0279 -0.0407 -0.2654
10435W        W29969   1.255  17.555   2.603  0.0017 -0.1808 -0.0924
10436W        W29970   5.494   5.405   0.564 -0.1124 -0.0874 -0.3100
10437W        W29971   5.852  15.831   0.611  0.3532  0.2328 -0.2805
10438W        W29972   8.734  16.158  13.199 -0.2227 -0.2800 -0.0256
10439W        W29973   7.367  16.566   4.480  0.0395  0.0310 -0.3603
10440W        W29974   0.207  10.310   4.462  0.0460 -0.0987  0.3988
10441W        W29975  11.029  13.903  11.070 -0.1016 -0.0678  0.3606
10442W        W29976   7.597   1.090  12.708  0.0444  0.3088  0.1098
10443W        W29977   2.534   2.799  15.385  0.0759  0.1721 -0.1638
10444W        W29978   6.238   3.879   2.068 -0.2076 -0.1757 -0.2747
10445W        W29979   2.312  12.274   4.761  0.1079 -0.0723 -0.0055
10446W        W29980  10.654   4.818   2.838  0.0578 -0.0394 -0.1298
10447W        W29981  14.761  17.209  12.035  0.0557 -0.0907  0.1928
10448W        W29982   3.055  17.894  15.098 -0.3764  0.3655 -0.0608
10449W        W29983  17.562   6.955   3.151 -0.1409 -0.0398 -0.1311
10450W        W29984   0.963  14.069   3.309  0.1321 -0.3346  0.2256
10451W        W29985  17.439   9.205  13.801  0.1238  0.1186 -0.1347
10452W        W29986   1.396   6.407   2.630 -0.2136  0.1940  0.2541
10453W        W29987   4.712   7.554   2.709 -0.3256  0.0767  0.2359
10454W        W29988  17.229   5.264  12.847 -0.3032  0.2557 -0.1876
10455W        W29989   5.287  11.019  14.109  0.1291  0.0180  0.0229
10456W        W29990   5.761   1.184  11.374  0.1924 -0.0533  0.0786
10457W        W29991   2.364  14.109   1.845  0.2351  0.0601  0.0942
10458W        W29992   7.769  15.616  11.854 -0.1776 -0.0836 -0.2854
10459W        W29993   9.762  18.086   3.572  0.1434  0.2973  0.0766
10460W        W29994   5.587   3.472   1.595 -0.0868  0.0173  0.0874
10461W        W29995  17.010   6.558   0.434  0.2373 -0.1804  0.1068
10462W        W29996  15.650  15.415   3.014 -0.3240 -0.1071 -0.0090
10463W        W29997  14.625  13.884  15.215 -0.2864 -0.1082  0.0696
10464W        W29998  16.736   9.897  11.948 -0.0650 -0.1790  0.0235
10465W        W29999  14.035   8.681  11.649 -0.0105 -0.0383  0.1278
10466W        W30000  11.327   5.210  13.511  0.2186 -0.0248 -0.1683
10467W        W30001   6.342   1.657  13.284  0.0557 -0.2918 -0.2325
10468W        W30002  14.423  16.428  14.373  0.0007 -0.1320 -0.0654
10469W        W30003  16.012  15.090  11.973  0.0150  0.2659  0.2503
10470W        W30004   2.317   8.751   3.383 -0.3177  0.2245 -0.1846
10471W        W30005   8.127   7.729   3.647  0.0418  0.1992 -0.2082
10472W        W30006  14.359  18.153   0.385 -0.0469  0.1539 -0.0041
10473W        W30007   3.363  10.796   0.775 -0.1124 -0.0272  0.1369
10474W        W30008   8.506  16.600  13.166  0.0767  0.1607 -0.0855
10475W        W30009   9.051  12.404   2.070  0.1044  0.0802  0.2072
10476W        W30010   4.596   6.008  15.525  0.2240 -0.0701  0.1879
10477W        W30011  18.105  11.685   4.143 -0.1223  0.1355  0.4403
10478W        W30012  16.889   3.426   1.524  0.0286 -0.1650 -0.1162
10479W        W30013   1.097  13.980   2.161  0.2204 -0.1191  0.1190
10480W        W30014   5.361  10.237  12.997  0.1916 -0.0380  0.0693
10481W        W30015  15.172   8.521   4.173  0.0945 -0.0661  0.2767
10482W        W30016  12.836  15.665   1.971 -0.1603 -0.1260 -0.2237
10483W        W30017  12.834   1.450  13.325  0.0583 -0.2513  0.1516
10484W        W30018   4.475   7.447  13.786 -0.1105 -0.0052 -0.3864
10485W        W30019  11.801   9.018   3.987  0.0588  0.1010 -0.0176
10486W        W30020   7.458  13.070  14.438  0.0255  0.3027  0.1383
10487W        W30021  13.180  11.944   2.496  0.1931  0.0060  0.0463
10488W        W30022   1.339   5.030   3.559  0.0178 -0.1954  0.2140
10489W        W30023   0.698   7.554   0.572 -0.0856  0.1847  0.0163
10490W        W30024   7.430  15.627  14.872  0.1589  0.0446 -0.0344
10491W        W30025  12.979  17.798   0.961 -0.0594  0.1624  0.1224
10492W        W30026   0.542  10.927  13.495 -0.0325  0.1888  0.2194
10493W        W30027   4.185   2.054  15.300 -0.1570  0.1576 -0.2100
10494W        W30028  17.865   5.536  14.191  0.0497  0.0291  0.0707
10495W        W30029  15.566   9.821  12.660  0.1236 -0.2882  0.3037
10496W        W30030  17.922  13.313   0.182  0.5205 -0.1387 -0.0764
10497W        W30031   3.901  14.375   0.034 -0.0780 -0.2151 -0.0103
10498W        W30032   3.252   9.408   4.049 -0.1540 -0.0062  0.1343
10499W        W30033  14.376  16.318   0.328 -0.0212  0.0569  0.0080
10500W        W30034  12.021   6.157   2.579  0.0057  0.0816 -0.1880
10501W        W30035   1.855   7.313  12.582  0.2969 -0.1677 -0.2277
10502W        W30036  14.131  16.287  13.408 -0.1786 -0.1736  0.0551
10503W        W30037  17.815  11.733  15.911  0.2616  0.1390  0.0689
10504W        W30038   3.662  11.058  13.114  0.0448 -0.2056 -0.0109
10505W        W30039   0.919  13.204   2.098 -0.3528  0.1323 -0.0212
10506W        W30040  13.317  17.063  12.709  0.2539 -0.1492 -0.0635
10507W        W30041  12.779   3.170   1.691 -0.0157  0.2585  0.0857
10508W        W30042  17.352  12.975   0.082  0.0010 -0.0170  0.0088
10509W        W30043   9.596  18.059   2.887 -0.3168 -0.0395  0.1041
10510W        W30044   2.370   8.978   2.601 -0.0866 -0.2642 -0.1612
10511W        W30045   7.897   4.580  14.082  0.1860  0.0144  0.1001
10512W        W30046  15.812   6.068   2.292  0.1075 -0.2412 -0.2614
10513W        W30047  16.130   2.416   0.963  0.0291  0.1069 -0.0447
10514W        W30048   3.742  15.707   3.466 -0.1791 -0.0573  0.0502
10515W        W30049  16.765  17.759   0.035  0.1238  0.0568 -0.2570
10516W        W30050   4.269  14.123   1.922 -0.0361  0.1165 -0.2869
10517W        W30051   5.010   1.437  11.588  0.2303 -0.1747 -0.1880
10518W        W30052   8.631   9.063   1.841  0.1180  0.2841  0.0806
10519W        W30053  17.979  13.430  12.103  0.0868 -0.0561 -0.0215
10520W        W30054   0.987  17.712  10.980  0.1053  0.0645 -0.0597
10521W        W30055   3.996  13.873   0.078  0.4580 -0.2374  0.0240
10522W        W30056   9.013  17.683   0.247 -0.0182 -0.2453 -0.4991
10523W        W30057   0.957  10.537   3.578  0.2337 -0.3329  0.0841
10524W        W30058   1.545   2.621   0.200 -0.0213 -0.0711 -0.0893
10525W        W30059  12.214   0.863   0.050  0.1712 -0.1607  0.1853
10526W        W30060   2.803  10.730   0.777  0.3496  0.2968 -0.2403
10527W        W30061  16.716  15.992  12.147 -0.0923 -0.1469 -0.1433
10528W        W30062  17.426  14.387   1.045  0.1729 -0.0970 -0.2442
10529W        W30063  16.171   3.493   2.216  0.1880  0.3114 -0.1788
10530W        W30064   1.804  12.592  13.415 -0.4053  0.4610 -0.4022
10531W        W30065   9.427   2.111   2.616 -0.1267  0.0472  0.2122
10532W        W30066   4.339  15.361  12.397 -0.0378 -0.2545  0.1856
10533W        W30067   9.290   0.082   1.064  0.1063 -0.0552  0.0327
10534W        W30068   1.349  16.506   4.665  0.0391 -0.0917  0.2021
10535W        W30069   4.839   2.407   3.076  0.0404  0.3088  0.0320
10536W        W30070   0.638   2.583  11.326 -0.0166 -0.2111  0.0374
10537W        W30071   5.285   9.133   1.345  0.0308 -0.2798 -0.2339
10538W        W30072   2.280   0.225  12.624 -0.2649 -0.1270 -0.2432
10539W        W30073  11.246  11.348  14.819  0.1333  0.3517 -0.1722
10540W        W30074  10.415   0.930   1.957  0.0896  0.1195  0.2100
10541W        W30075  14.660  12.237  13.568  0.1101 -0.0529  0.2022
10542W        W30076  16.384  15.569   0.853  0.1225  0.1321 -0.3192
10543W        W30077  16.278   1.185   3.635 -0.0196 -0.0051 -0.0397
10544W        W30078   6.556   4.287   3.342 -0.3070  0.1688  0.1159
10545W        W30079  12.006  15.504   3.892  0.0112  0.2541  0.0635
10546W        W30080   7.098  17.650  13.006 -0.0730 -0.0071 -0.0520
10547W        W30081   7.410  14.930   2.509 -0.1621  0.0970 -0.1704
10548W        W30082  15.067  12.348  12.605 -0.0203 -0.0344 -0.2075
10549W        W30083  16.370   9.771  14.423 -0.0006 -0.1690  0.1642
10550W        W30084   4.929  17.666  12.112 -0.4817 -0.4030  0.0723
10551W        W30085  14.430  13.246  14.529 -0.2312 -0.2785 -0.3770
10552W        W30086   6.161   6.898   0.391 -0.1406 -0.0724  0.2078
10553W        W30087  15.915   1.796   6.104  0.4876 -0.2383 -0.1725
10554W        W30088   9.643   9.159  14.789 -0.2706 -0.1420 -0.0587
10555W        W30089   7.985   5.644   2.488 -0.0256  0.1423  0.0234
10556W        W30090   6.879   5.508   1.726 -0.2611  0.0183  0.0918
10557W        W30091   4.337   7.292   0.575  0.2766  0.0146 -0.0734
10558W        W30092   7.548  17.006   2.677  0.3302  0.1655  0.0057
10559W        W30093  15.933   6.414  14.769  0.2187 -0.0225  0.1754
10560W        W30094   1.313   0.056  15.560 -0.0064 -0.1205  0.1308
10561W        W30095   6.674   5.817   0.025  0.1254 -0.1447 -0.0291
10562W        W30096  11.599   5.848   1.201 -0.1054 -0.0225 -0.3526
10563W        W30097   0.701  18.150  15.370 -0.1522 -0.3301 -0.0464
10564W        W30098   7.835  14.025   0.995  0.1264  0.3985 -0.2669
10565W        W30099   9.177  13.785  14.181  0.0912  0.0467 -0.3454
10566W        W30100  16.551  11.094   2.077  0.0107  0.0350  0.1345
10567W        W30101  13.269   0.695   3.321 -0.1129 -0.1500  0.1666
10568W        W30102   0.374   5.250   0.508  0.1505 -0.0104  0.0113
10569W        W30103   4.866   2.322   1.896  0.0493  0.2279  0.1320
10570W        W30104  11.976   5.657   3.992 -0.0311  0.0783 -0.1216
10571W        W30105   5.520   3.521   3.654 -0.0084  0.0051 -0.0631
10572W        W30106  15.824   1.329   3.027  0.0962  0.1335 -0.2765
10573W        W30107   4.496   9.547   1.845 -0.1061  0.0636 -0.2303
10574W        W30108  10.520  12.629   1.320  0.2824  0.0332 -0.0123
10575W        W30109  14.610   9.442   4.427 -0.0512  0.1123  0.0639
10576W        W30110  10.384  16.872   3.225 -0.1606 -0.1274 -0.0611
10577W        W30111  18.114   1.776   4.295 -0.0090  0.0249 -0.0844
10578W        W30112   7.622   8.305   3.086  0.1934  0.0133 -0.1603
10579W        W30113  15.657   6.133  12.843 -0.3093  0.0936  0.1747
10580W        W30114  12.443  15.539   1.507 -0.1697 -0.2865 -0.3573
10581W        W30115  14.795  16.024  14.221 -0.1951 -0.1359 -0.2465
10582W        W30116  12.124   9.949   0.661 -0.0292 -0.2133  0.0773
10583W        W30117   3.481  10.804  12.699 -0.0064  0.0135 -0.0368
10584W        W30118   4.517   8.713   1.815 -0.1777  0.0356  0.2682
10585W        W30119   6.233   0.521  13.272 -0.0377 -0.2220 -0.1454
10586W        W30120   4.041  12.229  13.811  0.1220 -0.0231 -0.1169
10587W        W30121  13.124  13.817  12.975 -0.1675 -0.1155 -0.1449
10588W        W30122   0.094   1.970  14.751  0.3775 -0.0537 -0.2086
10589W        W30123  12.586   6.785   2.294 -0.1378 -0.2011 -0.0939
10590W        W30124   5.714  11.528  12.916 -0.1384  0.0468 -0.1798
10591W        W30125  15.832  16.669   5.279 -0.0432 -0.1665 -0.0565
10592W        W30126   6.968   6.340  15.213  0.2082 -0.2937 -0.1734
10593W        W30127   7.721  16.333   2.141 -0.1715 -0.0271  0.3290
10594W        W30128   5.475   2.664   4.408  0.0387 -0.2650 -0.0038
10595W        W30129   1.789   7.398  11.661 -0.0014  0.0143  0.3942
10596W        W30130   4.403   6.652   1.760 -0.1220  0.1276 -0.2322
10597W        W30131   4.771   9.286  13.746  0.1547 -0.0802  0.2348
10598W        W30132   3.457   0.159   2.178 -0.4307 -0.1158  0.1817
10599W        W30133   2.390   9.983   1.532 -0.0102  0.1163  0.1985
10600W        W30134   9.286   1.886  10.973  0.1413  0.0502 -0.1629
10601W        W30135  16.588  15.291  16.023 -0.2158  0.1470  0.0965
10602W        W30136  13.067   7.348   2.839 -0.0679 -0.3171 -0.0015
10603W        W30137   9.939   7.229   0.386 -0.0644 -0.1369 -0.2557
10604W        W30138   3.694  10.700  10.538 -0.1308 -0.0669 -0.2187
10605W        W30139  11.549  18.063   3.937 -0.2591 -0.0258 -0.2788
10606W        W30140   7.339  10.743   1.778 -0.0841  0.3090  0.2286
10607W        W30141  12.736   3.567   2.829 -0.0422  0.0234  0.1290
10608W        W30142   5.217  14.172  12.158 -0.1737 -0.0740  0.0158
10609W        W30143   8.146   5.196   2.206 -0.1660  0.3757 -0.0021
10610W        W30144   8.924   2.674   3.622  0.0429 -0.2752 -0.0189
10611W        W30145   1.597  11.926  13.889  0.1441 -0.1189  0.0218
10612W        W30146   3.381  10.409  11.863 -0.0166 -0.1815 -0.0284
10613W        W30147  13.436  16.608  11.331  0.0320  0.4775 -0.1048
10614W        W30148   6.586   3.894  13.157  0.0042  0.0012 -0.2139
10615W        W30149   1.835   2.971   0.893 -0.3327  0.0666 -0.2447
10616W        W30150   2.866   9.549  15.839 -0.0668  0.0558 -0.0574
10617W        W30151  13.772   0.798   0.770 -0.2382  0.1055  0.2519
10618W        W30152  15.133  11.861   0.532 -0.2956  0.1199 -0.1288
10619W        W30153  13.087   8.489   1.085 -0.0626 -0.0947 -0.1251
10620W        W30154  16.116  12.010   2.029 -0.1281  0.0412  0.0806
10621W        W30155  12.126   6.717  15.018 -0.0800  0.0565  0.2451
10622W        W30156   1.460  15.858   3.719  0.1831 -0.2474 -0.3870
10623W        W30157   9.264  14.299  15.516  0.3503  0.1305 -0.1116
10624W        W30158   3.204   6.707   1.071 -0.0277  0.0169 -0.3176
10625W        W30159  13.738  16.445   1.713 -0.0183 -0.0413 -0.1058
10626W        W30160  17.382   4.804   0.862 -0.1008  0.0017  0.2693
10627W        W30161  13.517   5.795   3.558 -0.3647 -0.0275 -0.0266
10628W        W30162   5.303  12.916  12.730  0.1800  0.0315 -0.1454
10629W        W30163   0.579  13.026  14.747  0.2781 -0.2054 -0.1357
10630W        W30164   3.010  16.697   2.777  0.1688 -0.4121  0.1014
10631W        W30165   1.826   8.633   0.494  0.0134 -0.0149  0.1637
10632W        W30166   2.495   6.566  14.185  0.0002 -0.0890  0.2015
10633W        W30167   1.376  16.563  12.847  0.0236 -0.0066  0.3193
10634W        W30168  17.518  14.640   4.371  0.0774  0.1376  0.1204
10635W        W30169  14.913  11.752  14.839 -0.2963 -0.0705  0.1699
10636W        W30170   1.086   3.472  10.919 -0.0763 -0.1559  0.0256
10637W        W30171   1.207   5.484   2.336  0.0573 -0.1875  0.0536
10638W        W30172   1.522  11.484   2.089 -0.3488 -0.1216 -0.0271
10639W        W30173   1.760   8.490  11.636 -0.1997 -0.3067  0.1855
10640W        W30174  16.080   4.029  13.469  0.0995 -0.5087 -0.2433
10641W        W30175  14.613   1.938  14.443  0.3435  0.4873  0.1026
10642W        W30176   3.570   6.881   2.185 -0.0048  0.0034 -0.1871
10643W        W30177   3.464   4.797  15.314  0.0668 -0.0740  0.0373
10644W        W30178   8.743   1.769   0.659 -0.0545  0.2841  0.2406
10645W        W30179   7.247  13.305   0.040  0.1454  0.1537  0.0489
10646W        W30180   2.819  15.720  15.397  0.3278  0.0729 -0.0832
10647W        W30181  17.387   2.691   0.926 -0.0015 -0.3058 -0.0379
10648W        W30182   4.083  14.709  11.814  0.0151 -0.1136 -0.1833
10649W        W30183   7.984  13.171   2.305 -0.1640  0.1629  0.0979
10650W        W30184  16.924  15.799   4.644  0.2119  0.3560  0.2455
10651W        W30185   7.387   4.902  11.544  0.1175 -0.0683  0.0002
10652W        W30186   5.042   2.393   4.123 -0.2151 -0.0139 -0.1751
10653W        W30187  17.042  12.224  11.156  0.0195  0.0322  0.0414
10654W        W30188   9.742  10.581   3.340  0.1062 -0.0110 -0.1054
10655W        W30189   1.913   0.674  13.506  0.3816  0.2183 -0.0990
10656W        W30190  14.357  12.098   2.202  0.2810  0.0561  0.1633
10657W        W30191  12.640  10.790   3.958  0.1835 -0.0460 -0.1186
10658W        W30192  14.289  12.143   3.252 -0.0982 -0.4296 -0.2616
10659W        W30193   2.418   4.103   3.502 -0.0790 -0.3487 -0.0836
10660W        W30194  12.812  11.931   4.869 -0.1567  0.1399 -0.0432
10661W        W30195  14.799   8.555  14.168  0.0528 -0.3746  0.1179
10662W        W30196  11.265  14.726   0.240 -0.0239  0.0036 -0.2202
10663W        W30197  17.657   6.042   1.774  0.1861 -0.0233  0.0707
10664W        W30198  17.209   6.914  14.808 -0.0352  0.2829  0.2152
10665W        W30199  16.073   6.867   0.942  0.1514  0.0839 -0.3397
10666W        W30200  12.406   4.962  14.889 -0.0053 -0.2974 -0.1472
10667W        W30201   9.890   6.983   0.944 -0.0413 -0.5032 -0.2937
10668W        W30202   7.492   1.009  13.229  0.2336  0.1960  0.3508
10669W        W30203  17.705  14.226   4.782 -0.0389 -0.0600 -0.3549
10670W        W30204   3.139  14.148  15.485  0.1899  0.0162  0.1219
10671W        W30205  12.107  17.281   2.702 -0.3203  0.1445 -0.0606
10672W        W30206   0.552  13.169  15.854 -0.2348 -0.1063 -0.3540
10673W        W30207  14.907  11.640   3.492 -0.1886 -0.1390  0.2110
10674W        W30208  16.602  15.284   2.129  0.0408  0.0202 -0.0078
10675W        W30209   1.677   0.081  14.873 -0.0700 -0.1738 -0.3542
10676W        W30210   6.565  10.155  14.317 -0.3728  0.1907  0.4029
10677W        W30211   4.629  12.018   2.220 -0.0395  0.2562 -0.2539
10678W        W30212   5.832   0.491  13.021  0.0507 -0.0162 -0.2305
10679W        W30213   8.529  16.710  11.306  0.0055  0.0598  0.3034
10680W        W30214   5.343   2.211  13.296  0.0962 -0.3291 -0.1145
10681W        W30215  13.017   2.940   3.660 -0.0273 -0.0221  0.4401
10682W        W30216   1.621  17.569  11.894 -0.1325  0.0958 -0.2354
10683W        W30217   6.427   9.889   2.645 -0.1995  0.0228 -0.2346
10684W        W30218  11.307  17.903  12.224  0.1219 -0.0261 -0.3235
10685W        W30219  16.385  16.070   3.987 -0.0812 -0.0469  0.3591
10686W        W30220  14.731   3.641  11.612  0.0492 -0.1320  0.0630
10687W        W30221   6.098   4.703   3.091 -0.0311 -0.0913  0.1944
10688W        W30222   3.679  17.764  12.881 -0.2686 -0.0124  0.1283
10689W        W30223  13.545  12.934   0.112 -0.0527  0.1039 -0.1808
10690W        W30224   5.405  11.637  12.028  0.2037  0.1269  0.1156
10691W        W30225   6.939   3.664   1.060 -0.4132  0.0688 -0.0706
10692W        W30226   3.029   7.273  13.494  0.1799  0.2287 -0.2487
10693W        W30227  15.522   6.844   3.948  0.1609 -0.0863 -0.0259
10694W        W30228   6.108  16.506  13.199 -0.1978 -0.0392  0.3865
10695W        W30229   2.621  10.547  11.583  0.1297 -0.0950  0.2027
10696W        W30230   1.225   2.756   1.217 -0.1087 -0.2403  0.1549
10697W        W30231   5.462   1.876   2.361 -0.1020 -0.1998  0.0217
10698W        W30232   1.597   4.675   0.149 -0.2941  0.0640  0.1142
10699W        W30233  16.090   7.228  10.730  0.0659 -0.0376 -0.2632
10700W        W30234   8.626   0.697  15.508 -0.3469 -0.0715 -0.0910
10701W        W30235   9.907  14.706   2.753 -0.0787 -0.1832  0.2485
10702W        W30236   9.134   3.155  11.975 -0.1759 -0.0972  0.0150
10703W        W30237   9.436   2.877   0.465 -0.0406  0.2416  0.1594
10704W        W30238  15.536   6.231   2.695 -0.2740  0.3307 -0.1436
10705W        W30239  11.672  15.215   4.104  0.2068  0.1201  0.3631
10706W        W30240  11.884   3.792   2.004  0.0249 -0.1789 -0.0305
10707W        W30241  15.147  10.129  15.149 -0.1693 -0.0173  0.1730
10708W        W30242   8.484   4.112  14.501 -0.1119  0.0901  0.0992
10709W        W30243  15.007   5.517   3.005 -0.0172 -0.1602 -0.1527
10710W        W30244  13.868   8.049   1.677 -0.0933  0.2017 -0.2481
10711W        W30245   5.117   7.954  13.413  0.3010 -0.0693 -0.5205
10712W        W30246   2.252   6.113  13.165 -0.1294  0.2136  0.1206
10713W        W30247  12.642   6.119  15.547 -0.0457  0.2784 -0.1649
10714W        W30248   6.652   1.046   3.376  0.0326 -0.1261  0.1483
10715W        W30249   6.460   7.540  12.790 -0.1693 -0.1657  0.0031
10716W        W30250   1.463   5.937   2.614  0.0401 -0.1843  0.1578
10717W        W30251   7.755   4.741   1.400  0.0913 -0.3084 -0.2392
10718W        W30252   4.919   8.046   2.947  0.4327  0.2067  0.2448
10719W        W30253  10.276   5.921  14.280 -0.0388  0.0630 -0.0659
10720W        W30254  13.434   3.910  14.687 -0.1177 -0.0230 -0.0201
10721W        W30255   1.082   8.487  12.076 -0.0456 -0.1603 -0.0357
10722W        W30256   5.318   9.235  12.380  0.0849 -0.0339 -0.1534
10723W        W30257   5.217   2.842   2.169  0.0216 -0.3727 -0.0040
10724W        W30258   7.594  11.517  12.902 -0.0481 -0.0542 -0.2923
10725W        W30259  16.100  11.659  15.798  0.0235  0.1470  0.3133
10726W        W30260  14.997   1.801   4.508  0.2262  0.2901 -0.0396
10727W        W30261  12.695   8.985   4.103 -0.3321 -0.0040 -0.0186
10728W        W30262  16.709  11.003   1.207  0.1877 -0.1419 -0.1462
10729W        W30263  16.832  14.761   3.304  0.1225 -0.0953  0.0916
10730W        W30264  18.154   8.416  13.111 -0.0072  0.3080 -0.0607
10731W        W30265  11.399  16.528  13.071  0.3345  0.0818 -0.3061
10732W        W30266   6.443  12.133  12.070 -0.3168 -0.0117 -0.0194
10733W        W30267  13.114  10.847   1.988  0.0526  0.1120  0.0845
10734W        W30268   8.951  17.490  11.794 -0.1273 -0.0097  0.2347
10735W        W30269  13.926  11.480   4.392  0.0153  0.2032  0.0122
10736W        W30270   8.251   3.391   2.323 -0.3229  0.1474 -0.2377
10737W        W30271  18.137  10.930   0.542 -0.4935  0.1210  0.0130
10738W        W30272   6.892  11.033   4.732 -0.3250 -0.1478  0.0882
10739W        W30273  15.046   3.055  13.570 -0.0987 -0.1735  0.1554
10740W        W30274   1.019  13.582  11.010 -0.0995  0.0036  0.4111
10741W        W30275  13.939   2.780   4.255  0.0120 -0.1307  0.4351
10742W        W30276   1.778   8.209   0.776  0.1503 -0.0547 -0.0169
10743W        W30277   3.486   0.927  14.074  0.1567 -0.1720 -0.0961
10744W        W30278  18.042   0.461   2.069  0.3816  0.1316  0.1271
10745W        W30279  10.186   3.679  10.535  0.1578  0.3452 -0.0877
10746W        W30280  10.588   6.688   1.419  0.2081  0.2184 -0.0117
10747W        W30281   3.391  13.900  13.435  0.0682  0.1118 -0.0878
10748W        W30282  12.339   5.785  13.993 -0.1187 -0.2671 -0.0057
10749W        W30283   7.449   9.157   0.998  0.0817  0.0876  0.0209
10750W        W30284  16.921  17.099  13.168  0.1377 -0.4178 -0.2117
10751W        W30285  11.826  14.710  15.131 -0.2293  0.0082  0.1095
10752W        W30286  12.062  16.492   2.409  0.0884 -0.0267 -0.0613
10753W        W30287  10.052   2.482   2.412 -0.0873  0.3520  0.2302
10754W        W30288   5.313  14.463   0.560  0.2151 -0.0266  0.0291
10755W        W30289  12.026  15.066  13.739 -0.0281 -0.1616 -0.4521
10756W        W30290   8.680  17.783   3.372  0.0767 -0.0257  0.0786
10757W        W30291   0.878   3.254   0.778 -0.1682 -0.0524  0.0770
10758W        W30292  15.682  13.057   0.040 -0.0182  0.2665 -0.0703
10759W        W30293   1.825  12.110   0.062  0.1430 -0.0722  0.3001
10760W        W30294  14.693   6.390   4.208 -0.0135  0.1203 -0.2976
10761W        W30295   7.515  17.959   3.858 -0.2126  0.0050  0.0554
10762W        W30296   1.118  13.854   0.408  0.2462 -0.0232 -0.2256
10763W        W30297  16.459  13.390  14.438 -0.1553 -0.0405  0.4441
10764W        W30298  17.259   5.686  13.852  0.0050 -0.0342  0.0555
10765W        W30299   0.228   5.169  14.138  0.1949 -0.0141  0.0809
10766W        W30300  17.508  10.829  14.111  0.1993 -0.2239 -0.0698
10767W        W30301   4.284   3.244   0.558  0.2574 -0.1013 -0.2523
10768W        W30302   7.933  16.027  13.401 -0.0745 -0.0187 -0.1105
10769W        W30303   6.454   2.868   3.659 -0.1246 -0.1426  0.2840
10770W        W30304   7.690   6.283  13.079  0.2101 -0.0005 -0.1290
10771W        W30305  11.694   0.884  12.992  0.0190  0.1364 -0.1008
10772W        W30306   2.907   6.530   4.358  0.1003  0.2361  0.3325
10773W        W30307  11.696  16.814   0.793  0.3464 -0.0162  0.2924
10774W        W30308  10.529   4.345  15.657  0.1163 -0.0041  0.2943
10775W        W30309  15.209  17.199   0.381  0.1975 -0.1254  0.1234
10776W        W30310  13.706  11.677  11.999  0.1262  0.0287  0.1245
10777W        W30311   9.583  14.718  10.880  0.2921  0.0908 -0.0042
10778W        W30312   5.429  12.410  14.053  0.1577  0.1587  0.0611
10779W        W30313   4.565   4.009   4.699  0.2433 -0.3414  0.2480
10780W        W30314  12.571   1.184   3.950 -0.1257 -0.0089  0.1371
10781W        W30315   7.071   2.132   1.304 -0.0614  0.0514  0.1895
10782W        W30316   0.485  14.522   2.173  0.0608  0.3843 -0.0188
10783W        W30317   6.034  10.194   2.610 -0.3123  0.2467  0.1386
10784W        W30318   4.153   3.878  12.943  0.1156 -0.1592  0.2277
10785W        W30319  16.073  12.665  14.774 -0.0420 -0.0956 -0.2111
10786W        W30320   7.204   3.486   3.455 -0.3710  0.0559  0.1981
10787W        W30321  17.810   8.136  13.750 -0.0646  0.0347 -0.1502
10788W        W30322   0.308  12.085   4.119  0.3110  0.1039 -0.4128
10789W        W30323  10.491   9.705   2.503 -0.0350  0.0963  0.1302
10790W        W30324  15.861   0.431   5.814 -0.0777 -0.4791  0.0605
10791W        W30325  13.121   2.480   3.515 -0.1498  0.0512  0.0974
10792W        W30326   7.775  15.665  12.437 -0.0230  0.1454 -0.3296
10793W        W30327   5.917   1.439  13.423  0.1083 -0.1564  0.1631
10794W        W30328   8.362  10.015  12.239  0.0440  0.0145  0.1781
10795W        W30329  12.674  15.249  12.639  0.0194 -0.0682 -0.1821
10796W        W30330   0.098   3.634   0.411  0.2484 -0.2829 -0.2119
10797W        W30331   5.350   7.879   0.282 -0.0891  0.0348 -0.0016
10798W        W30332   2.294   7.752  13.360 -0.0019  0.3163 -0.1210
10799W        W30333   2.420   6.202  14.517 -0.2717  0.0747 -0.1831
10800W        W30334  11.567   2.127   0.611 -0.0100  0.2392 -0.1366
10801W        W30335   9.533   1.911  11.970  0.1593  0.2186  0.0472
10802W        W30336   3.745   1.045   0.758 -0.0486 -0.0220 -0.2712
10803W        W30337   7.705   0.623   0.493  0.1221 -0.0775  0.2468
10804W        W30338  13.143   0.702  12.660  0.2010 -0.0153  0.0176
10805W        W30339  10.535   5.774  13.861 -0.0016  0.0841  0.2486
10806W        W30340   4.665  11.198   4.281  0.1096 -0.0285  0.0127
10807W        W30341  16.408   2.548  13.364 -0.1866  0.0463 -0.0792
10808W        W30342   1.636   4.527  11.740 -0.2601  0.1998 -0.1761
10809W        W30343  16.858   1.511  11.869 -0.3057 -0.3009  0.1761
10810W        W30344   0.089   1.195  13.638 -0.0625  0.0750 -0.0402
10811W        W30345  18.123   7.968  11.218  0.3349 -0.1453  0.3397
10812W        W30346   6.019  16.034  12.009  0.3007  0.1131 -0.3554
10813W        W30347  13.091   3.971   2.165 -0.0870 -0.0150 -0.4049
10814W        W30348  12.290  13.661  14.156  0.0319  0.0645  0.0448
10815W        W30349  11.649   9.939  14.921 -0.1846  0.0202  0.0527
10816W        W30350   3.710  10.524  13.372  0.3414  0.0561  0.0248
10817W        W30351   7.273  17.009  13.805 -0.0881 -0.0144 -0.0654
10818W        W30352   5.801   8.778   4.273  0.0149 -0.2251  0.0340
10819W        W30353   2.570  17.179   3.962 -0.1517 -0.0768 -0.0369
10820W        W30354  17.498  17.663  15.906 -0.3305 -0.2529 -0.0653
10821W        W30355   5.114   4.171   3.083  0.1061  0.1937  0.1560
10822W        W30356   7.020   8.683  13.579 -0.1438 -0.0521  0.1638
10823W        W30357   9.276  13.362  11.602 -0.0378  0.0765  0.3048
10824W        W30358   2.751   2.078   3.376 -0.3434 -0.2239 -0.2017
10825W        W30359   4.954   8.526  12.613 -0.2378  0.2924 -0.2530
10826W        W30360  11.805  17.436   3.291  0.0232  0.2113 -0.0982
10827W        W30361  12.489   5.927  16.045 -0.1200 -0.1123  0.1187
10828W        W30362   2.665   3.796   3.961 -0.1710 -0.1274  0.1799
10829W        W30363  13.005  12.893   4.803 -0.1082 -0.2448 -0.2671
10830W        W30364  15.829  14.751  14.293 -0.0420  0.0506  0.0171
10831W        W30365   4.376  10.948   1.207 -0.1040  0.0265  0.2089
10832W        W30366  11.123   5.191  15.884 -0.0209 -0.0941 -0.1994
10833W        W30367  10.153   0.996  14.846 -0.0957  0.0969  0.0073
10834W        W30368   7.632   4.743  15.602 -0.0594 -0.1689 -0.2481
10835W        W30369   7.960  17.077   1.632  0.1517 -0.3488 -0.2829
10836W        W30370   3.424  17.056  15.864  0.0590  0.0273  0.1572
10837W        W30371   9.631  17.206  12.901  0.2586  0.0750  0.0217
10838W        W30372  17.762  11.421   2.852 -0.2129 -0.2507  0.1500
10839W        W30373   1.747  13.827   0.834 -0.2454 -0.1757  0.3191
10840W        W30374  11.324  15.653   4.951 -0.2181  0.1317  0.2750
10841W        W30375  18.075   1.836   2.296 -0.2181 -0.3661  0.2840
10842W        W30376  10.382  16.158  11.466 -0.2547 -0.0323  0.1874
10843W        W30377   5.257  15.007   2.265 -0.2066 -0.1256 -0.0102
10844W        W30378  16.191   3.427   3.514 -0.1016  0.2308  0.2143
10845W        W30379  15.646  10.556   2.635 -0.0545  0.2451  0.0073
10846W        W30380  10.410   5.477  12.249 -0.2321  0.3110 -0.0551
10847W        W30381  13.724   0.370   5.659 -0.1994 -0.0216 -0.3104
10848W        W30382  16.937   6.349   1.951  0.2898  0.2281  0.2949
10849W        W30383  10.705  16.326   0.670  0.2096  0.0521  0.2900
10850W        W30384   7.057  14.480  15.056 -0.0558 -0.1372 -0.1794
10851W        W30385   9.791   7.705   0.617  0.1665  0.1123  0.0101
10852W        W30386  16.590  16.447   2.762  0.0004  0.1219 -0.0556
10853W        W30387   4.429  16.293  11.824 -0.0734  0.0545 -0.1583
10854W        W30388  17.536   9.973   2.502 -0.0675  0.0860 -0.0143
10855W        W30389   8.219   4.751   1.937 -0.2376 -0.2842  0.1593
10856W        W30390   0.118   9.453  12.997  0.2292  0.4748  0.2081
10857W        W30391   0.404   4.236   4.036  0.2618  0.0957  0.0240
10858W        W30392  15.965  18.109  13.858  0.1821 -0.0420  0.2907
10859W        W30393  15.566  17.839  15.134  0.2326 -0.0320  0.2850
10860W        W30394   2.104   4.286  14.898 -0.1319  0.4403 -0.0644
10861W        W30395  14.653   5.426   1.179 -0.2200  0.0374  0.1416
10862W        W30396  16.766   1.937  15.697  0.2116 -0.0927  0.0572
10863W        W30397  13.543   4.381   1.628 -0.0382  0.3179  0.2494
10864W        W30398   6.970   8.607  14.322  0.0477  0.1608  0.0389
10865W        W30399   8.397   5.400   1.214 -0.2894 -0.2590 -0.4346
10866W        W30400  14.228  13.087  15.396  0.1984 -0.1419 -0.1188
10867W        W30401   6.691   4.601  12.013 -0.2520 -0.1161 -0.2905
10868W        W30402  12.735   5.424  13.807 -0.0828 -0.2271  0.3556
10869W        W30403  11.285   4.285  12.024 -0.2643  0.0220  0.2931
10870W        W30404  16.541   8.070  12.245  0.2140 -0.0677 -0.2355
10871W        W30405   5.100  16.061   4.836 -0.1355 -0.0307 -0.1943
10872W        W30406   9.974  12.422   4.877  0.0242 -0.2329  0.0827
10873W        W30407  10.701   9.000   3.073 -0.0259 -0.0190 -0.2553
10874W        W30408  17.201   7.179  14.144  0.0324 -0.2788 -0.3805
10875W        W30409   2.200  13.459  13.748  0.1114 -0.0551  0.2076
10876W        W30410  11.839  12.967  11.660  0.1640 -0.1612  0.0403
10877W        W30411   0.385   3.084   1.135 -0.0280  0.1209 -0.1512
10878W        W30412  12.295   7.829   1.645  0.1732  0.1097  0.3073
10879W        W30413  15.596  17.576   5.976  0.3108  0.3208  0.2210
10880W        W30414  15.324   4.508  13.531  0.1557 -0.0382  0.0395
10881W        W30415  13.758  13.324   4.890  0.0438 -0.0490 -0.1592
10882W        W30416   5.487   0.818  13.878 -0.0359  0.1170 -0.0089
10883W        W30417   6.211   2.950  14.233  0.0973 -0.2112 -0.0236
10884W        W30418  14.222   1.225  15.252 -0.1796  0.0953 -0.3215
10885W        W30419  14.455   6.624  11.992 -0.2464  0.2108 -0.1182
10886W        W30420   5.870  16.838   0.753  0.0044 -0.1153 -0.0801
10887W        W30421   7.822   2.611  12.202  0.0668 -0.0321  0.2290
10888W        W30422   7.457  12.029  12.874 -0.0495  0.1340 -0.1367
10889W        W30423   4.039   5.022  12.491  0.0304 -0.0577 -0.0210
10890W        W30424  11.411  12.381   1.209  0.0605 -0.0629 -0.1852
10891W        W30425   1.503  13.155   1.843  0.0395 -0.0144 -0.1954
10892W        W30426   3.021   1.420   2.228 -0.0567 -0.1026 -0.2749
10893W        W30427   2.552  17.450   2.582 -0.2840  0.0850  0.0838
10894W        W30428   8.595   4.547   1.661 -0.0065 -0.0238  0.0717
10895W        W30429   8.844  12.288   1.537  0.0739  0.1028  0.2532
10896W        W30430  11.836  13.881   0.204  0.0824 -0.2170  0.2034
10897W        W30431  16.689   7.005   2.031  0.1129  0.4615 -0.0966
10898W        W30432   1.426   8.635   0.164  0.2719  0.2354 -0.1611
10899W        W30433   7.767  18.077   0.973  0.0670 -0.0355 -0.1333
10900W        W30434  17.243   9.943  15.058  0.0601  0.1835  0.0548
10901W        W30435   5.025  11.469   4.565  0.2016  0.1086 -0.1205
10902W        W30436   1.766  17.449   3.684  0.0966 -0.1420  0.0619
10903W        W30437  13.589   9.144   3.138  0.1532  0.0057 -0.1630
10904W        W30438   8.162   6.320  12.988  0.0992 -0.0902  0.3480
10905W        W30439  11.036  17.479   4.651  0.2202 -0.0632 -0.1152
10906W        W30440   7.875  10.637  12.601  0.2865 -0.0852 -0.2235
10907W        W30441   5.756   1.369   0.228  0.0563  0.0540  0.0062
10908W        W30442  15.781   2.106  12.924  0.0135 -0.1712 -0.1889
10909W        W30443  16.490   1.475   0.380  0.0495  0.0049 -0.0258
10910W        W30444   2.241   7.548   1.252  0.2240 -0.1422 -0.0307
10911W        W30445   6.006  17.978  11.604  0.1469 -0.2081 -0.2507
10912W        W30446   0.951  17.767   3.556  0.0481 -0.1327  0.0285
10913W        W30447  13.280   4.036  13.605 -0.1334  0.0062  0.0786
10914W        W30448   3.572   0.629   0.974  0.0665  0.0350  0.0781
10915W        W30449  15.672   4.095   0.553 -0.0930  0.2761 -0.0605
10916W        W30450   3.703  16.251   2.733  0.2454  0.3136  0.3928
10917W        W30451   9.253  13.502  13.533 -0.2611  0.1462  0.2344
10918W        W30452  17.391   7.540   2.434 -0.1686 -0.2910  0.0265
10919W        W30453   4.005   0.810  11.476  0.1337  0.3111  0.4170
10920W        W30454   6.271  15.679   1.402  0.2389 -0.1117  0.2855
10921W        W30455   5.804   4.599   1.079  0.2268  0.0364  0.0896
10922W        W30456  15.170  12.421  13.102 -0.0137  0.1885  0.2361
10923W        W30457   9.893   5.022  16.055  0.0829 -0.1072  0.0469
10924W        W30458   4.837  12.932   1.311  0.3383  0.0080  0.3792
10925W        W30459  14.124   5.543   3.973  0.0673  0.0772  0.0489
10926W        W30460   5.318  11.200  11.619 -0.2812 -0.1272  0.0668
10927W        W30461  12.351  14.711  15.021 -0.0006  0.2151  0.0138
10928W        W30462  12.372   0.168   1.824 -0.0134  0.0982 -0.0310
10929W        W30463   7.818   8.568  14.723  0.0473  0.2596 -0.0460
10930W        W30464   1.488   3.878   1.324 -0.3463 -0.1076 -0.0829
10931W        W30465  10.755   9.813  13.977  0.1926  0.2233 -0.0630
10932W        W30466   2.575   9.645  14.900  0.0755  0.1272  0.2675
10933W        W30467  16.484  12.064  13.617 -0.2026 -0.2839 -0.0348
10934W        W30468   4.062   2.725  15.527 -0.2036  0.3562  0.1070
10935W        W30469  13.837  13.211  12.658  0.2340 -0.0157 -0.3537
10936W        W30470   9.141   3.305  15.893  0.2105  0.0858  0.1207
10937W        W30471  11.885  12.103  12.329  0.2274 -0.2702  0.2384
10938W        W30472   4.112   3.957  14.456 -0.1578  0.0235 -0.0539
10939W        W30473   8.144  11.769   1.308 -0.1954 -0.2198 -0.0148
10940W        W30474   0.344  15.866   1.197  0.0504 -0.1477 -0.1048
10941W        W30475   6.135   1.569  15.918  0.0488  0.0739 -0.1596
10942W        W30476   6.417  17.128   3.027  0.1891  0.0632 -0.1811
10943W        W30477   3.476   0.526   5.273  0.3885 -0.0001  0.2175
10944W        W30478   8.766  15.067  12.039 -0.0896  0.3407 -0.3721
10945W        W30479  14.292  13.108   3.538 -0.0413  0.0375  0.1606
10946W        W30480  17.672   1.203   1.110  0.2624  0.0485  0.0365
10947W        W30481  15.764   8.648   1.794  0.2804 -0.0335 -0.1775
10948W        W30482  13.688  11.644   2.175  0.2161  0.1690 -0.0152
10949W        W30483   1.981   1.588   0.772  0.0902 -0.0870  0.1436
10950W        W30484   9.127   3.632   1.102  0.0373  0.1569 -0.0838
10951W        W30485   2.273  14.129   0.888  0.0785 -0.2470  0.2273
10952W        W30486  13.303  10.199  15.750  0.0463  0.2901 -0.1439
10953W        W30487  12.387  15.981   1.835 -0.2345 -0.3546  0.3037
10954W        W30488  17.192   5.788  15.864 -0.0190 -0.2553 -0.1962
10955W        W30489  15.620   2.223   0.753  0.0689  0.0039 -0.0594
10956W        W30490  16.315   3.474   4.403  0.1579  0.1538  0.0020
10957W        W30491  16.341   5.621  15.053  0.1318  0.1364  0.1006
10958W        W30492  11.529   0.940  11.774 -0.0160  0.1940  0.1500
10959W        W30493  16.563  17.813  14.513  0.3475  0.1200 -0.2117
10960W        W30494   9.317  12.217  14.277 -0.1474 -0.0248 -0.0431
10961W        W30495  10.847   8.432  14.149  0.2224 -0.0164  0.2453
10962W        W30496  15.771   4.181  12.246 -0.2925  0.0911  0.1357
10963W        W30497  10.894  16.469  12.308  0.2188  0.0466 -0.0650
10964W        W30498   8.253  17.060   0.357  0.2848 -0.0822 -0.0269
10965W        W30499  14.470   1.446   3.794 -0.1469  0.1178 -0.1137
10966W        W30500   2.225   3.270   3.642 -0.1802 -0.3841 -0.0683
10967W        W30501   2.627   2.299  12.507 -0.0015  0.0795 -0.1237
10968W        W30502  11.730   7.088  14.867 -0.0926 -0.1347 -0.0029
10969W        W30503  14.344  15.228  13.749 -0.1575 -0.0986 -0.0858
10970W        W30504   0.852   0.612   2.817 -0.1193  0.1919  0.2543
10971W        W30505   2.948  11.517  14.929 -0.1136 -0.1012 -0.1325
10972W        W30506   2.563  12.300  11.903  0.1182 -0.1513 -0.3495
10973W        W30507  15.330  15.318  13.979 -0.2262 -0.0734  0.0966
10974W        W30508  17.939  11.102  15.339 -0.0454  0.0964 -0.1701
10975W        W30509  14.838   3.832  12.230 -0.1765 -0.0514 -0.2460
10976W        W30510  12.974   4.336  14.599  0.0137 -0.0958  0.2866
10977W        W30511   3.702  12.715   1.111 -0.0162 -0.1153  0.1790
10978W        W30512   8.563  17.706   2.279  0.0122 -0.1609 -0.0242
10979W        W30513  11.500   9.971   5.000 -0.1733 -0.1811 -0.0091
10980W        W30514  14.322  17.053   6.014  0.0074  0.2925 -0.1314
10981W        W30515   1.907   6.340   1.580 -0.1472 -0.2106 -0.3199
10982W        W30516   0.168  12.126  11.639  0.2302 -0.1655  0.0716
10983W        W30517  15.569   0.719  12.824 -0.1098  0.1813 -0.2752
10984W        W30518  11.688   5.032   2.427 -0.1696 -0.3552  0.2184
10985W        W30519   8.248   2.968  12.383  0.0643 -0.1009 -0.1225
10986W        W30520   0.802   4.113  13.352 -0.2929  0.0751  0.1822
10987W        W30521   9.028   2.692  11.331 -0.0153 -0.0724 -0.1224
10988W        W30522  12.428  10.673   1.365 -0.2731  0.1318  0.2857
10989W        W30523   6.240  10.200  11.469 -0.2506 -0.1996  0.1083
10990W        W30524   9.432  16.722   4.633  0.3956 -0.1446 -0.0548
10991W        W30525   8.178  10.717   3.242  0.0216 -0.2403 -0.1196
10992W        W30526  14.316   0.999   4.008  0.0196  0.0969 -0.0722
10993W        W30527  12.745   9.558  14.709 -0.1028 -0.0177  0.2179
10994W        W30528   9.553   2.676   2.911  0.0757 -0.1185  0.0191
10995W        W30529   7.436   1.349   0.995  0.1314  0.1553 -0.2173
10996W        W30530   7.483  16.943   0.926  0.3271  0.2237 -0.0143
10997W        W30531   1.934   2.140  12.192  0.1557 -0.0963  0.4213
10998W        W30532  11.024   2.734   2.008 -0.0763 -0.1506 -0.2839
10999W        W30533  11.789  14.913   0.990  0.0203 -0.2287  0.0574
11000W        W30534   4.770  13.139   4.572 -0.1997 -0.0212  0.0017
11001W        W30535   7.775   0.902  15.681 -0.2144 -0.0506 -0.3017
11002W        W30536  13.703   8.509   1.818  0.2827  0.1241  0.0869
11003W        W30537  17.384   2.284  11.718 -0.1717 -0.1237 -0.1304
11004W        W30538   9.096   7.570  11.472 -0.1619 -0.0256 -0.0295
11005W        W30539  17.808  11.701  15.426 -0.0162  0.0948  0.1266
11006W        W30540   7.111  17.245  11.628 -0.0085  0.2230 -0.1900
11007W        W30541   1.081  14.573  13.883  0.1980  0.0917 -0.1787
11008W        W30542   3.644   1.125   1.630  0.2841  0.0482 -0.0282
11009W        W30543  15.952  10.346  16.037  0.2131  0.1272 -0.0814
11010W        W30544  12.832  13.818   3.961  0.4097 -0.2131  0.0295
11011W        W30545  15.433  13.936   2.860  0.0350  0.1407 -0.1654
11012W        W30546  15.220  11.194   0.083 -0.0115 -0.1009  0.3812
11013W        W30547  17.661   4.561   1.201 -0.1557 -0.0609 -0.0875
11014W        W30548  18.164  16.157   1.412 -0.1295 -0.0892  0.2940
11015W        W30549   6.248   1.413  12.068  0.0330 -0.0002  0.0914
11016W        W30550   5.913   4.739  11.994  0.0245  0.1233  0.0004
11017W        W30551  13.151   1.328   2.009 -0.0690 -0.0171  0.2016
11018W        W30552  14.834  17.748   0.397 -0.1561 -0.1716  0.1582
11019W        W30553  11.295   8.184   0.875 -0.1961 -0.0565  0.0182
11020W        W30554  17.844   2.211  12.008 -0.3171  0.0620 -0.5611
11021W        W30555  11.479   9.821   3.945 -0.2552  0.1991  0.2078
11022W        W30556  13.436  10.555   1.046  0.1059 -0.0072 -0.3274
11023W        W30557  11.583   0.508   2.139  0.2505  0.4230 -0.1924
11024W        W30558   9.903   6.403  11.408  0.2232  0.2523  0.1615
11025W        W30559  16.253  14.580  12.905 -0.2784 -0.0221 -0.0180
11026W        W30560   4.427  15.506  11.642  0.0555 -0.0817 -0.0348
11027W        W30561   2.755   0.499  11.862  0.2423  0.1928 -0.1625
11028W        W30562   4.744   3.431  15.902 -0.0705  0.1098  0.2223
11029W        W30563   9.778  15.494   0.507  0.1330 -0.2979  0.1606
11030W        W30564  15.384   4.874   4.046 -0.2634  0.2683 -0.4774
11031W        W30565   9.491   1.832  14.797 -0.0486  0.1662 -0.0720
11032W        W30566  13.650  15.517  11.053 -0.3445 -0.0564  0.5542
11033W        W30567   6.948   3.897  15.949  0.0202  0.0938  0.2458
11034W        W30568   6.412  12.805   2.000 -0.1289 -0.0030 -0.2366
11035W        W30569   2.617   0.640   4.205  0.1282 -0.0686 -0.3969
11036W        W30570  10.341   7.905   2.268 -0.0810  0.3887  0.0289
11037W        W30571  13.719   9.723   3.516 -0.1817  0.1146 -0.2677
11038W        W30572  14.768   2.012   3.313 -0.1810  0.0413  0.0036
11039W        W30573   7.842  11.526   3.084 -0.0031 -0.0739  0.1526
11040W        W30574  16.599   7.381   1.706 -0.2466  0.2072  0.2858
11041W        W30575  11.030   0.189  15.646 -0.1579 -0.1078 -0.1507
11042W        W30576  15.770   8.878  14.173 -0.1701 -0.2520 -0.1027
11043W        W30577   8.086   8.999   2.704  0.1155  0.0072  0.2996
11044W        W30578  11.411   5.422  13.954 -0.2425  0.3648  0.2994
11045W        W30579   8.764  17.849   2.839 -0.2054  0.3030 -0.1055
11046W        W30580  14.892  12.952  14.426  0.1227  0.1173  0.2533
11047W        W30581   8.946   8.645   3.620 -0.1351  0.0739  0.0254
11048W        W30582   0.400  10.582  13.151 -0.2358  0.1490 -0.1654
11049W        W30583   6.302   6.569   3.122  0.1899  0.2390 -0.1846
11050W        W30584  15.756  10.731  12.951  0.0844  0.1860  0.2357
11051W        W30585   3.969   7.954   4.150 -0.3180 -0.1108  0.0360
11052W        W30586   1.450  12.716  14.733  0.1147  0.1806  0.0016
11053W        W30587  12.804   0.825   3.152 -0.1100  0.1096 -0.2217
11054W        W30588  16.699  18.160   4.099 -0.0924 -0.0221 -0.3012
11055W        W30589  14.590  18.052   1.354 -0.2053 -0.0960 -0.0164
11056W        W30590   2.590   4.049  16.006  0.1381 -0.2830  0.1896
11057W        W30591   0.624   0.078   1.063  0.1053  0.1224 -0.2330
11058W        W30592  17.518  12.556   4.675 -0.0193  0.1077 -0.2192
11059W        W30593   4.152  14.838   3.453 -0.0743  0.2170  0.0033
11060W        W30594  17.655  15.761   1.515  0.1269 -0.2682 -0.0267
11061W        W30595   3.057  15.215   1.748 -0.1022 -0.2251 -0.2239
11062W        W30596   7.303   0.394  11.993  0.1563 -0.1834 -0.1010
11063W        W30597   0.634  13.313  12.442  0.2409 -0.0314  0.2073
11064W        W30598  14.130   5.236  11.751  0.0387  0.1178 -0.2117
11065W        W30599   5.806   7.814  13.416 -0.1545  0.0720  0.0711
11066W        W30600   2.221   8.237  13.343 -0.2495  0.1318 -0.1132
11067W        W30601  17.626   4.938  12.835  0.0083  0.2107  0.0398
11068W        W30602   1.466  16.142   4.096 -0.1143 -0.2208  0.0566
11069W        W30603  16.823  10.842  12.560 -0.0354 -0.2566  0.1226
11070W        W30604   1.732   6.817  13.510  0.1610 -0.2238 -0.1769
11071W        W30605   1.445  11.434   4.090  0.2732 -0.2074 -0.2806
11072W        W30606   0.744  12.523  14.661 -0.2737  0.1958  0.0479
11073W        W30607  13.698   2.523   3.513 -0.0756 -0.0241 -0.1761
11074W        W30608   9.159  10.235   4.292 -0.0066 -0.3453 -0.2098
11075W        W30609   7.598  13.301  13.854  0.4450  0.1451 -0.1051
11076W        W30610   5.384  15.466  15.103  0.0195 -0.0333  0.0759
11077W        W30611  15.125  12.570  14.037 -0.2111  0.0824  0.0785
11078W        W30612  10.540  15.413   1.225  0.0208  0.3743 -0.2742
11079W        W30613   9.607   5.046   1.052 -0.0217  0.0483 -0.0244
11080W        W30614  12.306  16.587   1.333 -0.1871  0.1652  0.1694
11081W        W30615  12.136  15.722   3.005  0.0738  0.0229 -0.0427
11082W        W30616  12.866  10.075  15.975  0.1996 -0.1856 -0.0100
11083W        W30617  17.438  14.102   1.564  0.0485 -0.1072 -0.1494
11084W        W30618  15.998   9.745   3.123  0.0003 -0.1912 -0.0544
11085W        W30619  15.565  11.700   1.571 -0.0444  0.1203  0.2335
11086W        W30620  10.558   9.259   2.109  0.2147 -0.1694 -0.2894
11087W        W30621  11.563   2.788   3.049 -0.1439  0.1828  0.1744
11088W        W30622  13.084   7.772   4.952 -0.0192  0.0199 -0.1328
11089W        W30623   7.239  15.757   2.350  0.2081 -0.3583 -0.0334
11090W        W30624  17.991   8.096  15.230  0.0074  0.3191 -0.0631
11091W        W30625   7.706   6.263  12.558 -0.1819 -0.0340  0.0208
11092W        W30626  11.529   3.835  15.539 -0.0373  0.1620  0.0269
11093W        W30627   4.870   3.005  14.674 -0.0154  0.0865 -0.0222
11094W        W30628   8.359   7.414  13.906  0.2935  0.1567 -0.1382
11095W        W30629   2.233   8.671   0.758 -0.1608 -0.1605 -0.2886
11096W        W30630   6.634  16.512   3.582 -0.1078 -0.0840 -0.0856
11097W        W30631   5.260   9.483   4.571 -0.0314  0.0423  0.2548
11098W        W30632   5.326   2.194  12.794 -0.1361  0.1088 -0.0217
11099W        W30633  14.152  12.570  15.353  0.1375  0.2186 -0.1594
11100W        W30634   1.206   9.619   3.131  0.2335  0.0411 -0.1884
11101W        W30635  10.092   5.573   3.839 -0.0579 -0.2767 -0.0436
11102W        W30636  11.637   4.088   2.403  0.1122 -0.0177 -0.1072
11103W        W30637   2.966  17.613   4.729 -0.1176 -0.1561  0.0672
11104W        W30638  11.897  17.297  12.842  0.1127 -0.0354 -0.1377
11105W        W30639  17.150   0.780   6.028 -0.0666 -0.0580  0.1702
11106W        W30640  15.055  14.784  12.240  0.3064 -0.0686 -0.1681
11107W        W30641  10.123   2.644  15.121  0.1520  0.1361  0.1870
11108W        W30642   3.496  10.680  14.390  0.0287 -0.1384 -0.1664
11109W        W30643   8.056   3.337   3.294  0.3946  0.1962 -0.2828
11110W        W30644  16.544   5.061  14.336 -0.3027 -0.2915 -0.1447
11111W        W30645   1.404  14.115  11.687  0.1156 -0.2193 -0.1572
11112W        W30646   3.559  15.868  13.219  0.1615 -0.1108  0.1455
11113W        W30647  16.815  11.651  14.519 -0.2931  0.1594  0.2378
11114W        W30648  12.134  11.098  14.729 -0.1259 -0.0365  0.2202
11115W        W30649  17.406  17.119  13.405 -0.3411  0.0714  0.2631
11116W        W30650  18.169  16.892   2.027 -0.1943  0.3459 -0.0711
11117W        W30651  12.268   2.549  11.745  0.3922  0.0821 -0.0621
11118W        W30652   4.226   6.416  11.373  0.1004 -0.0467 -0.1598
11119W        W30653   4.819  11.728  12.447  0.0456  0.1461  0.0024
11120W        W30654  16.205   4.956   2.719 -0.1175 -0.0760  0.0385
11121W        W30655  15.990   6.369   0.972 -0.1844 -0.1064  0.0942
11122W        W30656  11.157  17.679  12.608 -0.0553 -0.0076  0.1304
11123W        W30657  15.647   0.138   0.674  0.0012  0.3180  0.1659
11124W        W30658   7.695  15.843  11.418  0.0336 -0.0883 -0.0425
11125W        W30659   0.515  12.129   2.211  0.0455 -0.1258  0.3016
11126W        W30660   9.620  11.011  12.391 -0.0334  0.0763 -0.5209
11127W        W30661  10.443  15.363   3.231  0.1147 -0.2367 -0.0356
11128W        W30662   0.083  16.213   2.280 -0.2199 -0.0275  0.2101
11129W        W30663   4.376  13.154  16.038  0.1755  0.1142  0.0483
11130W        W30664  13.280  10.374   1.903 -0.1442 -0.0290 -0.2466
11131W        W30665   6.319  18.127  15.188  0.0734 -0.0079  0.2234
11132W        W30666   2.805  18.041   1.392 -0.2890 -0.0608 -0.2357
11133W        W30667  11.421  10.484  15.020  0.0811 -0.0122 -0.1495
11134W        W30668   9.362   9.275  12.208  0.3239 -0.0696 -0.0776
11135W        W30669  10.478  12.320   1.729 -0.0280 -0.0305  0.0317
11136W        W30670   1.000   1.858   3.402 -0.1330 -0.1724 -0.1207
11137W        W30671   1.136  13.632  12.180 -0.0750 -0.2597 -0.2275
11138W        W30672   0.024  13.358   2.610  0.2033 -0.1014  0.1475
11139W        W30673   3.744  10.485   0.951  0.0833  0.1757 -0.1244
11140W        W30674  13.256   6.225   1.034  0.2947 -0.1163  0.0729
11141W        W30675   0.535  17.968  11.950  0.0987  0.1451  0.0801
11142W        W30676  11.087   5.737   4.693  0.1435 -0.3774 -0.1446
11143W        W30677   5.689   8.271   0.901 -0.1500 -0.0163  0.1736
11144W        W30678   7.557   5.974   1.342 -0.0028  0.2644 -0.1285
11145W        W30679   4.839   2.636  15.098 -0.0144 -0.3180 -0.0042
11146W        W30680   0.678   4.206  14.901 -0.0831  0.0686 -0.0321
11147W        W30681  18.154  14.261   0.674  0.0879  0.3650  0.0206
11148W        W30682  12.998   7.796   2.751 -0.0105 -0.0854 -0.3633
11149W        W30683  11.325   8.147  14.497  0.1340  0.0900  0.1517
11150W        W30684   2.573   3.687  13.357  0.2565 -0.0525 -0.0315
11151W        W30685   6.080  12.408  15.293 -0.0100  0.0666 -0.2855
11152W        W30686   4.032   6.088  14.626  0.0058  0.0514 -0.0833
11153W        W30687   4.576   1.127  15.823 -0.1001 -0.0820  0.0243
11154W        W30688   3.026  10.740   0.290 -0.0521 -0.0310  0.1918
11155W        W30689  17.355  15.589  14.885  0.1857 -0.3179 -0.1652
11156W        W30690  12.893  15.903  14.543 -0.4535  0.2325  0.2171
11157W        W30691   0.399   4.897   3.761  0.1568  0.2159  0.0529
11158W        W30692   3.204   4.731   1.519 -0.2662  0.2079  0.0738
11159W        W30693  14.018  14.894  13.869 -0.1774 -0.0169  0.1669
11160W        W30694  18.003  14.410   1.158 -0.2484  0.0028  0.0148
11161W        W30695  14.890   2.466   2.374 -0.1099 -0.0153  0.0018
11162W        W30696   4.368  10.195  12.018  0.0303  0.0806  0.0327
11163W        W30697  13.731  12.584  12.252 -0.1068 -0.1036  0.1859
11164W        W30698   0.991  14.124   5.602  0.0724  0.0046 -0.0217
11165W        W30699   2.910   2.351  15.566  0.2523  0.0913  0.4476
11166W        W30700   6.427   5.723   2.774  0.0711 -0.0469  0.0996
11167W        W30701   9.228   5.726  12.345 -0.0415 -0.1411  0.0784
11168W        W30702  11.195   1.683   0.621  0.1550 -0.2053 -0.2076
11169W        W30703   3.574   8.678   2.213  0.2171 -0.1616  0.2822
11170W        W30704  16.283   1.205   2.261  0.1627  0.1140 -0.1737
11171W        W30705   9.186  15.070   1.896 -0.0126 -0.1700 -0.3177
11172W        W30706  15.956   4.156   2.172  0.1305  0.1118 -0.1221
11173W        W30707  15.887  10.107  14.356 -0.4377  0.1219 -0.1962
11174W        W30708   0.608   7.602   3.662  0.1792 -0.3556 -0.0138
11175W        W30709  10.310   8.120  11.557 -0.1116 -0.1535  0.0168
11176W        W30710  12.887   2.828   3.141  0.2412 -0.0192  0.0891
11177W        W30711   1.355  17.773  12.523 -0.1220 -0.1588  0.1039
11178W        W30712  16.666  14.928   4.425 -0.0015  0.1650  0.0756
11179W        W30713   1.973   7.002   3.709  0.0835 -0.1266  0.0079
11180W        W30714   0.856  12.341   0.188  0.0605 -0.0370  0.1195
11181W        W30715   7.239  10.863   5.055  0.0324 -0.2981 -0.0474
11182W        W30716  16.665   9.772   2.518  0.0003  0.0652 -0.1482
11183W        W30717   3.794  13.995   2.944  0.0339 -0.0401 -0.2461
11184W        W30718   6.690  12.509  14.063  0.1887 -0.0434  0.0025
11185W        W30719   0.493  16.264   2.680 -0.0632 -0.0328 -0.0742
11186W        W30720  10.939   1.430  12.162 -0.0901 -0.0393  0.1844
11187W        W30721   6.659   4.374  13.302 -0.2403 -0.1368 -0.1832
11188W        W30722   2.454   6.847  11.869 -0.0055 -0.2461  0.1597
11189W        W30723   3.156  12.364   2.821 -0.1347  0.2032 -0.2964
11190W        W30724  15.283   0.494  14.975  0.0479 -0.1021  0.0653
11191W        W30725   2.682  11.435  11.047  0.0481 -0.3320 -0.1636
11192W        W30726  14.323  14.081  12.150  0.2237 -0.0257  0.3224
11193W        W30727  18.129   7.009  14.500 -0.0434  0.2477 -0.2168
11194W        W30728  13.466  12.123  12.839 -0.0926  0.1378  0.0569
11195W        W30729   1.532  13.873  12.570  0.0135  0.0046 -0.3071
11196W        W30730   6.734  12.723  15.479 -0.0571  0.0747  0.0722
11197W        W30731  11.510   5.196   1.876 -0.0120  0.0902 -0.1362
11198W        W30732   2.093   9.246   3.438  0.1321  0.1947  0.1770
11199W        W30733  17.014  17.759  14.786  0.1885 -0.0006  0.0137
11200W        W30734   3.686   3.406  11.815  0.1454 -0.2793 -0.1703
11201W        W30735   6.526   1.943  13.635 -0.2872 -0.0121 -0.2838
11202W        W30736   0.959   9.153   3.220  0.0611  0.2694  0.0687
11203W        W30737   3.718   1.617  13.625 -0.0570  0.2215 -0.3597
11204W        W30738   0.062  10.348  14.505  0.0571 -0.0430 -0.4004
11205W        W30739   1.146  16.796  15.399  0.0419 -0.1614 -0.1057
11206W        W30740   7.252  16.216  10.536  0.1095  0.0849  0.0122
11207W        W30741   0.390   4.536   0.365  0.0792  0.0141 -0.0662
11208W        W30742  16.570  16.763   1.044  0.2122  0.0092  0.1600
11209W        W30743   8.123  14.368  14.007 -0.1798 -0.0738 -0.0912
11210W        W30744  11.904   9.208   0.577  0.1225 -0.0649  0.0999
11211W        W30745   6.316  15.723   1.924 -0.1316 -0.0895 -0.0841
11212W        W30746   1.087   3.993  15.125 -0.0327 -0.0372  0.0663
11213W        W30747  11.801   2.702   3.441 -0.0484  0.0529 -0.0144
11214W        W30748   4.064   2.701   2.688  0.1591 -0.0227 -0.2097
11215W        W30749  10.955  11.158   0.296 -0.0669 -0.3762  0.2564
11216W        W30750   0.330   6.143   1.465  0.0829  0.0859 -0.0024
11217W        W30751   8.759   8.377  14.251  0.0383 -0.0055  0.0684
11218W        W30752  11.281   0.666  13.810  0.0546  0.0319  0.2549
11219W        W30753   9.092   6.885  14.336  0.0460  0.0007 -0.2802
11220W        W30754   5.070   0.964   0.644 -0.0998  0.3555 -0.3878
11221W        W30755   2.042  10.219   1.816 -0.0261  0.0300  0.0754
11222W        W30756   2.897  15.804   1.754 -0.3957 -0.0216  0.0831
11223W        W30757  14.851   8.094   1.033 -0.1286 -0.2106 -0.5285
11224W        W30758  10.812   3.715   5.747  0.1001 -0.0001 -0.0491
11225W        W30759   5.627  13.473  14.124  0.0441  0.1149 -0.1008
11226W        W30760  14.494   5.463   3.097  0.1358  0.1948  0.1977
11227W        W30761  11.971   4.044  13.291  0.0027 -0.3657  0.0660
11228W        W30762   6.575  12.445   0.913  0.3525  0.2537 -0.3334
11229W        W30763  14.778   4.628   2.820 -0.1202  0.0640  0.0420
11230W        W30764  16.823  14.711  14.946 -0.0441 -0.0345  0.0512
11231W        W30765  10.911   1.685  15.076 -0.3850 -0.2470 -0.0695
11232W        W30766  17.986   9.384  11.266  0.2300  0.2629  0.2007
11233W        W30767   3.337   5.132  14.110 -0.0540 -0.0768  0.1262
11234W        W30768  12.590  12.623   3.112 -0.0420  0.1028  0.3181
11235W        W30769  14.948   0.921   2.798 -0.1377 -0.3233 -0.2099
11236W        W30770  16.553  16.697  13.389 -0.1909 -0.1172  0.0475
11237W        W30771  13.046  17.683  12.858  0.0457 -0.1281  0.2090
11238W        W30772   9.743   3.069  15.190 -0.2408  0.1832  0.2103
11239W        W30773   1.223   0.124  12.684 -0.0018 -0.1019  0.1599
11240W        W30774  13.136   0.957  13.963 -0.0278  0.0293 -0.2957
11241W        W30775   6.108   6.179  14.765  0.0489 -0.3885 -0.1064
11242W        W30776   3.927   2.054   3.965  0.1061 -0.0275 -0.0226
11243W        W30777  14.150   5.799   4.893 -0.1348  0.2407  0.0006
11244W        W30778  18.002   3.116  13.142 -0.1389 -0.0619 -0.0911
11245W        W30779  16.320   6.981   1.437  0.0302 -0.3768 -0.0873
11246W        W30780   5.159  15.330   4.261  0.1285  0.0303 -0.0418
11247W        W30781   5.087   4.820   2.081 -0.1519 -0.1378 -0.0022
11248W        W30782   8.302  17.753  15.662  0.1755 -0.1404  0.1868
11249W        W30783   8.136  12.587   5.592  0.3007 -0.2021 -0.2898
11250W        W30784   9.618  14.635  15.648  0.0691 -0.0898  0.2084
11251W        W30785   2.173   2.562   3.077  0.1572  0.0656 -0.2442
11252W        W30786   9.515   3.884   2.915  0.1904  0.1265  0.0453
11253W        W30787  11.497  13.854  13.517 -0.1086 -0.0895 -0.1321
11254W        W30788  13.836  13.880   3.887 -0.0859 -0.0062  0.3771
11255W        W30789   9.942  14.529   4.355  0.3749 -0.1284 -0.1678
11256W        W30790  13.886   9.779   0.765 -0.0478  0.2455  0.0402
11257W        W30791  15.039   5.765   2.037  0.2770  0.0416  0.1383
11258W        W30792   9.511   0.769  13.781 -0.1190 -0.2882  0.1739
11259W        W30793  12.893  14.535   2.629 -0.0996 -0.0091  0.0941
11260W        W30794   9.563   1.066   4.609  0.0250  0.0548 -0.3147
11261W        W30795   4.398  12.335  14.196  0.0693  0.0065  0.1900
11262W        W30796  18.172  10.823  14.351  0.1767  0.0404  0.0570
11263W        W30797  10.803   3.497   1.932  0.0673  0.1988 -0.1644
11264W        W30798   6.690  17.331   0.747  0.1619  0.1316 -0.1945
11265W        W30799   3.013   0.906  13.891 -0.0083 -0.1127  0.0689
11266W        W30800  12.229   8.766   1.789 -0.0039 -0.1518  0.0066
11267W        W30801   8.785  10.531  14.105 -0.2240  0.0009 -0.0167
11268W        W30802  13.380   6.608  14.735 -0.0026 -0.0357  0.1388
11269W        W30803   5.735   5.373  15.923  0.3195  0.0224 -0.0293
11270W        W30804  14.280  13.856   2.552  0.0113 -0.0909 -0.3897
11271W        W30805   3.870  11.365  15.164 -0.0018  0.3236  0.1008
11272W        W30806  12.929  16.035   2.409 -0.2757  0.2210  0.3690
11273W        W30807   7.206  13.890  14.758 -0.0628  0.0118  0.0337
11274W        W30808  10.783  12.933  13.125 -0.2248 -0.0200  0.0753
11275W        W30809  15.105   7.450  13.385  0.0033 -0.1184 -0.1699
11276W        W30810  12.001  14.123   3.915 -0.1693  0.0857  0.0073
11277W        W30811   7.876   1.642   3.781  0.2158  0.0336 -0.0504
11278W        W30812  10.687  10.022   2.869  0.0674  0.0284 -0.3153
11279W        W30813  13.779  17.787   3.084 -0.0054  0.1268 -0.0219
11280W        W30814  11.354  11.084   1.115 -0.0908  0.0832  0.0150
11281W        W30815  13.303  13.018  13.099  0.1873 -0.0601 -0.0548
11282W        W30816  11.495   0.843   0.954  0.1545  0.0646  0.0501
11283W        W30817   0.073   8.079   2.872  0.2450 -0.0012  0.1995
11284W        W30818  10.284   7.733  11.198 -0.1894  0.2520 -0.2125
11285W        W30819   7.402   3.999   3.754  0.1234  0.3435 -0.0713
11286W        W30820   4.569  12.742   2.291  0.2941  0.2217 -0.0923
11287W        W30821   1.836   7.997   2.139  0.0250  0.1270  0.2302
11288W        W30822   2.215   8.296  11.504 -0.1441  0.1887 -0.1174
11289W        W30823   6.452   7.166   2.954  0.5615 -0.2329  0.4565
11290W        W30824   0.759  17.290   3.632  0.0317  0.1125  0.0792
11291W        W30825  17.008  16.036   3.377  0.1236 -0.1647 -0.0959
11292W        W30826   1.384  15.103   0.626  0.2137 -0.2023  0.0770
11293W        W30827   3.536  13.552   2.649 -0.2708 -0.2822  0.1284
11294W        W30828  10.829   0.396  15.165 -0.0227 -0.0518  0.3407
11295W        W30829   1.994  11.609  12.225  0.1138 -0.0253  0.0608
11296W        W30830   2.026   2.818   4.487  0.1997 -0.0309  0.2483
11297W        W30831   5.788   2.147  11.810  0.2028  0.1822 -0.0445
11298W        W30832   5.496  10.871  13.625 -0.0251 -0.1777 -0.1783
11299W        W30833  10.488   1.629  12.107  0.2362  0.0165  0.1187
11300W        W30834  17.760   7.923   2.522  0.1391  0.1138  0.4891
11301W        W30835   7.828   2.616  15.019 -0.1062  0.0128  0.2230
11302W        W30836   1.500   8.103  14.565  0.0796 -0.0229  0.0873
11303W        W30837  15.672  18.127   2.236 -0.0653  0.0108 -0.0883
11304W        W30838   4.323  18.075  13.783 -0.0471  0.0364  0.1699
11305W        W30839   4.936   5.670   0.557 -0.1711 -0.0493  0.0634
11306W        W30840   7.657   9.714  14.704  0.1453 -0.1291 -0.1474
11307W        W30841  10.652  12.028  12.862 -0.2522  0.0639  0.0368
11308W        W30842   2.220   0.076   0.051  0.1968 -0.1590 -0.2269
11309W        W30843  17.278   1.880  15.735  0.2178  0.1481  0.3280
11310W        W30844  11.332  15.710   5.460  0.0157  0.1270 -0.0591
11311W        W30845  16.752   3.531   0.144 -0.0447 -0.1609 -0.2284
11312W        W30846   4.292  15.509   4.656 -0.0936 -0.0375  0.0039
11313W        W30847   4.435   0.778  11.705  0.3617 -0.0093  0.2707
11314W        W30848   4.195  17.610  13.630  0.0569 -0.0608  0.0124
11315W        W30849   4.121  17.230   3.854 -0.1363 -0.1735 -0.0553
11316W        W30850  16.623   3.181   1.098  0.2331 -0.0185 -0.3638
11317W        W30851  18.130  13.351  15.770 -0.0885 -0.1801  0.0113
11318W        W30852  12.333   5.876   1.794  0.0141  0.0734 -0.2263
11319W        W30853  10.829  11.564   2.069 -0.2676 -0.0225 -0.1098
11320W        W30854  12.386   2.911  12.422  0.2668  0.0152  0.1112
11321W        W30855   8.905  15.677  15.417 -0.0205  0.2298  0.1969
11322W        W30856   3.155  14.407   3.571  0.1969 -0.1511 -0.1323
11323W        W30857   0.002  16.106  13.961  0.1157 -0.0994 -0.1059
11324W        W30858  10.765  10.604   1.637 -0.1436 -0.1020 -0.3200
11325W        W30859   0.912   7.180   0.885  0.0280 -0.2446  0.1981
11326W        W30860  16.154  16.697   3.548 -0.2030 -0.1222 -0.0061
11327W        W30861   3.455   8.975  14.247  0.0502  0.0802  0.1408
11328W        W30862   2.516  16.185   1.620 -0.1498  0.0466  0.2404
11329W        W30863  11.534   7.263  13.055 -0.2499  0.1887 -0.0930
11330W        W30864   3.884   1.358  12.185  0.0382  0.0059  0.0614
11331W        W30865   6.262   8.359  11.402  0.0130  0.0855  0.0307
11332W        W30866  13.714   1.599   4.602 -0.1823  0.1014  0.1329
11333W        W30867  16.503  16.938  15.843 -0.0014 -0.4658  0.2092
11334W        W30868   7.971  15.005   1.777 -0.2188  0.0567 -0.1400
11335W        W30869   4.174   2.319   4.260 -0.2159 -0.3356  0.0712
11336W        W30870   2.504  10.135   2.084 -0.2592  0.0170 -0.0165
11337W        W30871   3.228  15.986  11.452 -0.1585  0.0843 -0.0484
11338W        W30872   8.695   6.670  15.703 -0.2261 -0.0998  0.1151
11339W        W30873  14.584   3.073   2.875  0.1028 -0.1265  0.1889
11340W        W30874   4.259  10.622  15.577 -0.0941 -0.0333  0.1804
11341W        W30875   8.795  10.707   1.717 -0.0381  0.1508 -0.0893
11342W        W30876  17.043  16.650  13.507 -0.2103 -0.0638  0.0486
11343W        W30877   5.134  13.388  13.829 -0.1621  0.1219 -0.0313
11344W        W30878  16.571   4.334   4.716  0.3289 -0.0623 -0.1580
11345W        W30879   3.308  17.095   2.264 -0.0113 -0.1813 -0.3270
11346W        W30880   3.117   4.563   0.893 -0.0048 -0.0499 -0.1282
11347W        W30881   2.118   3.115  14.338 -0.1911 -0.0130 -0.2445
11348W        W30882   5.874  15.473   1.677  0.0898 -0.0498 -0.1267
11349W        W30883   7.023  17.130  12.475  0.1816 -0.1473  0.0942
11350W        W30884   3.122   0.361   0.488 -0.5382  0.0557  0.1565
11351W        W30885   6.140  13.821   2.847 -0.1353 -0.1291  0.0257
11352W        W30886  16.965  12.174  14.539 -0.1334 -0.1727 -0.0316
11353W        W30887   0.828  16.427   1.841 -0.1042 -0.0515  0.1889
11354W        W30888   0.162  14.168   2.909 -0.1706  0.2246 -0.0047
11355W        W30889   2.505   0.736   1.057  0.1832 -0.2205 -0.0007
11356W        W30890  13.216   8.099  15.639  0.0945 -0.0281  0.0055
11357W        W30891   1.691   8.215   0.260 -0.1835  0.2060 -0.1288
11358W        W30892   4.684   6.335  11.560  0.0788 -0.3006  0.2077
11359W        W30893  15.415   4.363   3.937  0.0519 -0.0458 -0.0896
11360W        W30894  16.592   1.171   2.942 -0.0770 -0.3657 -0.0088
11361W        W30895   5.150  12.514   1.535 -0.0290  0.0286  0.2344
11362W        W30896  14.192  13.436  12.940  0.2129 -0.0944  0.1770
11363W        W30897   3.333  13.041  15.300  0.1995  0.1778 -0.0810
11364W        W30898  13.894   3.980  13.238 -0.1898  0.2078  0.3252
11365W        W30899  14.495   0.118  12.155  0.2158  0.1187 -0.0455
11366W        W30900   3.411  17.114  13.732 -0.0020  0.3496 -0.2557
11367W        W30901   5.689  13.371   4.267 -0.0578 -0.0699  0.2125
11368W        W30902   9.608  13.110   4.286  0.4326 -0.1253  0.0163
11369W        W30903   5.031   5.220   0.535 -0.3031  0.0883  0.2350
11370W        W30904  15.090  15.819  14.644  0.0340  0.1893 -0.0783
11371W        W30905   9.610  14.637  11.930 -0.1563 -0.0366  0.0651
11372W        W30906   4.819  14.770   1.929 -0.0167  0.2626 -0.0135
11373W        W30907   4.845  16.624   4.392  0.1145 -0.0116 -0.0471
11374W        W30908  16.753   6.797   1.575 -0.0799  0.1893  0.0284
11375W        W30909   2.419  16.607   3.384 -0.1563  0.2600  0.0090
11376W        W30910   8.731   1.394  11.766 -0.1581  0.2688 -0.0718
11377W        W30911  12.211  15.713   0.464  0.0541  0.1583 -0.5092
11378W        W30912   0.365   9.681  11.553 -0.2090  0.0147 -0.2468
11379W        W30913   4.067  12.737  14.061 -0.0012  0.1805 -0.2677
11380W        W30914  16.443   3.572  12.705 -0.0159 -0.1819  0.0427
11381W        W30915  17.661   0.749  12.803  0.0224  0.4485 -0.2145
11382W        W30916  12.139  17.973  14.378  0.2558 -0.4196 -0.2558
11383W        W30917   4.672  11.404   2.804 -0.0064 -0.1303  0.2389
11384W        W30918   2.113   3.998  15.910 -0.2145  0.1424  0.1500
11385W        W30919   4.319  16.266   2.105  0.2531 -0.2845  0.0814
11386W        W30920   2.002  11.373  15.592  0.1801 -0.0506  0.0548
11387W        W30921   4.729  17.161   0.327 -0.2406  0.2914 -0.1702
11388W        W30922  13.040   0.288  12.397 -0.2161 -0.3696 -0.1300
11389W        W30923   3.069   9.853   4.311 -0.1263  0.2232 -0.0028
11390W        W30924  17.356  12.727   4.020 -0.1967 -0.0020  0.1246
11391W        W30925   8.208   6.760   1.541  0.0451  0.0178  0.3028
11392W        W30926  14.292  14.586   1.323  0.0740 -0.0944  0.3155
11393W        W30927  15.623   3.554  14.038 -0.1264 -0.1634  0.1534
11394W        W30928   6.988  12.703   1.205 -0.0233 -0.1147 -0.0295
11395W        W30929  12.551   6.133  13.020 -0.1456  0.0876 -0.0824
11396W        W30930   6.265   5.983   3.685  0.6736 -0.0651  0.0365
11397W        W30931   8.708   6.180   2.899  0.4652  0.1521  0.2308
11398W        W30932   2.443   0.923  11.853  0.1705  0.1549  0.0793
11399W        W30933   8.875   6.695   1.516 -0.2127 -0.1132 -0.0719
11400W        W30934   7.188   7.375   4.599  0.0535 -0.1978 -0.0499
11401W        W30935   5.415   0.427  16.056  0.2665 -0.0730 -0.1533
11402W        W30936  12.042  18.107   4.942 -0.0200  0.1314  0.2501
11403W        W30937   1.078  15.577   1.978 -0.0495 -0.1648 -0.0592
11404W        W30938   2.393   4.676   2.951 -0.2623  0.3496 -0.1130
11405W        W30939   1.108   1.916  15.860  0.1689 -0.0742 -0.0800
11406W        W30940  10.483   6.587  14.963  0.0101 -0.1372 -0.0926
11407W        W30941   8.645  17.640  13.215  0.0151  0.1399  0.1054
11408W        W30942  16.685  14.212   5.036  0.0718  0.2382 -0.1470
11409W        W30943   8.963   4.855  11.461  0.0333  0.2165 -0.0426
11410W        W30944   5.425   6.569  15.765 -0.1190  0.1768 -0.2642
11411W        W30945  14.380  15.917  12.126 -0.1201  0.0685  0.2418
11412W        W30946   4.947   9.055  11.979 -0.3391  0.1380 -0.0511
11413W        W30947  13.008   1.631  12.396  0.1605  0.1655 -0.0479
11414W        W30948   5.741   2.779   3.226  0.0100  0.0667  0.0294
11415W        W30949   1.447   8.740   2.571 -0.0442 -0.1419  0.3027
11416W        W30950  13.622  11.697  15.393 -0.1597 -0.0946 -0.0976
11417W        W30951  17.031   9.193   1.636 -0.1059 -0.1609  0.2099
11418W        W30952  18.136  11.895   3.646 -0.1579  0.0500 -0.2737
11419W        W30953  10.563   2.554   1.972 -0.0080 -0.0538 -0.0784
11420W        W30954   3.631  13.340   0.556  0.3052 -0.0029  0.1039
11421W        W30955  14.886  15.375  15.920  0.0326  0.2953  0.0009
11422W        W30956  15.103   4.868  14.467 -0.3148  0.1810  0.1491
11423W        W30957  17.848  16.491  13.930  0.0675  0.2279  0.1314
11424W        W30958   8.052   6.715  12.332 -0.2673 -0.0418 -0.1202
11425W        W30959   7.837   4.663   4.357  0.1885  0.0040 -0.0487
11426W        W30960   1.035  17.779  15.462 -0.1042 -0.1256  0.2064
11427W        W30961  13.454   3.489  13.913 -0.1463 -0.0152 -0.1457
11428W        W30962   0.544  13.943  16.016  0.2927 -0.0400 -0.2126
11429W        W30963   5.462   9.968   0.996 -0.2193  0.0144 -0.0631
11430W        W30964   7.077  10.247   3.108  0.0645 -0.2543  0.0036
11431W        W30965   3.980   8.204  13.840  0.0307  0.3332 -0.3173
11432W        W30966  12.636   9.406   2.225 -0.0841  0.1712  0.3287
11433W        W30967   7.928  11.319   0.641  0.2024 -0.0500 -0.0960
11434W        W30968  14.372   5.173   4.130  0.0585 -0.1965  0.1872
11435W        W30969   2.759   0.889   2.730 -0.1568  0.3813  0.0036
11436W        W30970  17.358   5.440  14.299 -0.1354 -0.1246 -0.1075
11437W        W30971  14.463   8.401  11.857  0.1591  0.2374 -0.0106
11438W        W30972  13.405  17.972   4.147  0.0260 -0.2172 -0.0680
11439W        W30973   5.365  15.716  13.631  0.0026  0.1115 -0.0260
11440W        W30974   2.899   7.065   3.662 -0.2639  0.1793 -0.3235
11441W        W30975   3.067  14.935  16.029  0.0493  0.0136 -0.0038
11442W        W30976  11.434  11.564  13.948  0.2949 -0.2423 -0.0192
11443W        W30977   3.567  11.940   4.476 -0.0662  0.0811 -0.3029
11444W        W30978  17.412   3.573  11.897  0.2157  0.3197  0.0714
11445W        W30979   9.571   6.053  12.314 -0.2982  0.1644 -0.1707
11446W        W30980  12.365   4.239  12.251 -0.4461  0.1255 -0.1348
11447W        W30981  11.672  13.127   0.463  0.1013 -0.2255  0.1680
11448W        W30982   9.504   7.580  11.926  0.1448  0.3046  0.3932
11449W        W30983  12.792   7.516  11.694  0.1865  0.4139  0.3084
11450W        W30984  13.934  17.184   3.873 -0.0207  0.1006 -0.1443
11451W        W30985   7.468  16.685   4.014 -0.1129 -0.2731  0.2268
11452W        W30986   9.378   3.409   1.691 -0.0731  0.0880  0.1950
11453W        W30987   1.765   1.735   2.819 -0.0490  0.0098 -0.0511
11454W        W30988   8.193   2.202  12.220  0.1481  0.0639 -0.1491
11455W        W30989  12.518   0.218  12.305 -0.0931  0.0370  0.0649
11456W        W30990  17.315  14.422   3.397 -0.3994  0.0113 -0.1257
11457W        W30991   2.857  17.077   2.420  0.0543 -0.0959  0.0033
11458W        W30992   9.265   3.146  11.162  0.0511 -0.0884 -0.1814
11459W        W30993   3.104  15.395   2.597 -0.1375 -0.1508  0.2763
11460W        W30994   1.823  10.317   3.007 -0.0361 -0.0402 -0.0600
11461W        W30995   3.600   9.531  13.527  0.3222 -0.2760 -0.0049
11462W        W30996   6.067   4.864   0.556  0.0052  0.0428 -0.1398
11463W        W30997   9.239   6.435  13.190 -0.1503 -0.1662  0.1729
11464W        W30998   9.511  14.847  13.189  0.1614 -0.1222 -0.0319
11465W        W30999   7.918   6.787   4.280 -0.0423 -0.0709 -0.1320
11466W        W31000   4.241  18.080  14.263 -0.2291  0.0253  0.0383
11467W        W31001   6.369   0.942  14.141 -0.0493 -0.2652 -0.2257
11468W        W31002  13.404  11.014  11.240  0.0205 -0.2428 -0.1439
11469W        W31003   4.663  10.646  12.085  0.0439 -0.3147 -0.0031
11470W        W31004  10.533  17.712   0.047 -0.0043 -0.0362  0.0076
11471W        W31005   7.245  18.083   1.108  0.1527  0.2346 -0.0048
11472W        W31006   6.639  10.194   0.514 -0.0765  0.1583 -0.1559
11473W        W31007   6.991  10.684  13.898  0.0789  0.0239  0.0450
11474W        W31008  12.805   4.577   0.437  0.1162 -0.3570 -0.1424
11475W        W31009  13.747  14.895   2.248  0.1239  0.0076 -0.2808
11476W        W31010  16.614   8.900  14.222  0.1301 -0.1211  0.0613
11477W        W31011  12.157  17.010  13.232 -0.1749  0.0692  0.2255
11478W        W31012   1.697   2.214  12.637 -0.2274  0.3214 -0.2090
11479W        W31013  13.064  16.900  14.542  0.0236 -0.2387  0.1165
11480W        W31014  16.212  11.800   0.657  0.2669 -0.2978 -0.1789
11481W        W31015   4.267   4.718  12.134  0.0482 -0.1071  0.3600
11482W        W31016   4.800   8.413  10.558  0.0337 -0.2803 -0.0673
11483W        W31017   1.255   3.075  14.594  0.0826  0.0500  0.3529
11484W        W31018  14.199  17.812  15.016  0.2163 -0.0543  0.2208
11485W        W31019   0.158   4.733  13.751  0.0466  0.3204 -0.0240
11486W        W31020  17.468   9.845  15.561 -0.1567 -0.0422  0.1665
11487W        W31021  10.244   7.067  12.537 -0.1053 -0.0103 -0.1415
11488W        W31022   5.508   6.641   1.204  0.1436  0.1077 -0.2426
11489W        W31023  10.072   7.882   4.099 -0.0889 -0.2347 -0.2146
11490W        W31024  11.063  13.907  14.576 -0.1600  0.1779 -0.1024
11491W        W31025   0.452  16.248  13.009  0.2413 -0.1887  0.0895
11492W        W31026  15.077   4.838  13.242 -0.0229 -0.2072  0.1193
11493W        W31027   9.835   8.587  14.954  0.3250 -0.1847  0.0282
11494W        W31028  13.245   7.940  13.451  0.5183  0.1239 -0.0190
11495W        W31029  11.506   3.206  14.200  0.1056  0.2140 -0.2388
11496W        W31030   4.995   5.050   3.719 -0.0715  0.0428 -0.1670
11497W        W31031  17.860   5.121  14.412 -0.0541  0.1110 -0.1790
11498W        W31032  10.325   8.420  15.935 -0.1999 -0.1040 -0.0923
11499W        W31033  16.304  14.546   4.935 -0.1187  0.0607  0.0541
11500W        W31034   6.542  13.740   0.344  0.2042  0.0150  0.2423
11501W        W31035   9.409   2.914   4.308 -0.0880  0.2018 -0.1367
11502W        W31036   6.185  11.398  12.129  0.4247 -0.1241 -0.4163
11503W        W31037  17.300   2.799  14.020  0.1433 -0.0579  0.0968
11504W        W31038  17.300   0.811  11.829 -0.0896  0.0132  0.0459
11505W        W31039  15.693  12.500   2.644 -0.2255 -0.0630  0.3393
11506W        W31040  15.007  15.081   4.567 -0.0789 -0.2791 -0.2191
11507W        W31041   7.986  16.768   1.146  0.3724  0.0559 -0.0627
11508W        W31042  15.341   4.522  12.381  0.1169 -0.2885 -0.1708
11509W        W31043  14.175   5.597   1.033  0.1934  0.0456 -0.0388
11510W        W31044   4.874   7.941   2.388  0.0300 -0.0069 -0.2875
11511W        W31045  11.095   0.812   1.258 -0.1088 -0.0123  0.0404
11512W        W31046   8.035   6.652   1.020 -0.0807  0.1724  0.2742
11513W        W31047   5.253   6.050   2.895 -0.1187  0.1256  0.1737
11514W        W31048  13.094   8.592   2.608 -0.1142 -0.2488 -0.2159
11515W        W31049   5.955   1.126  14.639 -0.0932  0.3274  0.2828
11516W        W31050  11.264   1.395  11.653  0.0134 -0.3921  0.2183
11517W        W31051   0.327   5.537  15.145  0.2756 -0.0452  0.0163
11518W        W31052  16.972   1.410  11.388  0.0588  0.1572 -0.2075
11519W        W31053  12.676   2.583  12.589  0.0750  0.0353 -0.0036
11520W        W31054   9.102  17.101  13.012  0.4134 -0.1225  0.2181
11521W        W31055   5.986  13.902   0.248 -0.1770  0.1761  0.3743
11522W        W31056   8.617  17.670   5.688 -0.1361 -0.2819 -0.3908
11523W        W31057  14.308   2.483   0.688  0.0488  0.0427  0.0749
11524W        W31058   8.280   3.795  14.122  0.1417 -0.1669  0.1145
11525W        W31059   5.088  12.135  13.823  0.1290  0.2751 -0.0891
11526W        W31060   7.161  16.565  13.178 -0.1929 -0.0266 -0.0823
11527W        W31061   9.412  16.534  12.592  0.1272 -0.0102 -0.1373
11528W        W31062  14.488   2.168  13.233 -0.0732  0.1101  0.2670
11529W        W31063  10.482   9.687  12.927 -0.0199 -0.1652 -0.2730
11530W        W31064  12.366   5.004   3.507  0.1811 -0.0148 -0.1520
11531W        W31065   5.900   7.563  12.680 -0.0172  0.0323 -0.1698
11532W        W31066   4.182   4.785  14.556  0.2129  0.0397 -0.1578
11533W        W31067  12.629   6.974  15.312 -0.1093 -0.0143  0.2079
11534W        W31068   2.207  11.109  14.559 -0.0654  0.0745 -0.0126
11535W        W31069   1.294  17.696  11.421 -0.2145  0.1376 -0.3159
11536W        W31070  12.730  15.644   0.623 -0.0708 -0.2711 -0.2223
11537W        W31071  17.086  17.530  13.352  0.1927 -0.3001 -0.0074
11538W        W31072   6.782  16.392   0.712  0.2078 -0.0451 -0.0725
11539W        W31073   6.563   4.787   0.554 -0.2166 -0.0048  0.1570
11540W        W31074  16.944   4.592  15.220 -0.0086  0.1514  0.2655
11541W        W31075   6.144   5.173   2.875 -0.1523  0.1400  0.0917
11542W        W31076   8.649  17.046   0.999  0.2128  0.2061  0.1146
11543W        W31077  17.645   7.474   2.931 -0.1015  0.0403  0.1507
11544W        W31078  12.315   1.097   1.297  0.0440 -0.2106  0.1577
11545W        W31079   1.366   2.549  14.465 -0.3042  0.1541  0.3362
11546W        W31080  16.086   4.782   3.369 -0.3600 -0.1146  0.0669
11547W        W31081  15.849   1.539  12.619 -0.2520 -0.0128 -0.0038
11548W        W31082  11.859   3.839  13.693 -0.1046 -0.1777  0.1289
11549W        W31083  15.005   7.373   1.897  0.2309 -0.2031 -0.0660
11550W        W31084   9.248   0.045   3.743  0.0417  0.1835 -0.0765
11551W        W31085  13.765   6.386  15.893 -0.1536  0.2824  0.0369
11552W        W31086   9.403   2.854  11.574  0.1386  0.0178 -0.0396
11553W        W31087   7.428   3.613   1.180 -0.0849  0.0323  0.1360
11554W        W31088   4.459   6.628  13.711  0.1217 -0.0299 -0.1592
11555W        W31089  10.976   4.811   0.361  0.0215  0.0940 -0.0258
11556W        W31090   7.288   0.313   4.010 -0.0757 -0.1319 -0.3232
11557W        W31091   8.085   4.387  13.572 -0.2438 -0.1181  0.1487
11558W        W31092  12.612  18.000   2.625  0.1683  0.2122 -0.1014
11559W        W31093   1.219   9.343  11.869  0.0323 -0.4455 -0.0095
11560W        W31094  17.807   2.056  15.968 -0.0358 -0.1189 -0.3149
11561W        W31095  11.879   1.553   1.204 -0.0586  0.2425 -0.2132
11562W        W31096   0.916   0.372  15.513  0.1328 -0.3733  0.0849
11563W        W31097  15.866  15.550  14.916 -0.2771 -0.0572 -0.2550
11564W        W31098   6.598   8.176   1.418 -0.1499  0.0602 -0.1700
11565W        W31099  13.686   7.473   4.357  0.0644  0.0066 -0.1004
11566W        W31100  13.948   1.532  11.554  0.1366  0.0280 -0.2630
11567W        W31101   1.540   7.264   3.663  0.1213  0.0302 -0.1312
11568W        W31102  13.499  10.140   2.288  0.2185  0.2637 -0.1871
11569W        W31103   5.430  10.345   4.902  0.0100 -0.1741 -0.0414
11570W        W31104   0.811   7.709  13.090 -0.3143 -0.2557  0.0907
11571W        W31105   8.335  17.817   1.860  0.2414  0.0951 -0.0115
11572W        W31106  10.347   2.562   0.366 -0.0724  0.0907 -0.0165
11573W        W31107  15.583   5.650  11.600 -0.0407 -0.0591 -0.2879
11574W        W31108   9.321  14.015   1.912  0.1220  0.2054 -0.3621
11575W        W31109   2.794   5.315  13.366 -0.0004  0.2224  0.0060
11576W        W31110   4.929   3.267   2.001 -0.3359 -0.1404  0.0087
11577W        W31111   5.995  14.821   0.391  0.0655  0.4437  0.0092
11578W        W31112   7.733  12.811  11.147  0.1831  0.1699 -0.0128
11579W        W31113  18.014  13.794   2.710  0.0618 -0.1288 -0.1363
11580W        W31114  13.650   7.863  15.796 -0.1678  0.1713 -0.1908
11581W        W31115   9.124  16.281   0.021 -0.2138  0.3935  0.2455
11582W        W31116  14.004  11.152  13.713  0.0876  0.0330  0.0725
11583W        W31117   0.763  12.669   5.736 -0.1135  0.1130  0.3050
11584W        W31118   2.720  11.098  13.239 -0.0014  0.1346 -0.0224
11585W        W31119   2.188  14.730   0.838  0.0293 -0.5196 -0.2130
11586W        W31120  15.774   8.274  15.008 -0.4125 -0.0925 -0.0027
11587W        W31121   2.091   7.375   0.586 -0.2838  0.1131  0.1225
11588W        W31122   2.596   8.982  13.811 -0.0669 -0.1073  0.2454
11589W        W31123   0.570   8.947   4.052 -0.2538  0.0185 -0.3191
11590W        W31124   9.250   2.268   3.602  0.1915 -0.1425  0.2668
11591W        W31125   6.759   8.207  11.568 -0.0630 -0.0708 -0.2235
11592W        W31126   5.863   9.928  11.791 -0.0200 -0.0038  0.2654
11593W        W31127   9.362   3.058  14.922  0.1341  0.0379  0.1357
11594W        W31128  16.581  17.953  12.843 -0.2109 -0.0655  0.2833
11595W        W31129   4.872   7.475   4.327 -0.0283  0.2846  0.2149
11596W        W31130   6.594   2.160   1.469  0.2259  0.0533  0.4469
11597W        W31131   6.818  15.552  14.608 -0.3366 -0.0718 -0.1720
11598W        W31132  14.727  16.769   3.455 -0.1649  0.0552 -0.2095
11599W        W31133  13.644   9.567  15.817 -0.0143  0.0337 -0.1401
11600W        W31134  14.857   8.918  13.172 -0.2910 -0.1696  0.2128
11601W        W31135   8.442   6.577  14.253 -0.0331  0.1006  0.2406
11602W        W31136  15.932  17.253  11.430  0.3084  0.2801  0.0003
11603W        W31137   1.421   5.939   1.279 -0.0196 -0.2052  0.2647
11604W        W31138  15.045   2.745  11.607 -0.1586  0.1418  0.1835
11605W        W31139   8.673  10.142   1.789 -0.0332  0.0381  0.4871
11606W        W31140  16.988   4.217  14.868  0.0065 -0.0158  0.1045
11607W        W31141  15.969   6.997  13.338  0.0147 -0.1333 -0.1109
11608W        W31142   8.110  13.827  12.613  0.2125  0.1697 -0.0877
11609W        W31143  14.332   1.853   3.503 -0.2112  0.1220 -0.1109
11610W        W31144   9.496  11.165   1.648 -0.0591 -0.1521  0.1650
11611W        W31145   5.606  15.191  15.999 -0.2432  0.0941  0.2634
11612W        W31146  10.604  11.193   0.741 -0.2187  0.3087  0.0721
11613W        W31147  15.667  13.441   3.969  0.4454 -0.1238  0.1523
11614W        W31148  12.773   4.557  12.429 -0.1949  0.2119  0.1509
11615W        W31149  17.600  14.137   2.939 -0.0008 -0.0546  0.2757
11616W        W31150   1.196   6.921   2.210 -0.0433 -0.2217  0.0609
11617W        W31151   2.038  13.903  10.639  0.0118 -0.3266 -0.0899
11618W        W31152  10.060   9.577   4.589 -0.0503  0.0696 -0.0240
11619W        W31153  10.051   6.504   2.677 -0.0645  0.3137 -0.4284
11620W        W31154   7.661   6.114  12.034 -0.2105  0.2834 -0.0080
11621W        W31155   6.280  10.061  12.985 -0.1417 -0.1996  0.1877
11622W        W31156   3.826  14.399  13.593 -0.1557 -0.0501  0.0975
11623W        W31157   5.982  14.201  13.853  0.0495 -0.2822 -0.0804
11624W        W31158  14.759   3.098   5.919 -0.1337  0.1557  0.0025
11625W        W31159  15.955  14.286  14.764 -0.0987  0.1916 -0.3047
11626W        W31160   7.719   7.241  15.532  0.2233 -0.0501 -0.0804
11627W        W31161   0.181  11.142   1.417 -0.2090  0.0516 -0.0479
11628W        W31162  12.894   5.234  14.317 -0.4117 -0.1885  0.0762
11629W        W31163   5.698  15.330   4.031 -0.0181 -0.0968  0.0687
11630W        W31164  11.367   0.370   1.288 -0.1348 -0.1893 -0.0066
11631W        W31165  13.576  11.503  13.529  0.2539  0.0255 -0.2268
11632W        W31166  11.349  12.666   2.615 -0.2038 -0.2444  0.0564
11633W        W31167   8.813   5.423  14.961 -0.1120 -0.1356  0.0101
11634W        W31168   0.640  17.698  15.783  0.2538  0.0965 -0.0303
11635W        W31169  10.179  10.021  15.552  0.3264  0.3566 -0.2296
11636W        W31170  11.787   8.596   2.145  0.0283  0.3991  0.0124
11637W        W31171   5.411   9.911  14.429 -0.2921 -0.1841 -0.0662
11638W        W31172  15.422  17.513  11.322 -0.2778 -0.2943  0.0376
11639W        W31173  17.093  17.364  11.146  0.1703  0.1835  0.1657
11640W        W31174   0.201   6.690  14.226 -0.0873  0.0457 -0.0118
11641W        W31175   4.343  11.644   2.423  0.1102  0.0193 -0.0815
11642W        W31176   7.832  17.098  15.530  0.3604 -0.0778  0.0293
11643W        W31177  10.458  10.439   3.100  0.2397  0.2762 -0.0870
11644W        W31178   4.589   0.446   4.432  0.1408  0.0527  0.1639
11645W        W31179  15.030   2.962   3.219  0.1215 -0.2444 -0.0747
11646W        W31180   1.105   7.558  10.474 -0.1344  0.2555 -0.0516
11647W        W31181   4.456   1.709  12.126 -0.1197  0.1146 -0.1408
11648W        W31182   4.705  12.213  12.583 -0.0626 -0.0652  0.4237
11649W        W31183   0.856   6.705  15.563 -0.2223  0.1467  0.0702
11650W        W31184  14.998   0.113   2.030  0.1318 -0.2266  0.1931
11651W        W31185   8.197  13.846   3.603  0.3234  0.1552 -0.2866
11652W        W31186   2.692  13.144  11.757  0.0205  0.1360  0.0514
11653W        W31187  16.582  15.430   4.518 -0.1760  0.2732  0.0286
11654W        W31188  12.187  17.182   0.806  0.2441  0.0226 -0.0581
11655W        W31189  13.467  16.253   2.381 -0.1219  0.1920 -0.1691
11656W        W31190  17.154   7.700   1.125  0.2559  0.1260 -0.0655
11657W        W31191   6.387   7.146  13.628  0.1530 -0.0036  0.2067
11658W        W31192  17.195  13.387   3.937 -0.0534  0.1453  0.2093
11659W        W31193  18.073   4.743  10.285 -0.0670  0.1088  0.3648
11660W        W31194   5.232  13.546  15.972 -0.3241 -0.0168  0.1921
11661W        W31195   2.943   2.471  15.035 -0.1188  0.0890 -0.1813
11662W        W31196  14.966  11.434   1.715 -0.1904  0.1019 -0.5377
11663W        W31197  15.185  14.247  12.426  0.1170  0.1510 -0.2559
11664W        W31198  15.283   1.653   0.189 -0.1042  0.0379 -0.1953
11665W        W31199  15.805   4.534   4.206 -0.1434  0.0850 -0.1322
11666W        W31200   3.789   6.690  15.372 -0.1736 -0.0363 -0.1401
11667W        W31201   7.621   5.922  15.512  0.0337  0.1610  0.0845
11668W        W31202   3.924   8.278   2.439 -0.0431 -0.1178 -0.0067
11669W        W31203   4.502   2.926  15.266 -0.1196  0.0195 -0.1473
11670W        W31204   7.517  15.612  15.817  0.1071  0.0484 -0.0621
11671W        W31205   2.057   1.881  14.599 -0.0508  0.0931 -0.0685
11672W        W31206  15.854   4.774   0.272 -0.0302  0.2368  0.0652
11673W        W31207   5.875  12.454  12.892 -0.2015  0.5963  0.0813
11674W        W31208   4.657  10.706  13.244 -0.1357  0.1468 -0.3306
11675W        W31209   7.746  14.687   0.758  0.1950 -0.0789  0.0373
11676W        W31210  16.077  16.028  14.972 -0.1498  0.0175 -0.1100
11677W        W31211  10.252   7.170   1.395 -0.1972 -0.0480  0.1538
11678W        W31212   1.781   5.967  13.342 -0.1338 -0.2265 -0.1449
11679W        W31213   8.134   4.999  11.619 -0.1707 -0.1720  0.0963
11680W        W31214  16.507   0.336  15.097  0.2571  0.0521 -0.2884
11681W        W31215   6.937   4.746   0.192 -0.2457 -0.0452  0.1692
11682W        W31216  12.546  14.848  15.971  0.1432 -0.0412  0.0333
11683W        W31217   0.956   6.550   1.766 -0.2141  0.3260 -0.3492
11684W        W31218  10.657   5.833   3.184 -0.1076  0.0646 -0.0587
11685W        W31219   8.967   2.718  14.737  0.1019  0.2551 -0.1939
11686W        W31220   6.031  15.820  11.494  0.1583 -0.2953 -0.1555
11687W        W31221   4.304  14.026   4.178 -0.1310 -0.3146 -0.2025
11688W        W31222   5.771  10.747  15.465 -0.0130 -0.0260  0.3686
11689W        W31223  12.545   2.354  12.104  0.0013 -0.2669 -0.2740
11690W        W31224   0.262   2.048   1.380 -0.0702 -0.0729 -0.0174
11691W        W31225   8.831  13.834  15.699 -0.1532  0.1493 -0.3716
11692W        W31226  12.800   7.947   0.340 -0.1720  0.1174  0.1174
11693W        W31227   5.150  15.068  12.255 -0.0752  0.1286 -0.2577
11694W        W31228   7.119   4.572  13.372  0.0071 -0.1611  0.0894
11695W        W31229  14.571  10.304   4.789  0.2051 -0.2437  0.1203
11696W        W31230  15.628  11.251   0.934  0.1514 -0.1801  0.1714
11697W        W31231   8.280   1.992  14.406  0.0335  0.3570  0.1650
11698W        W31232   3.572   5.680  12.684 -0.1220  0.0035 -0.2266
11699W        W31233  16.846   5.738   5.129 -0.1129  0.1417  0.1802
11700W        W31234  11.401  15.074   0.645 -0.1027  0.2736 -0.1427
11701W        W31235   4.772   8.552   0.980  0.0134  0.2047 -0.2847
11702W        W31236  15.225   0.767  14.174 -0.1129 -0.2058 -0.1257
11703W        W31237  15.594  13.339  13.981 -0.1671  0.0556  0.2321
11704W        W31238  13.552  12.697   0.603  0.0062  0.1521 -0.0571
11705W        W31239  14.551   2.876   2.398  0.1946  0.1489  0.3222
11706W        W31240   7.010  12.079  12.569  0.0701  0.3815 -0.0159
11707W        W31241   8.110  11.943   4.678 -0.1883  0.3285 -0.1054
11708W        W31242   3.667   7.367   3.555 -0.1804 -0.0763 -0.1721
11709W        W31243  12.173   8.521  13.597  0.0134 -0.0181 -0.1738
11710W        W31244  17.649   7.780   1.061  0.1353  0.1038  0.0124
11711W        W31245  15.098  13.526  13.854  0.3807 -0.0108 -0.0980
11712W        W31246  10.348   6.153  14.708 -0.0999 -0.0901 -0.0499
11713W        W31247  10.588  13.126   1.413  0.1774  0.3456  0.1209
11714W        W31248   2.393   3.495  12.493  0.2131  0.0161  0.2916
11715W        W31249   9.676   0.664   2.367 -0.4101 -0.1121  0.3470
11716W        W31250   7.987  17.991  11.905 -0.0573  0.0971 -0.4138
11717W        W31251  17.854  12.768   0.058  0.0629 -0.4188 -0.1646
11718W        W31252   2.621  16.985   1.944  0.0185 -0.3134 -0.1021
11719W        W31253  15.355   9.911   3.823 -0.1484  0.1551  0.2420
11720W        W31254   5.637  11.832   2.231 -0.2793  0.0422  0.0056
11721W        W31255   0.988  14.235   3.866  0.2164  0.0226  0.0271
11722W        W31256  12.901  13.402  13.167  0.0078 -0.0408  0.0806
11723W        W31257   7.634   0.249   3.637 -0.0331  0.2431  0.1075
11724W        W31258   6.912  11.523  12.660  0.2532  0.1008 -0.1584
11725W        W31259  11.875   4.916  12.809  0.1668 -0.0653 -0.2598
11726W        W31260   5.580   3.054  12.001 -0.0656  0.0952  0.2421
11727W        W31261  10.808  14.380   2.642  0.1845  0.0678 -0.2008
11728W        W31262  10.399   7.105   0.526  0.1940  0.2156 -0.4690
11729W        W31263   7.443  10.985   3.551 -0.0473  0.0081 -0.2071
11730W        W31264   2.025   4.947   2.717 -0.0859 -0.0409 -0.0112
11731W        W31265  16.493  11.997  14.387 -0.2718 -0.1248 -0.1435
11732W        W31266  14.207  12.499   4.357  0.1034 -0.0726 -0.2160
11733W        W31267  12.860   5.345  11.171 -0.1721  0.0379  0.0944
11734W        W31268   5.449   3.936  11.607 -0.1962  0.0336  0.0416
11735W        W31269   9.401   4.781  13.491  0.0023 -0.3697  0.0767
11736W        W31270   4.302   5.981   1.167 -0.1895 -0.1631 -0.0127
11737W        W31271   4.915   3.863   3.484 -0.0616 -0.1263 -0.1051
11738W        W31272  10.171  11.193   1.064 -0.2130  0.1839 -0.0252
11739W        W31273  12.545   8.648   2.737  0.0331 -0.0144  0.1225
11740W        W31274  11.230  11.509  15.291  0.0156  0.1266  0.2670
11741W        W31275  12.888   5.581   0.605  0.0131 -0.3628 -0.1914
11742W        W31276  16.024  15.179   0.832  0.0483  0.0570 -0.1468
11743W        W31277  14.028   7.260   4.847 -0.0358  0.0394  0.1535
11744W        W31278  15.388   2.797  14.324  0.3385 -0.2492  0.0526
11745W        W31279  15.117  12.618  14.726  0.0464  0.0156 -0.2476
11746W        W31280  12.264   8.716   4.227  0.0944 -0.2319  0.1763
11747W        W31281  10.669   5.165  13.108  0.0605  0.0531 -0.0971
11748W        W31282   8.257  10.578  15.415  0.0736  0.1625 -0.0899
11749W        W31283   9.192  16.502   0.497 -0.1012  0.1272  0.2638
11750W        W31284   2.875  12.132   0.790  0.1994 -0.2453  0.2638
11751W        W31285   0.697  16.536   3.871  0.1305  0.1870  0.2706
11752W        W31286  15.757   2.452  12.598 -0.2042  0.0060 -0.1281
11753W        W31287   8.092   2.474   3.863 -0.0977 -0.1353  0.1283
11754W        W31288  16.504   2.169  14.734  0.3217 -0.1992 -0.2948
11755W        W31289  11.807  17.678  14.728 -0.0326  0.0441  0.0195
11756W        W31290   7.510   7.890   4.136  0.0354 -0.1347  0.0065
11757W        W31291   0.113   6.591   1.219 -0.0351  0.0724 -0.0943
11758W        W31292   1.507   7.620  12.279 -0.1115  0.2372  0.0172
11759W        W31293   3.323  16.668   3.584  0.1826  0.0221 -0.1609
11760W        W31294   6.244  15.335   2.288 -0.0468 -0.3222 -0.1013
11761W        W31295  15.572  16.747   4.371 -0.0987  0.1694  0.0993
11762W        W31296  14.868  15.748  12.986  0.2092  0.1340  0.0364
11763W        W31297   2.278   0.289  11.677  0.1738  0.4081  0.1750
11764W        W31298   8.952   6.775  12.835  0.0260  0.0235  0.0017
11765W        W31299   5.214  11.339   5.055 -0.0440  0.0801  0.1238
11766W        W31300   8.133  10.048  13.759 -0.0774 -0.1231  0.1455
11767W        W31301   7.661   8.603   2.130  0.0159 -0.3207  0.1118
11768W        W31302   9.993   0.455  15.061 -0.1612  0.0657 -0.3222
11769W        W31303  17.542  10.306  13.569  0.1273 -0.1167  0.0183
11770W        W31304   9.183  17.281   1.721  0.2441  0.1668 -0.2066
11771W        W31305  12.366   7.290   3.415  0.0996  0.1443  0.3093
11772W        W31306   5.047   0.691   1.946  0.1679 -0.1009  0.3349
11773W        W31307   4.451  10.466  11.401 -0.0539  0.3305 -0.1258
11774W        W31308   0.531   9.734   5.003 -0.0098 -0.0194 -0.1105
11775W        W31309  13.011  16.326  12.007 -0.1663  0.0866 -0.0356
11776W        W31310  11.903  11.729   0.624  0.1297 -0.2373  0.1565
11777W        W31311  15.145  14.485  15.978  0.2161  0.1051 -0.0276
11778W        W31312  13.368  16.819  13.212  0.2243  0.2311 -0.2716
11779W        W31313   6.607  11.233  12.971  0.0193  0.0318  0.1451
11780W        W31314  12.411  18.114   4.607  0.0757  0.0714 -0.2708
11781W        W31315   7.009   9.386  12.358 -0.0385  0.1406 -0.3467
11782W        W31316   9.622   9.852  15.576  0.1987 -0.0613  0.0088
11783W        W31317   1.719  16.124   0.407 -0.3523  0.2557 -0.1082
11784W        W31318  13.583   0.560   4.230  0.1218  0.1312  0.1158
11785W        W31319   7.891  17.475  13.440  0.0001 -0.2792  0.2510
11786W        W31320  13.841  16.924   4.303 -0.2104  0.3290  0.2016
11787W        W31321   9.150   8.737   5.605  0.0085 -0.0875 -0.0944
11788W        W31322  16.405  12.501  12.774  0.1839 -0.0372 -0.1692
11789W        W31323   6.447   6.443   5.508 -0.0784 -0.1517 -0.0190
11790W        W31324  11.018   4.493   1.790  0.1386  0.0309 -0.3897
11791W        W31325   8.943  13.939  15.234  0.3205  0.1534  0.0049
11792W        W31326  17.268  11.878  12.832  0.2136 -0.1530 -0.0285
11793W        W31327   2.622   6.065  15.001 -0.2142 -0.3183  0.2081
11794W        W31328   0.301   7.480   4.460 -0.1408 -0.2161 -0.0127
11795W        W31329   0.959   8.660   0.494  0.0176 -0.0299  0.1561
11796W        W31330   9.467  12.713   0.388 -0.1265  0.3086 -0.2317
11797W        W31331  16.483  15.154  14.928  0.1930  0.1190 -0.1274
11798W        W31332   8.557   9.085  12.493  0.0571 -0.0159  0.0892
11799W        W31333  13.508   6.095  12.048 -0.0387 -0.1721 -0.1531
11800W        W31334  16.750  15.820   4.153 -0.1348 -0.0894  0.1830
11801W        W31335   9.592   2.996   1.491 -0.1441 -0.1866 -0.0723
11802W        W31336   4.143  16.069  12.913  0.4056  0.1432  0.0905
11803W        W31337  11.169   0.874   0.125 -0.3298  0.2744  0.1801
11804W        W31338  12.942  14.280   2.027  0.1207  0.0279 -0.2753
11805W        W31339   4.910   0.438  12.216  0.1967  0.3096  0.0506
11806W        W31340   7.810   8.942   3.152  0.2471  0.2195 -0.1106
11807W        W31341  12.216  11.508   4.827  0.0015 -0.1119 -0.0376
11808W        W31342   3.061   6.809   5.660  0.1908  0.0874  0.0336
11809W        W31343   1.594  11.576  11.844 -0.0341 -0.1079 -0.0639
11810W        W31344  11.336  10.552  14.448  0.1586 -0.0762  0.1295
11811W        W31345  11.350   1.430   3.601  0.0670  0.2264 -0.0124
11812W        W31346  16.542  13.147   4.871 -0.0354  0.2607  0.1778
11813W        W31347  15.254  16.681   0.490 -0.1284 -0.3210 -0.1576
11814W        W31348  12.238   1.435  11.955 -0.2331 -0.1854 -0.2319
11815W        W31349  13.426   9.035   0.548  0.2416 -0.2506 -0.0573
11816W        W31350   8.199   1.377  11.409  0.1992 -0.0964  0.1563
11817W        W31351   6.602   1.240  11.224  0.2288 -0.0314 -0.1113
11818W        W31352  11.436   1.297  12.979 -0.0911 -0.1367  0.2590
11819W        W31353   4.807  14.978   4.325 -0.1096  0.2852 -0.2213
11820W        W31354  14.000  10.962   2.605 -0.0307 -0.0269  0.0188
11821W        W31355  16.131  15.810   6.189  0.0357 -0.3072  0.0674
11822W        W31356  16.262  14.755   1.259  0.0301 -0.1550 -0.2106
11823W        W31357  11.353  14.845  13.529 -0.0989  0.0712  0.1679
11824W        W31358  14.657   9.355   3.933 -0.0937  0.0894 -0.1351
11825W        W31359   6.029  17.300   0.124  0.3335 -0.1393  0.4693
11826W        W31360  10.091  15.974   4.612  0.0781 -0.0377 -0.2166
11827W        W31361   1.741   6.382  11.555 -0.4704 -0.0790  0.1163
11828W        W31362  14.587  10.318   0.369 -0.2668  0.0371  0.1146
11829W        W31363  18.161   8.178   3.387 -0.0612 -0.2289 -0.0312
11830W        W31364  16.392   8.299   4.979  0.0009  0.0971  0.1854
11831W        W31365   6.065  14.007   3.837  0.0236 -0.1659 -0.4286
11832W        W31366  12.787  10.191  12.032 -0.1343  0.0211 -0.0641
11833W        W31367  17.472   9.727  13.011  0.1498  0.1831  0.1968
11834W        W31368   6.153   2.267  12.274 -0.1651  0.0782 -0.1960
11835W        W31369  12.193  14.647  13.969  0.0792 -0.1009 -0.2141
11836W        W31370   4.619   5.808   0.212  0.2482 -0.1376 -0.0763
11837W        W31371   4.065  11.512  13.932 -0.0624  0.1461 -0.0183
11838W        W31372   3.065   7.285   0.745  0.0893 -0.2505  0.0865
11839W        W31373   7.087   4.911  12.037 -0.2798 -0.1604  0.3512
11840W        W31374   6.437   4.749   1.989 -0.1228  0.0265  0.0181
11841W        W31375   4.941   0.915  13.057 -0.0059  0.2227  0.0519
11842W        W31376   5.987   6.796   0.983  0.2081  0.0642  0.1522
11843W        W31377   2.437   0.215   1.196 -0.0519  0.1440  0.4215
11844W        W31378   4.371  17.165  13.795  0.1230  0.4211 -0.3489
11845W        W31379  14.132   3.483   1.433  0.2499  0.0685  0.1115
11846W        W31380  18.114   2.517   5.018  0.1271 -0.1135 -0.0947
11847W        W31381   2.541  15.563  10.430 -0.0873  0.0810 -0.2151
11848W        W31382   9.781   4.378  12.448  0.1159  0.0952 -0.0136
11849W        W31383   5.678  15.442  11.384 -0.1733 -0.1415 -0.0863
11850W        W31384  12.179   3.888   3.379  0.1290 -0.3433 -0.1571
11851W        W31385   7.458   0.854   3.720 -0.1511 -0.0084 -0.0818
11852W        W31386  11.145  17.050   2.455  0.2551 -0.2317 -0.1005
11853W        W31387  17.057   0.722   2.293  0.0535  0.0251  0.0116
11854W        W31388   9.479  15.243   3.143 -0.0762  0.1774 -0.1989
11855W        W31389  15.765  11.887   3.910  0.1189  0.0068 -0.1921
11856W        W31390  16.634   2.854  15.568 -0.0317 -0.0602  0.0833
11857W        W31391  10.807  16.999   2.873 -0.0857  0.1465  0.1731
11858W        W31392   5.029  16.945   1.062  0.3136 -0.1014  0.2088
11859W        W31393  10.937  14.944   1.518 -0.2299 -0.0270 -0.0584
11860W        W31394  17.243  10.872  15.558  0.0004 -0.0822  0.1225
11861W        W31395   5.662   2.240  14.753 -0.2488  0.1495 -0.1774
11862W        W31396  15.302  13.228  12.974 -0.1897 -0.1197 -0.0437
11863W        W31397  12.341  10.824   4.402 -0.0635  0.1203  0.1040
11864W        W31398  16.426   3.082  12.538  0.2192 -0.0407  0.1948
11865W        W31399  11.018  10.641   0.126  0.0477  0.0757  0.1362
11866W        W31400   5.504   7.307   3.676  0.0004 -0.0238  0.1491
11867W        W31401   8.937  10.726   2.322  0.0386 -0.0657 -0.0368
11868W        W31402  15.807  12.542  15.244 -0.2197 -0.1282 -0.2051
11869W        W31403  16.607  10.742  14.725 -0.1852 -0.0262 -0.0957
11870W        W31404   7.317   7.728   2.002 -0.0181  0.2100 -0.0825
11871W        W31405   9.212   6.012   0.087 -0.3523 -0.2626  0.0421
11872W        W31406  15.708   1.919   3.685  0.1800 -0.0300  0.1054
11873W        W31407   3.799  14.042   5.017 -0.1059 -0.1737  0.0794
11874W        W31408  12.120   3.572   0.667 -0.1083 -0.1973  0.2168
11875W        W31409   4.107  13.099   3.956 -0.1242  0.1178 -0.1565
11876W        W31410   1.022  17.498  14.480 -0.2865  0.0525  0.2928
11877W        W31411   7.829   1.712   3.247 -0.0009 -0.1618  0.0712
11878W        W31412  14.649   1.486   1.369  0.0126  0.0056 -0.0681
11879W        W31413   6.293   1.229   1.612 -0.3222 -0.0354  0.1067
11880W        W31414   3.360  11.487  15.238  0.0511 -0.1781 -0.0781
11881W        W31415   7.798  17.198   0.183  0.2692  0.0542 -0.0971
11882W        W31416   0.156  12.901  14.102  0.2010  0.1709  0.0943
11883W        W31417  16.269   1.531   2.726 -0.1930  0.0237  0.1227
11884W        W31418   6.833   3.630  15.527 -0.1771  0.1105  0.1310
11885W        W31419   9.338   9.414  15.791  0.3772 -0.1576 -0.1488
11886W        W31420  13.145   1.477   4.365  0.0864 -0.2560 -0.1582
11887W        W31421   5.926   8.088  13.838 -0.0271 -0.1127  0.0058
11888W        W31422   3.754   4.349   2.647 -0.2042 -0.0062  0.0410
11889W        W31423  12.269  11.729  13.450  0.1515  0.1539 -0.0781
11890W        W31424   0.915   6.739   4.074 -0.0434  0.2252 -0.2701
11891W        W31425   1.040  17.041  13.108  0.0378  0.1024  0.0061
11892W        W31426   3.116   9.045  15.004  0.1581 -0.1491  0.2146
11893W        W31427   5.028  13.836   2.727 -0.0196  0.2572  0.0038
11894W        W31428  12.906   9.475   2.610 -0.2093 -0.1724 -0.0506
11895W        W31429   6.619   3.079   1.301  0.1992  0.2983 -0.0334
11896W        W31430  15.057   1.026   3.446  0.1223 -0.0768 -0.0095
11897W        W31431  10.576   4.358   3.806  0.0719 -0.0049  0.2480
11898W        W31432  15.753   0.038  13.232 -0.0032 -0.1774 -0.0683
11899W        W31433   9.733  15.846   3.716  0.3973  0.0852 -0.2050
11900W        W31434  14.058  13.945  11.647  0.1665 -0.1310 -0.4017
11901W        W31435   8.458  15.843  11.197 -0.0063  0.2809 -0.2044
11902W        W31436   8.592  10.881  15.622  0.0995 -0.1670 -0.1533
11903W        W31437   2.834  15.888   0.304 -0.0518  0.0273 -0.0133
11904W        W31438  12.582  18.044  11.962 -0.0051 -0.2033  0.2659
11905W        W31439  15.520   5.329   3.773 -0.0194 -0.1332 -0.2241
11906W        W31440  10.533   2.836  15.918 -0.2626 -0.0635  0.3049
11907W        W31441   2.664  13.785   2.202 -0.3968 -0.1586  0.2423
11908W        W31442  17.160   0.901   0.745 -0.2735 -0.0311 -0.0842
11909W        W31443   7.454  12.686   0.776 -0.1557  0.0141 -0.0621
11910W        W31444   7.319  12.369   1.246  0.0757 -0.0103  0.3029
11911W        W31445  17.438   2.163  15.017  0.0240  0.0094 -0.1464
11912W        W31446  15.081  14.460   1.104  0.2345  0.0544 -0.1515
11913W        W31447   9.880   2.715  11.528 -0.3114  0.0912  0.0790
11914W        W31448  11.251  17.195   3.071 -0.1779  0.0595  0.0592
11915W        W31449  15.789   5.230  11.505  0.1323 -0.1386 -0.0532
11916W        W31450   5.228   3.394   4.475  0.1282 -0.0216 -0.0260
11917W        W31451   1.265   8.632   2.078 -0.0598 -0.0201 -0.2440
11918W        W31452   4.433   8.835   0.681 -0.1144  0.4308 -0.0549
11919W        W31453  14.363   8.843  12.064  0.2023 -0.2199 -0.0740
11920W        W31454   3.227   5.015  12.043  0.2880  0.0667 -0.0681
11921W        W31455   4.897  16.504  13.173  0.2051 -0.0032  0.1119
11922W        W31456   5.248  16.032  15.921 -0.0626 -0.0192 -0.0557
11923W        W31457  14.017  15.832  12.496  0.1708 -0.1347 -0.2224
11924W        W31458   1.412   5.179   1.433  0.1893  0.0760  0.1257
11925W        W31459  16.989   7.267  12.740  0.0281  0.1147 -0.2919
11926W        W31460  15.687   5.495  12.725 -0.0695 -0.4147  0.0003
11927W        W31461  17.733   3.482   2.268 -0.0152  0.0007 -0.4961
11928W        W31462  10.523   9.544  12.146 -0.2513  0.0801 -0.2655
11929W        W31463  13.621  16.930  14.958  0.0807  0.1131 -0.2942
11930W        W31464  16.015   6.422  14.286  0.1195  0.0990  0.0560
11931W        W31465   9.427   8.697  15.309  0.1206  0.4327  0.1486
11932W        W31466   2.041  12.077  14.810  0.0091  0.0826 -0.1358
11933W        W31467  12.029   5.607   2.646  0.0092 -0.1175  0.0790
11934W        W31468   7.095   8.074   3.324 -0.0360 -0.1224  0.0490
11935W        W31469  13.407   1.587   0.727  0.1207 -0.1271 -0.0025
11936W        W31470  13.688  10.752  14.690 -0.2734 -0.0462 -0.1202
11937W        W31471   0.798   2.017   2.564  0.1540  0.0527 -0.0996
11938W        W31472  11.957  14.386  12.249  0.0924  0.2777 -0.2535
11939W        W31473  11.085   2.255  13.209  0.0437 -0.0767  0.0016
11940W        W31474   2.818   2.958   4.210  0.0191  0.4525 -0.1173
11941W        W31475   1.151   5.438   3.434 -0.0397  0.2737 -0.1378
11942W        W31476   2.102   3.374   0.857  0.0522 -0.1230 -0.2099
11943W        W31477   7.775  14.555  12.288 -0.0547  0.1115 -0.2242
11944W        W31478  11.810  15.435  12.149  0.0382  0.0215  0.1422
11945W        W31479  15.493   9.469   2.248  0.0655 -0.2682  0.0433
11946W        W31480  10.653   0.154  13.377 -0.1199 -0.2826  0.3280
11947W        W31481   8.915  10.314   5.301 -0.4133 -0.1121  0.0042
11948W        W31482   4.297   7.547  13.320  0.2701 -0.0016  0.0698
11949W        W31483  16.799   3.307   4.678 -0.1573  0.1743  0.1121
11950W        W31484   2.616  16.234   3.694 -0.2438  0.1306  0.0289
11951W        W31485   1.747   8.695  12.791 -0.0291  0.1509 -0.0201
11952W        W31486   5.595   4.763   4.165 -0.2206 -0.0950 -0.1760
11953W        W31487  13.045   5.408  14.957 -0.0143 -0.0178 -0.5049
11954W        W31488   4.668   0.865  14.420 -0.2202 -0.2150  0.3609
11955W        W31489   2.227   3.615  14.181 -0.2206 -0.0936  0.0190
11956W        W31490   7.805   4.358   0.427  0.1392  0.1122 -0.0310
11957W        W31491   1.358   1.800  13.267 -0.1559  0.0402 -0.1194
11958W        W31492   4.429   9.717   2.366 -0.4351 -0.0082 -0.3219
11959W        W31493   8.705   3.014  11.080  0.0137  0.2646  0.3265
11960W        W31494   8.023  14.983   0.381 -0.2836  0.0434  0.1179
11961W        W31495  14.661   9.589  12.396 -0.0914  0.1242  0.0053
11962W        W31496   9.459   6.981  11.894 -0.0089  0.2943 -0.0730
11963W        W31497   6.546   8.401   4.020  0.1310  0.1191 -0.3539
11964W        W31498   9.569   6.237  14.892  0.2455 -0.2079  0.2349
11965W        W31499  11.233   2.219  11.828 -0.1302  0.0897 -0.1214
11966W        W31500  14.444  11.723  14.582 -0.4284 -0.2417 -0.0144
11967W        W31501  15.409   5.508  13.861  0.0453  0.1010  0.1338
11968W        W31502   9.213  16.794   4.175 -0.1268 -0.1079 -0.0610
11969W        W31503   3.946  17.670  15.472  0.3164  0.1799 -0.1775
11970W        W31504   0.584   0.589   3.433 -0.1968 -0.2000 -0.0134
11971W        W31505   9.515  12.438  14.701 -0.0817  0.0710  0.2013
11972W        W31506   5.801   6.376  14.053 -0.0865  0.1959 -0.1006
11973W        W31507  16.998   3.930   3.329  0.0655 -0.0712 -0.0106
11974W        W31508   1.287   7.674  14.665 -0.0875  0.1405  0.2038
11975W        W31509  11.927   5.772  12.083 -0.2015  0.2407  0.0683
11976W        W31510   8.660   6.870   0.351 -0.1916  0.0576  0.3468
11977W        W31511   7.786  15.788  12.984  0.0019  0.1535  0.0870
11978W        W31512  17.253  17.966   4.094 -0.4654  0.2472 -0.0929
11979W        W31513   9.257   6.978   2.473 -0.0056 -0.0639  0.0395
11980W        W31514   1.694  17.725   2.478 -0.0963 -0.1347 -0.0404
11981W        W31515   6.053  11.241  15.516  0.0491  0.0630  0.0084
11982W        W31516   5.238  10.072   0.499 -0.1705  0.0405 -0.0795
11983W        W31517  13.914  17.472   1.680  0.1675 -0.2307  0.3538
11984W        W31518   0.333   8.879  11.434 -0.2283 -0.1538  0.1309
11985W        W31519   8.975  15.085  14.575 -0.0881  0.0835  0.0886
11986W        W31520  13.453  17.665   1.814  0.2172  0.2049  0.1246
11987W        W31521  10.777  13.656   4.868  0.0198  0.0135  0.1463
11988W        W31522   5.516   3.491  15.211  0.0126 -0.1933  0.1135
11989W        W31523  16.772   7.063   4.478  0.1635 -0.1633  0.1537
11990W        W31524   1.722  16.842  10.237 -0.2611  0.0729 -0.0281
11991W        W31525  15.998   4.376  14.088  0.0056 -0.2199 -0.1708
11992W        W31526  17.834  10.062   3.914 -0.0687  0.1705  0.1798
11993W        W31527   1.341   1.903   4.642 -0.0109  0.0478  0.1039
11994W        W31528  16.554   2.207   4.032 -0.0650  0.3034 -0.2368
11995W        W31529   3.365   6.571  14.488  0.5396  0.4613  0.0363
11996W        W31530  13.057   0.094   2.622  0.5145  0.1857  0.0800
11997W        W31531  10.958   9.138   4.326  0.0769  0.0453  0.0927
11998W        W31532   6.577   9.992   1.724  0.0626  0.0204  0.2516
11999W        W31533   4.258   0.652   0.128 -0.0332  0.1071 -0.1471
12000W        W31534  16.435  17.645   4.759 -0.2536  0.1710 -0.0700
12001W        W31535   6.015  17.844   4.083 -0.1902  0.0899 -0.0965
12002W        W31536  17.320   3.145   1.548 -0.0024 -0.3279 -0.1960
12003W        W31537  10.614   7.822   5.354 -0.1812  0.1713  0.0447
12004W        W31538   7.148   0.783   3.290  0.0853  0.0908  0.2709
12005W        W31539   8.731   3.925   1.875  0.1360  0.0805  0.1218
12006W        W31540   7.064   1.784   4.094  0.1785  0.2179  0.0538
12007W        W31541   5.207   1.078   3.848 -0.0852 -0.0766 -0.2862
12008W        W31542  10.921   9.663  12.722 -0.1541  0.0474 -0.1987
12009W        W31543  10.461   6.359  13.978  0.4190 -0.0193 -0.1712
12010W        W31544   5.741  11.269   1.441  0.0906 -0.1780  0.0364
12011W        W31545  15.699   0.254  11.822 -0.1664 -0.0465 -0.2074
12012W        W31546  16.406   3.054  13.454  0.2850  0.0498  0.1208
12013W        W31547  11.605   3.597  12.366 -0.0289 -0.0150  0.1693
12014W        W31548   1.653   4.896   0.754  0.2093 -0.1210  0.1209
12015W        W31549   3.280  12.418  11.905  0.0240  0.1896 -0.2248
12016W        W31550  14.078   6.707   1.263  0.0412 -0.1470  0.0501
12017W        W31551  16.975  14.038  15.640 -0.0796 -0.0896  0.1418
12018W        W31552  15.815  17.618  13.791  0.1319  0.0662 -0.3159
12019W        W31553  12.551  12.988  15.241  0.2113  0.1710  0.1298
12020W        W31554   3.810   9.358   4.244 -0.0081 -0.0555 -0.1697
12021W        W31555  14.219   0.400   5.020 -0.0632  0.1854 -0.0894
12022W        W31556   3.948  14.045   3.774  0.2137  0.3062 -0.0459
12023W        W31557  11.349  14.571   0.856 -0.0322 -0.2326 -0.1521
12024W        W31558   9.400  16.704  14.300 -0.2819  0.3520 -0.0241
12025W        W31559   7.211   7.710  14.712 -0.0819  0.2617  0.0608
12026W        W31560   2.561   1.924   1.640 -0.4179  0.2509 -0.1462
12027W        W31561  13.320  15.006   1.271  0.1923  0.2731  0.0632
12028W        W31562   9.970  12.174  15.831  0.1090  0.0076 -0.0350
12029W        W31563   7.894  17.819   2.887 -0.2095 -0.1922  0.1688
12030W        W31564   2.493   5.981  10.532  0.0952 -0.1657  0.1262
12031W        W31565   3.304  15.168  12.816  0.2326 -0.0940 -0.0813
12032W        W31566   3.151   4.521   2.952 -0.0110 -0.0228  0.1926
12033W        W31567   8.670  10.374   4.484 -0.1709 -0.0540  0.2072
12034W        W31568   5.038   2.325  15.514 -0.2136 -0.2762  0.1404
12035W        W31569  11.859   3.036  12.445  0.3196 -0.3183 -0.2589
12036W        W31570   2.821  13.327  14.593  0.0208  0.4428  0.1527
12037W        W31571   0.366   8.649  13.376 -0.1135 -0.1014  0.0442
12038W        W31572   6.989  17.298  14.332 -0.0510  0.0219 -0.1437
12039W        W31573   5.227  15.486   3.778 -0.1804 -0.3053 -0.1200
12040W        W31574   2.838   6.277   0.128  0.0878  0.3371  0.0093
12041W        W31575  10.779   7.118  12.349  0.4465 -0.2955 -0.2958
12042W        W31576   8.140   9.029  12.183  0.1931  0.4795 -0.1180
12043W        W31577   7.586  15.291  10.615  0.2529 -0.1756 -0.2439
12044W        W31578  11.921   4.856  16.023  0.1549  0.0507  0.0760
12045W        W31579  17.880  12.607  12.519 -0.2035 -0.0341 -0.0955
12046W        W31580   7.110  17.056  10.821  0.0899 -0.2789 -0.2661
12047W        W31581   0.533  14.978   3.666 -0.1462  0.2583  0.2244
12048W        W31582  10.469   7.338  15.675  0.0433 -0.0356  0.0452
12049W        W31583   3.606  15.283   5.127 -0.1235 -0.3949  0.1320
12050W        W31584  10.874  13.204  10.689  0.0502  0.0066  0.0186
12051W        W31585   9.474  11.640   4.679  0.0372  0.0641 -0.1207
12052W        W31586  18.085   8.146   3.914  0.1997  0.0264 -0.3181
12053W        W31587   9.972   5.808   2.080  0.1223 -0.1187 -0.0842
12054W        W31588  14.948  10.638  15.268 -0.1980 -0.3448 -0.1068
12055W        W31589   0.157   7.659  11.568  0.1934  0.0007  0.0467
12056W        W31590   6.863  11.584  14.754  0.0300 -0.1907 -0.0309
12057W        W31591   9.534   7.219  13.702  0.0081  0.1049  0.2865
12058W        W31592   8.874  11.332  11.937  0.0621 -0.1756 -0.4087
12059W        W31593  10.293  17.932  14.315  0.2043 -0.0607  0.2140
12060W        W31594  13.860   9.799   1.632  0.1292  0.0465 -0.0649
12061W        W31595   9.153  15.637  14.504 -0.2515  0.1199  0.3933
12062W        W31596   8.221   8.907  14.774 -0.1355  0.2847  0.1875
12063W        W31597  15.990  10.624  14.441  0.1001  0.2275  0.0446
12064W        W31598   5.475   1.750  13.510  0.0415 -0.1767 -0.0378
12065W        W31599   0.175   7.524  14.276 -0.1201  0.2272 -0.1765
12066W        W31600  16.550   9.144   0.118 -0.0891  0.1871  0.1468
12067W        W31601   3.544  11.831  13.666 -0.1167 -0.0844  0.0837
12068W        W31602  17.581   3.768  10.127  0.2754 -0.0656  0.1811
12069W        W31603  11.344  16.422   3.277  0.0414 -0.1141  0.2395
12070W        W31604  14.732  14.946  13.453 -0.4056 -0.2484 -0.0830
12071W        W31605  10.861   0.903  15.099 -0.0262  0.0242 -0.2974
12072W        W31606  10.195  15.481  13.597 -0.1540 -0.1586  0.1756
12073W        W31607  15.260   9.774   0.264 -0.0446 -0.1250 -0.0436
12074W        W31608   7.575  13.146  15.262 -0.1515  0.0629 -0.0518
12075W        W31609   5.175   0.612   2.461 -0.0949  0.1713 -0.0467
12076W        W31610   9.805  12.987  14.033 -0.1985 -0.0915  0.2233
12077W        W31611  16.200   8.237   0.247  0.4496 -0.1919 -0.0136
12078W        W31612   5.325   4.607  12.853 -0.1994 -0.2615 -0.0099
12079W        W31613   7.722   2.162  11.905  0.3567 -0.0387 -0.0776
12080W        W31614   3.381  14.283   4.085 -0.3946  0.1043 -0.0041
12081W        W31615   0.033  10.732  13.881 -0.0201  0.1246 -0.0689
12082W        W31616  13.910   4.484  14.108  0.1656 -0.2174  0.1370
12083W        W31617  13.806  12.805   4.281  0.0474 -0.3007 -0.2688
12084W        W31618   8.922   5.286   3.118 -0.0532 -0.1524  0.1348
12085W        W31619  10.907   5.944   1.744  0.3574 -0.0642 -0.0119
12086W        W31620  16.085   6.833  12.578  0.1983  0.2824  0.0776
12087W        W31621   8.392   8.766   1.525 -0.0946 -0.1547  0.2560
12088W        W31622   8.994  11.592   4.883  0.2027 -0.1712 -0.1576
12089W        W31623   6.760   5.632   5.208 -0.2142 -0.0458  0.0297
12090W        W31624  13.464   3.084   2.445 -0.1983  0.0649 -0.0942
12091W        W31625   0.390  17.906   4.446 -0.2037  0.0327  0.3233
12092W        W31626  16.043  11.509  12.438 -0.2665  0.2107  0.1559
12093W        W31627   5.560  12.673  12.355 -0.3211  0.2508  0.0017
12094W        W31628   7.901  18.108  15.570 -0.1111 -0.1218  0.0532
12095W        W31629   5.145  17.752  14.022  0.1261 -0.1936 -0.1676
12096W        W31630   6.457   7.480  14.545  0.2768  0.0464  0.1368
12097W        W31631  17.089  12.452   4.833 -0.1490 -0.1343  0.1434
12098W        W31632  15.630  14.345  16.031 -0.0860 -0.0328  0.1172
12099W        W31633   6.643  17.551   3.327  0.0104  0.2592  0.0150
12100W        W31634   7.250  14.977   1.957 -0.2234  0.1959 -0.0462
12101W        W31635  10.329  16.446  13.583 -0.2245  0.0508 -0.2820
12102W        W31636   8.750   6.263  13.341 -0.1067  0.3061  0.0079
12103W        W31637  15.936  11.655  12.941  0.2518  0.0813 -0.0224
12104W        W31638  16.403   5.989  14.433 -0.2366  0.0290  0.1046
12105W        W31639  11.471  10.067  13.566 -0.1937 -0.0137  0.2743
12106W        W31640   8.583   7.175  15.264  0.0210  0.0655  0.3692
12107W        W31641  14.551   1.515   0.896 -0.1921 -0.1370  0.1604
12108W        W31642  15.139  15.592   1.168  0.2470 -0.3503  0.0801
12109W        W31643  10.671  14.740  14.276 -0.3154  0.0032 -0.1934
12110W        W31644  16.903   8.331  11.985 -0.2311 -0.1976 -0.1404
12111W        W31645   7.025  12.074  15.758 -0.1599 -0.1789 -0.0847
12112W        W31646   4.857  14.217   3.009  0.1461  0.0378  0.0016
12113W        W31647   3.826  13.320   4.424 -0.4251 -0.1712 -0.1642
12114W        W31648   5.700  17.344  12.669  0.0616 -0.0169 -0.1837
12115W        W31649   8.881   4.164  10.347 -0.4580 -0.0102  0.0275
12116W        W31650  17.152  17.755   1.064 -0.0473  0.1600 -0.1553
12117W        W31651  14.617  12.203  12.341 -0.0950 -0.0843 -0.0115
12118W        W31652  11.550  17.870   2.401 -0.4497  0.0494 -0.0285
12119W        W31653   8.663   3.889  12.114 -0.0031  0.0051 -0.0052
12120W        W31654   9.772   9.058   2.651  0.0807  0.0810  0.0487
12121W        W31655  14.339   3.277  15.701 -0.1869 -0.1514 -0.1049
12122W        W31656   4.899  14.112  11.491 -0.0193 -0.1563  0.0102
12123W        W31657   6.276   0.241   1.317 -0.0369  0.2950  0.1707
12124W        W31658   3.469   3.212  12.222  0.0417  0.1414  0.0567
12125W        W31659   6.521  12.575   2.408  0.3333  0.0366 -0.3263
12126W        W31660  17.235   8.072   0.500  0.0736  0.1259  0.1193
12127W        W31661   0.156   9.522   1.095  0.1072  0.0974 -0.0126
12128W        W31662   5.280   5.873  13.156 -0.0120 -0.0276 -0.3513
12129W        W31663   4.699   4.443   4.553 -0.0520 -0.3656  0.0916
12130W        W31664   6.974  13.571   2.658  0.2967  0.0600  0.1015
12131W        W31665   3.680   3.500  13.944  0.2015  0.1583  0.0167
12132W        W31666   6.224   7.683  13.660  0.2595  0.3341 -0.0123
12133W        W31667  17.581   0.084   0.556 -0.2139 -0.2438  0.1256
12134W        W31668   5.424   7.783   4.904  0.1306 -0.2248 -0.2066
12135W        W31669   7.716  12.637  12.219 -0.1629 -0.0402 -0.0508
12136W        W31670  15.861   3.045  14.133 -0.1668  0.3242  0.1132
12137W        W31671   3.554   4.681  13.436  0.2240 -0.1233 -0.0123
12138W        W31672  13.882  14.098   4.339 -0.4629  0.1264 -0.4529
12139W        W31673   4.104  13.646  15.692  0.2785 -0.3027 -0.1427
12140W        W31674   7.577  12.216  15.022  0.1161 -0.1006 -0.0953
12141W        W31675   9.147   6.503   4.073 -0.0676  0.2133 -0.0674
12142W        W31676   8.373  15.134   2.111 -0.0005  0.1538  0.2060
12143W        W31677   4.650  16.225  11.370  0.0755  0.2535  0.1488
12144W        W31678   6.206   1.628  12.715  0.2327  0.0472  0.3011
12145W        W31679  17.243  12.839  11.915 -0.1577  0.0461 -0.2019
12146W        W31680   3.954   1.260   1.195 -0.0020  0.1049  0.0101
12147W        W31681   2.061   2.517   0.917 -0.1398 -0.1204  0.0073
12148W        W31682   4.332  14.857   4.859  0.1601  0.3012  0.2141
12149W        W31683  15.043   3.992  11.786  0.4019 -0.0929 -0.3390
12150W        W31684   6.167  13.852  12.091  0.0286  0.0971  0.1496
12151W        W31685   5.558   8.223   3.464  0.3138  0.0641  0.2559
12152W        W31686   0.986   2.838   1.621 -0.0726  0.1055 -0.1093
12153W        W31687   4.272   0.153   4.059 -0.0292 -0.0464  0.0969
12154W        W31688  11.821  11.486   2.434 -0.0707  0.1301  0.1059
12155W        W31689  14.282   8.610  14.155 -0.1349 -0.2529  0.0491
12156W        W31690   4.763  14.386  15.568  0.0733 -0.2819 -0.2462
12157W        W31691   5.180  16.948   0.527 -0.0110 -0.0986  0.2760
12158W        W31692   4.292   5.426  11.725  0.3594 -0.0410 -0.0434
12159W        W31693   0.315  16.536  15.145  0.0293 -0.1897 -0.0728
12160W        W31694   3.535   7.869   0.096  0.1173  0.1565  0.1018
12161W        W31695  13.664   2.599  14.258  0.0025 -0.1224 -0.0420
12162W        W31696  10.160   0.419  12.121  0.0774  0.2793  0.2052
12163W        W31697  17.576   5.869  11.651  0.0392 -0.3567  0.0901
12164W        W31698  17.939  12.754   0.876  0.0984 -0.0256 -0.0083
12165W        W31699  10.719  13.733  12.811  0.3128 -0.3007 -0.4071
12166W        W31700  10.409   1.326  15.184 -0.0357 -0.0569 -0.0028
12167W        W31701  16.801   3.322  11.900 -0.0738  0.2281  0.1768
12168W        W31702  18.024  10.434  12.115  0.1062 -0.2924  0.0676
12169W        W31703   6.674   7.209  15.313  0.0676 -0.0374 -0.2587
12170W        W31704   8.845  12.575  11.902  0.1468 -0.0179 -0.0427
12171W        W31705   9.844   5.595  16.047  0.1377 -0.2288 -0.0107
12172W        W31706   3.320  15.762   0.212  0.3596 -0.0449  0.1212
12173W        W31707  16.304   1.275   4.396  0.0709 -0.0294 -0.0201
12174W        W31708   0.663  10.119  11.526  0.3561 -0.1405  0.2334
12175W        W31709  14.222  16.437  12.435  0.1379  0.2526 -0.0525
12176W        W31710   5.856   5.206   0.307 -0.1845  0.0566  0.0544
12177W        W31711   1.576   2.372  13.128 -0.0214 -0.0035 -0.1998
12178W        W31712   3.784   1.367   0.376 -0.2461 -0.0418  0.1442
12179W        W31713   3.469   9.483   0.802 -0.0880 -0.0388  0.1606
12180W        W31714   9.071  17.875   2.333  0.0055  0.1414 -0.0040
12181W        W31715  13.619  13.594   3.042  0.0430  0.1136 -0.1111
12182W        W31716  10.127  12.140  13.107  0.0744 -0.0388  0.2283
12183W        W31717   1.712   8.278  13.702  0.0561 -0.0679 -0.0676
12184W        W31718   7.561   4.935   4.058  0.0511  0.3149  0.1387
12185W        W31719   8.444  11.232   1.997  0.2967 -0.0036 -0.2023
12186W        W31720  13.757  15.658  10.556 -0.0467 -0.2929  0.2617
12187W        W31721  14.750   9.511   2.659 -0.1648 -0.0725  0.0657
12188W        W31722  10.133   8.144  13.713  0.2315  0.0269  0.0432
12189W        W31723  17.185   5.398  15.563  0.0255  0.0970 -0.0999
12190W        W31724   6.150  10.008   3.098  0.1995 -0.0234 -0.2439
12191W        W31725  11.623  16.046   3.626 -0.2259  0.0966 -0.1096
12192W        W31726  12.441  16.158  15.406 -0.1330 -0.0817 -0.0973
12193W        W31727   0.163  13.886  14.832  0.1266  0.1974  0.3160
12194W        W31728   8.439  15.578  15.247  0.2109 -0.0465 -0.2936
12195W        W31729   4.275   8.606   4.036 -0.0038  0.1019 -0.0938
12196W        W31730  10.059  17.574  16.056 -0.2577  0.0798  0.2370
12197W        W31731   2.126   4.767  13.432 -0.1804  0.0225 -0.1065
12198W        W31732   9.437   5.916   1.542  0.0520  0.0960  0.1698
12199W        W31733   3.990   8.152  15.280 -0.0132 -0.0044 -0.1589
12200W        W31734   7.291  15.798  12.721  0.0022  0.3522  0.1003
12201W        W31735   3.743   5.489   1.196  0.2961 -0.1230  0.1913
12202W        W31736  17.487   6.627  14.292  0.1649  0.1068 -0.0301
12203W        W31737  16.470   0.645   2.937 -0.0681 -0.1439 -0.1092
12204W        W31738   7.324   4.574  12.811 -0.0251  0.2187 -0.0749
12205W        W31739   8.671  11.493  14.905  0.0432  0.2726 -0.1943
12206W        W31740  11.685   7.356   0.883 -0.0356 -0.1556 -0.0818
12207W        W31741  16.086   8.905   2.943 -0.0703  0.0576  0.3068
12208W        W31742   6.213   7.913   4.200  0.1256 -0.3096  0.2500
12209W        W31743  10.321   0.663   0.244 -0.3286  0.1547 -0.1614
12210W        W31744  11.765  17.205  15.966  0.0685  0.0411 -0.1695
12211W        W31745   6.280  15.908   2.428  0.0874 -0.0660 -0.1482
12212W        W31746   5.937   9.081  14.931  0.0680  0.0574 -0.1133
12213W        W31747   2.228   5.825  14.742  0.0750  0.3252  0.2468
12214W        W31748  13.253   0.629   4.541  0.2705  0.1595 -0.0191
12215W        W31749   6.069   4.275   3.541  0.0094  0.1620 -0.0011
12216W        W31750   4.566  16.163   3.406 -0.1430 -0.1548  0.0551
12217W        W31751   9.376   2.571  12.626  0.1974 -0.1192  0.0571
12218W        W31752  15.401   1.572  13.375 -0.3232  0.2390  0.1568
12219W        W31753  11.639   5.190  13.144 -0.0296  0.1087 -0.3431
12220W        W31754  16.965   4.398   2.597 -0.2735 -0.2405  0.0713
12221W        W31755   5.009   3.498  14.636  0.0299  0.1791  0.2970
12222W        W31756   3.591  15.417  14.529 -0.1309  0.0596  0.1380
12223W        W31757   9.066  16.623  15.584 -0.2538 -0.1101 -0.1975
12224W        W31758  17.007   7.441  13.214 -0.3633 -0.0331 -0.1633
12225W        W31759   4.917  15.463   0.732 -0.2884 -0.1112  0.0786
12226W        W31760   1.010  12.368   5.395  0.1763 -0.0350 -0.0149
12227W        W31761   0.295   5.399   4.585 -0.2687 -0.1204 -0.1589
12228W        W31762   1.124  14.505  11.769 -0.1779  0.1219  0.7050
12229W        W31763   7.102  14.179   3.371 -0.1085 -0.0191  0.0095
12230W        W31764   7.151  11.381   3.467 -0.1450  0.3713  0.0164
12231W        W31765  10.543  11.678   0.874  0.0567 -0.0495  0.1436
12232W        W31766   5.143  11.901   2.088  0.2409 -0.3430  0.0178
12233W        W31767   0.445   6.870  11.941  0.0587  0.0219 -0.0287
12234W        W31768  12.303  10.167   3.774  0.1555  0.1425  0.2896
12235W        W31769  14.898   5.893   4.281  0.1436  0.1135  0.3611
12236W        W31770   2.775   7.683   4.017 -0.0311 -0.3953  0.0413
12237W        W31771  16.672   1.001   1.927 -0.3257 -0.0847 -0.0113
12238W        W31772  10.404  11.675   2.523 -0.0877 -0.0977  0.4774
12239W        W31773  15.230   3.497  14.796 -0.0055 -0.1505 -0.1829
12240W        W31774  14.395   8.659  13.369 -0.1381  0.2519  0.1349
12241W        W31775   9.763  12.162   4.520  0.2229 -0.0216 -0.0848
12242W        W31776   9.378  16.560  13.639  0.0817 -0.0147  0.1817
12243W        W31777   7.288  10.381  13.627 -0.0843  0.0097 -0.1269
12244W        W31778  16.504  14.257   3.673 -0.3094  0.0535  0.0580
12245W        W31779   2.196  12.362   0.955 -0.0218 -0.1244 -0.2928
12246W        W31780   8.818   6.814   3.765  0.1009  0.3279  0.4393
12247W        W31781  11.396  10.853  13.170  0.1190 -0.0809 -0.2044
12248W        W31782  13.407  10.073   0.871 -0.1504 -0.0191 -0.0989
12249W        W31783  16.167  15.900  12.357 -0.0758 -0.1620 -0.1492
12250W        W31784   5.761  16.857   2.119  0.1633 -0.0504  0.1042
12251W        W31785   0.707   2.218  13.935 -0.2766 -0.1404 -0.1225
12252W        W31786   7.012   0.097   1.983 -0.0516  0.1456 -0.3140
12253W        W31787  17.822  12.269  15.960  0.0850  0.0465  0.1151
12254W        W31788   4.005   7.682   1.087 -0.0072 -0.1453  0.1761
12255W        W31789   9.292   9.263   1.181 -0.0285  0.0554  0.3242
12256W        W31790  16.959   7.501   0.357  0.5156 -0.0903 -0.0594
12257W        W31791  17.594  17.291   0.346 -0.0188 -0.2617 -0.0227
12258W        W31792   6.428   3.926   0.001 -0.1284 -0.0993 -0.0824
12259W        W31793   7.590  14.112   2.342  0.1705 -0.0545 -0.0265
12260W        W31794  10.334   5.520  12.844  0.1507 -0.0578 -0.3168
12261W        W31795  14.278  12.623   3.864  0.0469 -0.0578 -0.0400
12262W        W31796   3.096   5.467  12.741 -0.0370 -0.1946  0.0522
12263W        W31797   3.983  12.746   4.331  0.1416 -0.0224  0.0515
12264W        W31798  15.408   1.141   2.880 -0.0893 -0.1626  0.2090
12265W        W31799  16.972   3.322  11.006 -0.3200  0.1187 -0.0080
12266W        W31800   9.282   8.368   1.278  0.1227  0.0188 -0.0931
12267W        W31801   2.412  14.548   3.076 -0.3314 -0.2110  0.0956
12268W        W31802   3.295  12.602  15.129 -0.3311  0.0258  0.1198
12269W        W31803   0.354  12.245   1.450  0.1772 -0.1281 -0.2685
12270W        W31804   3.823  16.921   0.128 -0.0555 -0.0471  0.1583
12271W        W31805   4.324   1.199  15.336  0.0790  0.1675  0.0921
12272W        W31806   7.519  10.934  15.120  0.2389  0.4870 -0.0418
12273W        W31807  13.298   8.813  14.225 -0.1392 -0.0109  0.1286
12274W        W31808   5.899   4.139   2.405 -0.1325 -0.2509  0.0424
12275W        W31809   9.841   7.802   2.505  0.0368 -0.0829 -0.1083
12276W        W31810  15.583   9.761  13.905 -0.2268  0.2635 -0.1738
12277W        W31811   2.088   3.338  14.770 -0.0617 -0.2220 -0.1615
12278W        W31812   2.493   1.575   5.452  0.1220  0.1260  0.0684
12279W        W31813   4.010   4.515  12.493  0.1220  0.0625 -0.0558
12280W        W31814   6.455   9.021   2.734  0.1359  0.3699 -0.0359
12281W        W31815   9.330   5.607  14.090 -0.1761 -0.2043  0.0069
12282W        W31816  13.776   1.782   0.365  0.1536 -0.0086 -0.1642
12283W        W31817   3.846  11.703  15.570 -0.0755 -0.1051  0.0595
12284W        W31818   2.700   6.773   0.071  0.0207  0.0842 -0.2519
12285W        W31819   0.121   8.108   1.500  0.3472  0.2059 -0.0758
12286W        W31820  10.145  16.273  12.477  0.0917  0.1902  0.0282
12287W        W31821  14.661  15.993   3.217  0.1026 -0.1533  0.0710
12288W        W31822   5.193  12.989  14.903  0.1721  0.0078 -0.1722
12289W        W31823  13.191  11.083   3.860 -0.1616  0.0656 -0.3936
12290W        W31824  14.243   1.579   1.762  0.0622  0.0984 -0.1118
12291W        W31825   3.308   6.076   2.765  0.3270  0.1837 -0.1071
12292W        W31826   3.380  13.128  14.342  0.2539 -0.0950 -0.0204
12293W        W31827  14.604  16.731   1.171 -0.2178 -0.1460  0.2549
12294W        W31828   8.456   4.889  12.057  0.0723 -0.1403  0.1083
12295W        W31829   0.271   4.539   2.793 -0.2198  0.0287  0.0123
12296W        W31830  12.941   3.783  14.700  0.1900  0.0367 -0.0468
12297W        W31831   1.055   7.075  15.979  0.1601 -0.1787  0.0328
12298W        W31832   7.986  17.710   2.387 -0.0182 -0.3101 -0.1011
12299W        W31833   7.785  11.309  12.468 -0.3045  0.0503 -0.2740
12300W        W31834   1.275  13.143  12.935 -0.1967  0.1775  0.0764
12301W        W31835  13.156  15.862   0.513 -0.0616 -0.1376 -0.2172
12302W        W31836  17.193  14.336   0.045  0.1417 -0.4070 -0.2626
12303W        W31837  10.738   0.900   0.914 -0.2371  0.2588  0.0266
12304W        W31838   7.885   8.806  13.566  0.1112 -0.0185  0.0124
12305W        W31839  13.841   2.934  11.782  0.1546  0.4397 -0.2873
12306W        W31840  16.752  12.951  11.892  0.0340 -0.3608  0.1387
12307W        W31841   2.142   5.851  13.682  0.0461  0.1933  0.1895
12308W        W31842   4.090  10.141  12.583  0.1206  0.4979 -0.1394
12309W        W31843  15.037  14.636  13.814 -0.2491 -0.2249  0.2263
12310W        W31844   0.513   7.868  12.666 -0.0633 -0.1375  0.0420
12311W        W31845  11.596  11.442   0.398  0.0517  0.2423  0.1297
12312W        W31846   8.247   9.133  13.361  0.1913 -0.3613  0.0310
12313W        W31847   7.174   3.005  12.506  0.0210  0.1009  0.2655
12314W        W31848   0.541   1.549   3.428 -0.3253  0.0115 -0.1285
12315W        W31849   7.908  11.407   2.282 -0.0043  0.1089  0.1276
12316W        W31850   8.624   4.153  11.687  0.3158  0.2262  0.2289
12317W        W31851  11.555  13.283  14.650 -0.2700  0.2189  0.0883
12318W        W31852   2.407  16.036   3.294  0.1740  0.2735 -0.2793
12319W        W31853   4.944   7.949   1.857  0.0840  0.1804 -0.2867
12320W        W31854  15.749  13.256   1.355 -0.1636 -0.1126 -0.1549
12321W        W31855  10.966  13.906   2.520 -0.2252  0.0280  0.1864
12322W        W31856   9.507   3.444   4.333  0.1287 -0.0718 -0.1140
12323W        W31857   5.732  10.596   2.678 -0.1306  0.1417  0.0225
12324W        W31858  12.438   5.501   0.866 -0.0493 -0.0597  0.3738
12325W        W31859   7.953  13.820  13.160  0.1816  0.4850  0.2964
12326W        W31860   4.256   1.361   3.552 -0.1247  0.2211  0.3497
12327W        W31861  17.637   6.093  15.781  0.0030  0.1513 -0.1626
12328W        W31862  13.256   9.545   2.988 -0.0235  0.1670  0.2956
12329W        W31863  10.740   7.480  11.204 -0.2670 -0.2903  0.3248
12330W        W31864  16.394   7.656   0.846  0.0231 -0.0717  0.2322
12331W        W31865  10.245  11.081  14.628 -0.2272 -0.0320  0.0632
12332W        W31866   8.804  11.476   1.154  0.0545 -0.1986  0.1034
12333W        W31867  12.113  16.097   0.821  0.0562  0.3818  0.4172
12334W        W31868   1.493  15.680   0.501 -0.0948 -0.1263 -0.0151
12335W        W31869   0.450  11.347  15.687  0.1254 -0.1319  0.1319
12336W        W31870  14.362   9.870   1.714  0.1427 -0.1771  0.0601
12337W        W31871   7.078  16.874   3.746  0.1817 -0.2191 -0.0868
12338W        W31872   5.318   6.549   0.686  0.4233 -0.1576  0.0638
12339W        W31873   5.210  17.897   2.915  0.1722  0.1476 -0.3770
12340W        W31874  11.984   9.269  14.250  0.2700  0.0077 -0.2557
12341W        W31875   5.225   2.767   1.245  0.0527  0.1282  0.0801
12342W        W31876   9.904  14.091   2.544 -0.2967  0.3045  0.1447
12343W        W31877  17.013   3.008   3.690 -0.1168  0.0267 -0.1238
12344W        W31878  15.881   1.314   4.044  0.0609  0.3115  0.1369
12345W        W31879   9.753  14.385   1.175 -0.1287  0.0457  0.0691
12346W        W31880   9.891   3.620  13.025  0.0176  0.2453 -0.1341
12347W        W31881  13.623   9.104   2.030 -0.2076  0.0094  0.2947
12348W        W31882   6.946   1.326   4.277  0.0045  0.1034  0.1664
12349W        W31883   8.521  15.394  15.754 -0.0364 -0.0249 -0.0625
12350W        W31884  16.827  12.485  13.627 -0.0353 -0.0182 -0.0563
12351W        W31885  16.578   4.683   2.965  0.1060  0.0548 -0.2774
12352W        W31886   3.619  12.314  14.928  0.1042  0.2244  0.1464
12353W        W31887   7.513  12.013  16.010 -0.0860 -0.1277 -0.0179
12354W        W31888   5.230   9.638   2.413 -0.0671  0.2430 -0.2387
12355W        W31889   4.062  17.715   4.599  0.2373  0.3872 -0.0194
12356W        W31890  16.729   2.632   3.583  0.1484 -0.0898 -0.1235
12357W        W31891  13.579  16.358  13.235  0.0560 -0.1289  0.1399
12358W        W31892  10.070   6.477  13.479 -0.0789  0.1664  0.2374
12359W        W31893  14.255  16.613   4.544 -0.2231  0.1014  0.0578
12360W        W31894  10.303   0.771  12.438  0.0489 -0.1000 -0.0720
12361W        W31895   4.228   2.179   3.474  0.0556  0.1306  0.1509
12362W        W31896  14.949   8.581  14.628 -0.0077  0.0598 -0.0375
12363W        W31897  11.291  16.320  14.861 -0.1454  0.1511  0.2545
12364W        W31898   0.160  13.982   1.095 -0.2404 -0.2288  0.1600
12365W        W31899  12.960  13.315   3.913 -0.4780  0.1079 -0.1274
12366W        W31900   0.348   6.785  14.677  0.3204 -0.0265 -0.1154
12367W        W31901   8.972   8.029  15.197 -0.0901  0.0517  0.1329
12368W        W31902   2.244  12.766   3.072  0.0982 -0.1544 -0.1096
12369W        W31903   5.172   9.561  10.117  0.0602 -0.0671 -0.1096
12370W        W31904   8.509  12.575   1.810  0.0555  0.0092  0.1735
12371W        W31905  13.554   7.235  15.536 -0.0124  0.0149 -0.2235
12372W        W31906   2.592   9.587   0.550  0.3750  0.0924 -0.0003
12373W        W31907   8.372  13.366  11.729 -0.2195  0.0999 -0.0816
12374W        W31908   1.955   6.926   0.386 -0.0111 -0.0603 -0.0859
12375W        W31909  16.808  12.455  11.745 -0.0634  0.0767  0.2466
12376W        W31910  10.994  14.048   3.028 -0.1262  0.2110 -0.0201
12377W        W31911   9.516  12.161  15.100  0.0373  0.2899  0.1894
12378W        W31912   6.820  11.578   3.759 -0.1703 -0.2866 -0.1477
12379W        W31913  11.386   5.081   0.689  0.0107 -0.0423 -0.0140
12380W        W31914   7.012  16.908   0.665 -0.0669 -0.1069  0.1615
12381W        W31915   6.047  14.808  13.394 -0.1588  0.3488 -0.2538
12382W        W31916  17.806   4.235  12.502 -0.2151  0.2180 -0.0341
12383W        W31917   5.444  13.571   1.662  0.0719 -0.0132 -0.2142
12384W        W31918   5.846   9.474   0.151 -0.2269 -0.1085 -0.2504
12385W        W31919  16.465  16.420   1.398  0.2197 -0.1540  0.2925
12386W        W31920   3.371   1.912  12.278 -0.0803 -0.2765  0.0458
12387W        W31921   3.289   2.157   4.122  0.1651  0.2564 -0.1689
12388W        W31922  11.678   7.937  14.780  0.2938  0.1279  0.0042
12389W        W31923   2.231   7.523  14.722 -0.3289 -0.0013  0.1030
12390W        W31924   5.360  10.525   0.605  0.3109  0.1032  0.1133
12391W        W31925  17.938   7.114  15.577 -0.0482  0.0505 -0.1019
12392W        W31926  11.729  12.930   0.010 -0.2503 -0.0028  0.1359
12393W        W31927   0.410   4.882   4.668 -0.0023  0.3220  0.2001
12394W        W31928  14.170   1.835   0.015  0.0697  0.2177 -0.0810
12395W        W31929  12.382  10.572  12.440  0.2167  0.0434 -0.2324
12396W        W31930   4.385   0.299   1.994  0.0152 -0.1082  0.1657
12397W        W31931  13.004   6.607   1.989 -0.0811 -0.3149  0.1218
12398W        W31932  14.440  15.176   3.552  0.0446 -0.0587 -0.0756
12399W        W31933   9.698  14.984   3.482  0.1628 -0.1586 -0.1236
12400W        W31934   3.907   6.146   0.817  0.0763 -0.0148 -0.0950
12401W        W31935  10.355  16.161  13.987 -0.0242 -0.2645 -0.0473
12402W        W31936  17.852  16.903  12.199 -0.1769  0.1604  0.0819
12403W        W31937   5.431   2.365  14.352 -0.2757 -0.1477  0.3008
12404W        W31938   5.887  12.937  13.227  0.0413  0.1002  0.4126
12405W        W31939   0.815   6.224   0.127 -0.0506  0.0677 -0.0841
12406W        W31940  14.152  14.372   4.001 -0.0323  0.3680 -0.1835
12407W        W31941   0.370   5.647   1.419 -0.0481  0.0486 -0.0333
12408W        W31942   3.890  10.378   2.309 -0.2069  0.0526 -0.0599
12409W        W31943   8.089   3.681   1.961  0.0841  0.0820  0.0964
12410W        W31944   2.911  11.980  15.769 -0.1291  0.0454 -0.1072
12411W        W31945   4.859   9.343   1.495 -0.1901  0.0241 -0.1356
12412W        W31946  10.436   1.954  15.930  0.1804  0.0233 -0.0580
12413W        W31947  14.623   2.885   3.750  0.1395  0.0619 -0.2082
12414W        W31948   6.018  15.726   3.269  0.1888  0.2660  0.0996
12415W        W31949   4.204   7.813  12.875 -0.0496 -0.0859 -0.1910
12416W        W31950  16.017  10.858  16.032  0.2254 -0.1092  0.1552
12417W        W31951   5.973   6.679  10.995 -0.1111  0.0254 -0.2595
12418W        W31952   2.221  11.322   0.059  0.0543 -0.0956 -0.0023
12419W        W31953   8.319   2.640   0.167  0.0797  0.0087  0.1272
12420W        W31954  16.323   9.113  11.671 -0.1829  0.1419 -0.1022
12421W        W31955  17.582  12.323   2.383  0.1761 -0.0727 -0.1015
12422W        W31956   3.791  14.017  14.024 -0.1682  0.3502 -0.0626
12423W        W31957   8.541  13.378  14.325 -0.0878 -0.2239  0.0570
12424W        W31958  14.091   6.723  15.613 -0.0129 -0.0865 -0.0440
12425W        W31959   1.451   4.316  12.784  0.0411 -0.1840  0.1829
12426W        W31960   5.023  13.459  14.953  0.1518 -0.0183  0.1304
12427W        W31961   3.990   6.747   0.714 -0.1164 -0.0366  0.3223
12428W        W31962  10.614   3.510   2.807  0.0481  0.0792 -0.0761
12429W        W31963   0.957   6.122   3.502  0.1392 -0.1387  0.1360
12430W        W31964   9.103  15.064   0.445  0.0937 -0.1811 -0.0942
12431W        W31965  17.951   9.386  15.040  0.0715  0.1941 -0.1196
12432W        W31966  17.114   0.951   3.884 -0.0316  0.0522  0.0423
12433W        W31967   7.004   5.196  13.944  0.1654 -0.2636  0.1523
12434W        W31968   6.451   9.165  15.571 -0.2077  0.0699  0.0781
12435W        W31969  11.687   8.684   1.646  0.2045  0.2410  0.2502
12436W        W31970   9.546   1.669   2.461 -0.3841 -0.0540  0.0406
12437W        W31971   4.372   5.854  14.955  0.1686 -0.0930 -0.3011
12438W        W31972   5.587   3.565   4.204 -0.2749  0.2353 -0.1852
12439W        W31973   4.040   8.972  14.899 -0.0797 -0.0221  0.1729
12440W        W31974  10.790   1.313   2.019 -0.1394  0.4075 -0.0883
12441W        W31975  11.521   4.407   3.601  0.1764  0.1177  0.2873
12442W        W31976  10.065   8.672   1.627 -0.2463 -0.0809  0.3685
12443W        W31977   3.119   2.927  15.334  0.0129 -0.2133  0.4415
12444W        W31978   4.488  14.021  11.836 -0.1418 -0.2133 -0.2284
12445W        W31979   0.535  15.750  12.953  0.1906 -0.1728 -0.1818
12446W        W31980  13.228   2.124  15.940 -0.1727  0.0915 -0.2705
12447W        W31981  18.121   5.631  11.620 -0.1645 -0.0692  0.1985
12448W        W31982  15.465   7.070  13.255  0.1032 -0.2916  0.1009
12449W        W31983   5.118  16.502  15.047 -0.0888  0.0720 -0.0220
12450W        W31984  17.586  13.884  14.107  0.0146 -0.0577  0.1530
12451W        W31985  14.042  15.374   4.815 -0.0318  0.0820 -0.0468
12452W        W31986   5.208  16.104  13.101  0.0802  0.1496  0.3484
12453W        W31987   0.461  10.104  14.401 -0.1470  0.2233  0.0896
12454W        W31988   2.383   7.755  10.375 -0.0753  0.2323  0.5910
12455W        W31989  16.696   5.361   4.238 -0.0060  0.1707  0.0404
12456W        W31990   6.444   0.048  13.233 -0.2981 -0.3008 -0.0459
12457W        W31991   0.828   9.170   0.549  0.0543 -0.1546 -0.1489
12458W        W31992   4.722  13.886   1.661  0.0114 -0.3141  0.0039
12459W        W31993   1.933  14.088   4.103 -0.0925 -0.2106  0.0913
12460W        W31994  11.917  10.587  11.854  0.4673 -0.1216  0.0935
12461W        W31995   3.641  17.698   0.733 -0.0367  0.1582  0.0387
12462W        W31996  10.236   4.038  15.379  0.1518  0.0447  0.1223
12463W        W31997  18.051   7.771   4.378  0.0108 -0.0393  0.1970
12464W        W31998  16.948   4.295   1.852  0.0431 -0.0846  0.0091
12465W        W31999  14.640  12.718  11.696  0.1114  0.0676 -0.1171
12466W        W32000   7.845  17.938   1.905 -0.0082 -0.0802  0.0694
12467W        W32001  15.907   6.095   4.499 -0.0924  0.1591 -0.2684
12468W        W32002   3.478   5.199  15.851  0.0609  0.0501 -0.0341
12469W        W32003   4.821  10.437   2.684  0.0273 -0.1874  0.0034
12470W        W32004   4.478   8.405   4.417 -0.0744 -0.2803 -0.2445
12471W        W32005   5.988   1.083   0.611  0.2371 -0.1473 -0.1090
12472W        W32006   3.999  11.904   2.127  0.1631 -0.0705 -0.2972
12473W        W32007  15.583  11.738  12.046  0.1051  0.1856  0.2008
12474W        W32008   1.042  14.314  14.605  0.1301  0.2020  0.0842
12475W        W32009  12.185   1.278   3.263 -0.1444 -0.2653 -0.0332
12476W        W32010   6.863  17.207  15.741  0.3231  0.2746  0.0938
12477W        W32011  14.275  17.171   1.369  0.0033 -0.0932  0.0802
12478W        W32012  16.802  15.422  13.717 -0.0135 -0.1085  0.0322
12479W        W32013  16.623   7.505   1.244  0.1315 -0.2911  0.1167
12480W        W32014  16.120   1.781  14.515 -0.2403  0.1886 -0.1412
12481W        W32015   8.494   3.541   2.788 -0.1172 -0.1707 -0.0493
12482W        W32016  16.692   0.699   1.437  0.0583  0.1320 -0.0880
12483W        W32017  16.503   2.691   1.166 -0.0875 -0.0491 -0.0796
12484W        W32018   1.303   6.178  11.337  0.0031 -0.2154 -0.2037
12485W        W32019   0.046  13.576   1.395  0.1414 -0.1766 -0.2246
12486W        W32020  17.445  17.488  15.020  0.0461  0.1918  0.0872
12487W        W32021   3.109  10.681   4.583  0.0985  0.0898  0.0326
12488W        W32022  10.174   1.537  14.153 -0.5675  0.1037 -0.0844
12489W        W32023   1.905   7.684  12.969  0.1058 -0.0516 -0.0681
12490W        W32024   9.548  15.364   1.814 -0.0064  0.0247  0.0734
12491W        W32025  14.714   0.797  15.207  0.1920  0.1239  0.1269
12492W        W32026   8.418   7.147  13.482 -0.0049 -0.0896 -0.3401
12493W        W32027   5.186  16.054  13.988 -0.2443  0.1992  0.0207
12494W        W32028   9.978   9.437   2.944 -0.2082 -0.2470 -0.1668
12495W        W32029   4.044  12.527   3.519  0.1034 -0.0323  0.0968
12496W        W32030  10.853   7.462  11.882  0.0561  0.3653 -0.1605
12497W        W32031  17.440  17.843  15.375  0.1407 -0.0449 -0.0446
12498W        W32032   0.787   2.791  12.648  0.2003 -0.2408  0.2714
12499W        W32033  10.739   1.281   3.073 -0.0041 -0.0335  0.1314
12500W        W32034  12.397  15.565  12.962  0.0449 -0.1832 -0.1337
12501W        W32035  12.804   4.876   0.001 -0.0936  0.2199 -0.4960
12502W        W32036   9.737   0.624  15.630 -0.0473 -0.0372  0.0853
12503W        W32037  10.097  15.592   2.949 -0.0870  0.1905  0.2123
12504W        W32038  11.217   6.252   1.487 -0.0599 -0.2855 -0.0484
12505W        W32039  14.885   4.813  12.447 -0.2007 -0.2633  0.2543
12506W        W32040  17.952  14.311   2.671 -0.1558  0.0101 -0.2159
12507W        W32041   4.699  12.565  14.566 -0.1241 -0.3683  0.1807
12508W        W32042  14.460   7.313  12.765  0.1073 -0.1065  0.0758
12509W        W32043   3.294  13.430   1.242  0.0368  0.2509  0.2773
12510W        W32044  13.797  14.544  13.517 -0.1111 -0.1072 -0.1683
12511W        W32045   1.346  12.723  13.537  0.1784  0.3269  0.1621
12512W        W32046  12.765  16.437   3.119  0.2575  0.1433 -0.0824
12513W        W32047  12.543  11.741   4.414 -0.1715 -0.2009  0.1184
12514W        W32048  12.979   9.523  15.332  0.1107  0.1157 -0.1190
12515W        W32049  16.779   1.438  15.041 -0.0943  0.1888  0.2150
12516W        W32050   4.431  17.670   1.668 -0.3973  0.1286 -0.0212
12517W        W32051   7.055  12.906   2.012  0.2488  0.2441 -0.2454
12518W        W32052   1.779   2.383  15.196  0.0312  0.0987 -0.0003
12519W        W32053   7.196  11.828   3.964  0.1733 -0.2083  0.0292
12520W        W32054   3.482  12.409   4.277  0.1065  0.1775  0.1805
12521W        W32055  17.242   3.355   4.462  0.2304  0.1582 -0.1882
12522W        W32056   8.245  14.917   0.889 -0.0030 -0.0179 -0.1644
12523W        W32057   4.298   9.358  12.329  0.1226  0.1473 -0.1077
12524W        W32058  11.694   7.632   4.227  0.0862 -0.0408  0.2044
12525W        W32059   5.528  12.235   3.507 -0.2679 -0.0149  0.3825
12526W        W32060   5.459   7.918  11.687 -0.0268 -0.0875  0.0934
12527W        W32061  13.390  17.978  12.984  0.0954  0.1521  0.0067
12528W        W32062   7.726   3.173  13.262  0.1431  0.0368  0.2626
12529W        W32063  13.098   2.152  15.481  0.0343  0.1048  0.1148
12530W        W32064  10.505  16.589   1.072 -0.0476 -0.0964 -0.0538
12531W        W32065   6.654  10.767   5.991  0.1702  0.0964 -0.0389
12532W        W32066   5.388  17.962  11.829  0.3199 -0.5282 -0.1243
12533W        W32067   8.672   9.415  13.334 -0.1506  0.2494 -0.0747
12534W        W32068  13.111  17.709  13.569 -0.0283 -0.2590  0.2109
12535W        W32069   5.707   8.078   2.509  0.4840  0.1310  0.0338
12536W        W32070  13.527  11.785   2.861 -0.0217 -0.2389  0.0751
12537W        W32071   9.026   8.722   4.992  0.3081 -0.1806 -0.0246
12538W        W32072  16.637   2.388  15.744  0.0824 -0.0645 -0.0041
12539W        W32073  10.936   0.338   1.540  0.2028 -0.0008 -0.1439
12540W        W32074  16.370   4.415   2.593 -0.0874 -0.1751 -0.0837
12541W        W32075   6.079  11.557   0.513  0.2027 -0.0043 -0.2298
12542W        W32076   5.620   7.320   2.861 -0.1385 -0.1649  0.0407
12543W        W32077  16.656  15.001  12.245  0.0492 -0.3052  0.0495
12544W        W32078   7.597   1.693  14.964 -0.0168 -0.0687  0.2469
12545W        W32079   5.344  13.868  11.620  0.1566 -0.1215  0.1842
12546W        W32080  12.222  10.985  15.766  0.1918  0.1139  0.1096
12547W        W32081   8.152   3.550  11.660  0.0978 -0.1300  0.1516
12548W        W32082  12.912   8.980   1.174 -0.0438 -0.1779 -0.0943
12549W        W32083  16.084   9.086   1.968 -0.2842  0.3015 -0.0526
12550W        W32084  13.077   1.952   0.383  0.0751  0.3859 -0.2001
12551W        W32085  13.005  17.767  11.972 -0.1591 -0.2965  0.0775
12552W        W32086   3.610   0.971  12.379 -0.3215 -0.0984  0.0238
12553W        W32087  13.581   9.394   4.646  0.2186  0.0289  0.3161
12554W        W32088   4.795   5.334   2.289 -0.0925 -0.2024 -0.0964
12555W        W32089  10.452  16.294  12.114 -0.2576 -0.2272 -0.3276
12556W        W32090   8.640   7.678  13.459 -0.2512 -0.0010  0.0511
12557W        W32091  14.047  16.616  14.680 -0.2817  0.2891 -0.1709
12558W        W32092   8.512   0.539  12.687  0.3437  0.2276 -0.1427
12559W        W32093   6.183  13.548  16.030  0.1669 -0.0082 -0.0079
12560W        W32094  13.711  11.924   3.829  0.0163 -0.1281  0.0208
12561W        W32095   5.541  18.034   3.832  0.1020  0.0916  0.0817
12562W        W32096   4.934   0.468   3.327  0.1395  0.1038 -0.0959
12563W        W32097   0.423  14.085  12.127  0.0682 -0.3668  0.4544
12564W        W32098  14.639   2.033   0.849  0.0997 -0.0427  0.0150
12565W        W32099  14.762   0.667   3.261  0.1522  0.0443  0.0970
12566W        W32100   1.951  12.742  15.579  0.1464 -0.0678  0.1914
12567W        W32101   3.088   0.765   4.212 -0.2574  0.1510 -0.1507
12568W        W32102  12.336   2.158  13.589 -0.0542 -0.1324  0.0160
12569W        W32103   0.173  17.313  14.923 -0.2015  0.1100  0.1685
12570W        W32104   6.126   9.604   1.426  0.2543 -0.0638 -0.1857
12571W        W32105  10.995   7.641  12.910  0.3138 -0.2579 -0.1056
12572W        W32106  12.261  10.232  12.011 -0.0182  0.1994  0.1398
12573W        W32107   8.711   6.327   3.606 -0.0728  0.1626 -0.0171
12574W        W32108   0.874   1.618   2.976 -0.0100 -0.2145 -0.3386
12575W        W32109   2.385  16.534   2.029 -0.0188  0.0177 -0.1719
12576W        W32110  13.963  13.223   0.197 -0.0755  0.1503 -0.4069
12577W        W32111   0.040   7.178  12.819  0.4813 -0.0067  0.0471
12578W        W32112   2.835  10.790  12.000  0.0759  0.0981  0.2742
12579W        W32113   5.163  16.361  15.510 -0.2640 -0.0826 -0.2895
12580W        W32114   2.643   8.500  13.685 -0.2478  0.1414 -0.1067
12581W        W32115  13.675   0.134  13.799 -0.2514  0.0139 -0.0644
12582W        W32116   2.953  17.639  15.510  0.0067  0.5005  0.1364
12583W        W32117  16.614   8.263  14.292 -0.1424  0.3442  0.1398
12584W        W32118  11.822  16.990   0.335  0.1237  0.1338 -0.1186
12585W        W32119  17.473   0.723   3.665  0.0615 -0.3046  0.1060
12586W        W32120   1.550   8.775  12.198  0.1369  0.0878  0.1481
12587W        W32121   8.814   6.073   0.987  0.0375 -0.1747 -0.1614
12588W        W32122   4.504   7.724  11.359  0.3232 -0.0867  0.0060
12589W        W32123   0.681   0.759  12.354  0.0388  0.0878  0.1983
12590W        W32124  16.987  10.986   2.619 -0.0878  0.0922  0.3760
12591W        W32125   5.371  16.868  11.187 -0.0556 -0.1353 -0.2114
12592W        W32126   0.643   6.844   5.481 -0.0062  0.2976 -0.1385
12593W        W32127   6.932   0.117  12.500  0.1361  0.0831  0.1058
12594W        W32128   0.197  12.672  12.122 -0.2427  0.2623 -0.2297
12595W        W32129   2.189  10.433  13.810 -0.0639  0.1028 -0.0009
12596W        W32130  15.031   1.625   0.841 -0.1309  0.0142  0.2323
12597W        W32131  15.616   5.638   2.127  0.0944 -0.1967  0.0457
12598W        W32132  10.641  17.080   1.551 -0.1561 -0.2647  0.1031
12599W        W32133  11.150   6.849  13.015 -0.0068 -0.0093  0.0572
12600W        W32134   4.847   2.788  10.763  0.0698  0.0505 -0.1722
12601W        W32135  17.626  10.683   3.143  0.1600  0.0407 -0.2710
12602W        W32136  12.787   5.722  14.347  0.1368 -0.2361 -0.1148
12603W        W32137  14.878   3.739   4.424 -0.2421  0.0711 -0.3911
12604W        W32138   8.966  16.748  16.058 -0.1009  0.0111  0.0291
12605W        W32139   8.466  12.827   1.372 -0.0680 -0.2940 -0.1529
12606W        W32140   5.616   7.041   4.147 -0.3976 -0.1995  0.0522
12607W        W32141   3.555   7.036   1.250  0.0343  0.0552  0.3697
12608W        W32142  15.062  13.282   4.675 -0.1497  0.0458 -0.2681
12609W        W32143   8.894   0.395   1.082  0.0736 -0.4154 -0.1493
12610W        W32144  10.990  12.317   1.494 -0.1439  0.0370  0.1573
12611W        W32145   8.395  10.638   4.194 -0.1737 -0.4035  0.0742
12612W        W32146  13.221  12.109   3.956 -0.2965  0.0671  0.0380
12613W        W32147   1.730   0.545  15.633 -0.2816 -0.1473 -0.2566
12614W        W32148   1.606  11.984  12.149  0.1124 -0.1205 -0.0329
12615W        W32149  16.326   9.997  12.654 -0.1160  0.1010 -0.0351
12616W        W32150   6.315  10.329  11.960 -0.0914  0.1766  0.1451
12617W        W32151   6.583   1.332  12.872 -0.0548  0.0001 -0.0887
12618W        W32152   2.146  15.712   1.016  0.1634  0.2753 -0.2500
12619W        W32153  17.560   4.712  14.272  0.0882 -0.1821 -0.0768
12620W        W32154   0.046  12.011   2.351 -0.0290 -0.1425 -0.1416
12621W        W32155  10.990   5.348   0.934  0.2142  0.0543  0.1156
12622W        W32156  13.633  11.993  13.633 -0.2241 -0.3635 -0.0422
12623W        W32157   6.927  10.838  15.063  0.2340 -0.2232  0.0238
12624W        W32158  13.843   1.573  14.360  0.0973 -0.1193 -0.1027
12625W        W32159   5.927   6.424   0.205  0.0420 -0.0613 -0.0968
12626W        W32160  11.561  14.614   4.805 -0.1942  0.2580 -0.1597
12627W        W32161  10.218   5.930   2.935  0.7339 -0.1553 -0.0894
12628W        W32162  15.068   5.281   1.479 -0.0330 -0.1830  0.0949
12629W        W32163  12.560   1.396  12.908  0.0137 -0.1024  0.1390
12630W        W32164   0.462   7.348  11.926 -0.4086 -0.3254  0.1157
12631W        W32165   7.466  11.172   3.134  0.3136  0.2197  0.0993
12632W        W32166  15.680   8.211   0.933 -0.1527  0.2172  0.1017
12633W        W32167   6.288  13.805   4.425 -0.1998  0.0703 -0.3864
12634W        W32168  15.349   3.304   2.976 -0.1973 -0.0610 -0.1521
12635W        W32169  11.647   6.187   2.992  0.2399 -0.1267  0.1685
12636W        W32170   3.385   5.747   0.620 -0.2430  0.0849 -0.1916
12637W        W32171  12.937   6.239   1.462  0.0772 -0.0161 -0.0864
12638W        W32172  15.671   7.858  13.801 -0.0350 -0.2577  0.1273
12639W        W32173  13.479   9.600  14.437 -0.0676 -0.0257  0.3331
12640W        W32174   7.578  13.465   1.134  0.0709 -0.0949  0.1265
12641W        W32175  13.663  10.792  13.683 -0.0110  0.4540 -0.1350
12642W        W32176   8.426  12.358  11.622 -0.3339 -0.1556 -0.2105
12643W        W32177   4.465  12.680   1.787  0.2200 -0.0283 -0.1996
12644W        W32178   0.738   0.045   2.075 -0.3477  0.0342 -0.1438
12645W        W32179   9.977   4.296   2.289 -0.1635 -0.0492  0.2627
12646W        W32180   1.173   2.932   2.305  0.0707 -0.0555  0.0826
12647W        W32181   5.665   3.898  14.268  0.1535 -0.0755 -0.0968
12648W        W32182  12.979   6.188  14.141  0.1486  0.1303  0.1480
12649W        W32183  14.892   9.755   1.070  0.3361 -0.2224  0.2159
12650W        W32184   8.393  13.640   3.098 -0.5603  0.2818 -0.1776
12651W        W32185   4.011  13.295  11.923  0.2345 -0.2159  0.0172
12652W        W32186  13.530  15.151  10.706 -0.0931 -0.2875 -0.0992
12653W        W32187   1.841  13.182  12.822  0.1072 -0.2217 -0.3273
12654W        W32188  13.893  11.841   4.772 -0.0520  0.2136 -0.2092
12655W        W32189   8.866   3.713   0.706  0.1371 -0.2941  0.1606
12656W        W32190  14.065   0.338   2.588 -0.2494 -0.1976  0.2436
12657W        W32191  16.685  17.733   4.358  0.3060 -0.1798  0.1362
12658W        W32192   8.465   8.123   2.794  0.0727  0.1847  0.3252
12659W        W32193   2.988   9.376  13.597 -0.0385  0.0937  0.0431
12660W        W32194  12.546  12.191   0.836  0.1216  0.0927  0.0239
12661W        W32195  14.875   2.742  15.461  0.1073  0.0454  0.2324
12662W        W32196  10.352  12.909   4.582 -0.2876 -0.0153 -0.2586
12663W        W32197   9.350   9.421   2.107 -0.1478  0.0315 -0.0633
12664W        W32198   1.036  16.393  11.839 -0.1222 -0.3047 -0.2658
12665W        W32199  12.301   3.438  15.138  0.0222  0.3300 -0.3012
12666W        W32200  15.356   0.609   0.016  0.1058 -0.0455  0.0975
12667W        W32201  10.396   1.248  11.398  0.2308 -0.3238  0.1046
12668W        W32202  12.792   8.994   2.435 -0.3326 -0.2095  0.0990
12669W        W32203  15.994   5.239  12.431 -0.1906  0.0290 -0.0541
12670W        W32204   1.164   4.061  15.650 -0.1804  0.0857  0.2416
12671W        W32205  12.368   9.133   3.143 -0.1456 -0.0840  0.1078
12672W        W32206  15.504   2.954  14.875  0.0372  0.2369  0.0015
12673W        W32207  14.508  11.264  15.618 -0.1061  0.0070 -0.0240
12674W        W32208   6.624   0.938  12.409 -0.5427 -0.1128  0.0408
12675W        W32209   7.319  10.937   0.773 -0.1471 -0.1737 -0.0795
12676W        W32210   4.047   3.578   0.979  0.1570  0.0764  0.0451
12677W        W32211   2.290  13.067  12.671 -0.4197 -0.0244 -0.1281
12678W        W32212  13.699   3.404   1.684 -0.1464 -0.0838  0.0348
12679W        W32213   0.028  12.620   3.202  0.0532 -0.4139  0.0208
12680W        W32214  14.929  10.028  10.692 -0.2082  0.2356  0.0810
12681W        W32215   7.073   3.748   2.027 -0.1290 -0.2564  0.1820
12682W        W32216   4.503   5.218  15.598  0.1110  0.0340  0.1044
12683W        W32217   6.585  15.004   4.116  0.5505  0.3694  0.1431
12684W        W32218  17.902  14.697  15.588  0.0533  0.0787  0.0885
12685W        W32219   1.637   5.444   3.384 -0.0783  0.1200  0.1157
12686W        W32220   7.942   4.844   0.429  0.1756 -0.2405 -0.0675
12687W        W32221  10.046  10.809   0.016  0.1753  0.3713  0.1100
12688W        W32222  15.312   8.053   1.334 -0.2858 -0.0705 -0.1603
12689W        W32223   2.848  17.696  13.331  0.0714  0.2803 -0.1227
12690W        W32224   1.930   1.674   1.262 -0.0504 -0.0183 -0.2278
12691W        W32225  12.472  10.557  16.043 -0.1513 -0.1544  0.0983
12692W        W32226  16.642  15.923  15.240  0.0342  0.0491 -0.1341
12693W        W32227   4.367  10.411   3.704  0.2679 -0.2676 -0.1506
12694W        W32228   2.575   9.024   0.683  0.0437  0.0596  0.0351
12695W        W32229  16.402   5.244   1.029  0.3643 -0.0931 -0.0450
12696W        W32230  10.559   5.895  15.199 -0.0391  0.2419 -0.0421
12697W        W32231   6.484  15.502   3.409  0.0935  0.0275  0.1658
12698W        W32232   5.983   5.073   3.790  0.1008  0.1453 -0.0799
12699W        W32233  14.531  12.839   4.568 -0.0121  0.3326 -0.0534
12700W        W32234   7.518   2.806   4.045  0.1329  0.0934  0.2309
12701W        W32235   9.439   3.901   1.395 -0.2865 -0.1200 -0.2031
12702W        W32236   5.257  14.835   1.676 -0.0012 -0.2709 -0.0810
12703W        W32237  17.216  14.822   4.738 -0.1215  0.1495  0.0694
12704W        W32238   8.022   6.075   1.149 -0.0269  0.3205  0.0165
12705W        W32239   0.831  11.992  11.792  0.4335  0.2690  0.0948
12706W        W32240   9.209   0.659  15.484  0.0196  0.1817 -0.1382
12707W        W32241   7.086   6.746   0.773  0.1104 -0.0922 -0.1932
12708W        W32242  12.626   6.461  13.790  0.1003 -0.0005 -0.0232
12709W        W32243  13.531  17.129  12.218  0.0070  0.1756  0.0488
12710W        W32244   1.240  16.777  13.741 -0.1167 -0.2744 -0.1418
12711W        W32245  15.056   1.383  13.021  0.1344  0.0480  0.3661
12712W        W32246   9.257   1.968   4.316 -0.0908  0.0508  0.2241
12713W        W32247   9.121   4.821  14.251 -0.0229  0.3880 -0.3080
12714W        W32248   9.439  11.565   3.856  0.0544  0.2063  0.0969
12715W        W32249  13.940  18.090  12.080 -0.1565 -0.1289 -0.0649
12716W        W32250  14.387   7.394  15.030 -0.0556 -0.2555  0.2412
12717W        W32251  15.841   3.552  11.735  0.1388 -0.0956 -0.1513
12718W        W32252   4.304  11.370  14.413 -0.0434 -0.0574  0.1946
12719W        W32253  10.345  12.833  10.681 -0.0368 -0.1166 -0.1607
12720W        W32254   8.919   5.810   3.259 -0.0242 -0.1978 -0.1774
12721W        W32255   0.854   1.223  14.411 -0.2660  0.2739 -0.2296
12722W        W32256   8.031   6.154  15.350 -0.2957 -0.0517 -0.0811
12723W        W32257   6.005   6.553  11.885  0.1199 -0.2217 -0.0741
12724W        W32258  10.744  12.176   3.604  0.0810 -0.2793  0.1007
12725W        W32259   3.604   2.988   3.159  0.0514  0.1505  0.1286
12726W        W32260   2.786   3.020   0.529  0.3234 -0.0395  0.1378
12727W        W32261   1.519   3.868   0.765  0.2336  0.2276 -0.1134
12728W        W32262  11.351  14.209   2.621  0.0774 -0.2464  0.2629
12729W        W32263  10.630  11.953  13.865  0.0807  0.1073  0.1500
12730W        W32264   1.464   3.797  10.742 -0.2870  0.0062 -0.1847
12731W        W32265   9.566  10.989   3.001 -0.0351  0.0454 -0.0175
12732W        W32266  12.752  12.095   0.314  0.1369  0.0356  0.1729
12733W        W32267  14.651   6.324   1.272 -0.0093 -0.1498  0.3200
12734W        W32268   9.762  12.898  15.708 -0.1149  0.2329  0.2497
12735W        W32269   0.253   1.466  12.601 -0.1017 -0.0752 -0.1202
12736W        W32270   9.531  16.649   0.088  0.1757  0.0091 -0.0534
12737W        W32271   7.588  10.666  11.332 -0.0017 -0.0761  0.0243
12738W        W32272   4.614  18.142   0.512  0.3334  0.2394  0.1054
12739W        W32273   6.323   7.064  14.767 -0.0621  0.2523 -0.0092
12740W        W32274  15.971  13.347   4.610 -0.2285 -0.2235  0.2990
12741W        W32275  11.360   7.794   3.314  0.0715  0.4378  0.3593
12742W        W32276   4.903   1.349   1.938 -0.1171 -0.2085 -0.0990
12743W        W32277  17.115  11.793   2.550  0.1533  0.2244 -0.2455
12744W        W32278  10.477   8.901  12.272  0.2553 -0.0858  0.1431
12745W        W32279   7.061   3.907   1.498 -0.3186 -0.1710  0.2213
12746W        W32280  11.284  12.009   3.391  0.3624  0.1732  0.0361
12747W        W32281   4.210   1.394  10.294  0.1611 -0.0560  0.1577
12748W        W32282  14.561   4.515  15.144  0.1007  0.1159 -0.1021
12749W        W32283  13.412   6.360  10.832 -0.3545  0.0993  0.0661
12750W        W32284   6.193   2.827   1.828  0.4025  0.2995 -0.0622
12751W        W32285   8.513   3.964   2.342  0.0979 -0.0734  0.0955
12752W        W32286   0.695   4.218   2.107  0.0172  0.1119 -0.0417
12753W        W32287   2.842  17.841  11.159 -0.0972  0.0475  0.0128
12754W        W32288  15.669  15.628   5.925  0.1840 -0.2640  0.0398
12755W        W32289   9.519  13.866   2.401  0.1937  0.1749  0.2695
12756W        W32290  17.023   2.950  14.592 -0.1521 -0.4145 -0.0085
12757W        W32291   4.982  17.697  15.904 -0.1380 -0.0992  0.0555
12758W        W32292   8.844  10.317   3.396  0.2834 -0.0369 -0.1401
12759W        W32293   8.785   0.522  12.274 -0.0776  0.2995  0.0669
12760W        W32294  10.445   6.591   2.389 -0.1924 -0.0201 -0.1094
12761W        W32295   2.842  18.142  11.889  0.1933  0.1535 -0.4490
12762W        W32296  16.748  10.355   4.823 -0.1818 -0.0711  0.2444
12763W        W32297  18.057  12.844   2.745  0.2224  0.0304  0.0099
12764W        W32298  11.672   8.717   0.653 -0.0282  0.1301 -0.0453
12765W        W32299   3.654  15.689   2.329 -0.0396 -0.0003 -0.1771
12766W        W32300   8.974   9.545   4.604 -0.1427  0.0909 -0.1963
12767W        W32301  12.357   4.826   0.250  0.0679  0.2466 -0.1772
12768W        W32302   2.098  13.817   5.447  0.0658  0.4500 -0.0151
12769W        W32303   5.630  17.209  13.209  0.3127  0.3245 -0.0567
12770W        W32304   1.827   5.977  12.866 -0.1289  0.1701  0.3730
12771W        W32305  16.906  13.566  14.615 -0.1063  0.0067  0.2471
12772W        W32306  13.655  11.268   3.559 -0.4606 -0.2132 -0.1498
12773W        W32307   5.603  10.619  12.644 -0.3615  0.2179  0.0206
12774W        W32308   5.817  16.624   3.940 -0.0657  0.3693 -0.2051
12775W        W32309  11.961   3.606  15.434  0.2298 -0.2121  0.1745
12776W        W32310   7.168   9.309   1.425 -0.1597  0.1172  0.1110
12777W        W32311  17.402   2.034  12.220  0.3184 -0.0846 -0.0623
12778W        W32312  10.789  14.125  13.193 -0.0016 -0.0780  0.0582
12779W        W32313   6.348   8.204  12.395  0.0097  0.0145 -0.0537
12780W        W32314   7.691  12.420   2.442  0.0838  0.5121  0.1025
12781W        W32315   8.865  15.015   5.146 -0.0070  0.1853 -0.0053
12782W        W32316   1.235  11.907   5.431 -0.0452  0.2756 -0.1099
12783W        W32317   1.221   1.898   1.831  0.0404  0.0006  0.0191
12784W        W32318  10.232   4.417  12.921  0.0343  0.1730 -0.0444
12785W        W32319   7.903   7.193  13.612 -0.0654  0.1382  0.0212
12786W        W32320  12.896  10.135  14.058  0.0545  0.2707 -0.2352
12787W        W32321   7.609   0.461  11.615  0.1709  0.1094  0.0902
12788W        W32322   2.141  14.810   3.532  0.0797 -0.2451  0.0764
12789W        W32323  10.889  14.288  14.240  0.2408 -0.0670  0.0809
12790W        W32324   6.998   2.018   2.325 -0.3817 -0.1239  0.1850
12791W        W32325   5.875  11.032  13.004  0.1433  0.0055 -0.2211
12792W        W32326   2.628   9.817   2.976  0.0940  0.2308 -0.0554
12793W        W32327   9.688  14.124   3.076 -0.0497  0.0364  0.4221
12794W        W32328   3.233  10.168  14.965 -0.1418 -0.1723  0.0705
12795W        W32329   0.767   4.091   3.475  0.1282 -0.1728 -0.2283
12796W        W32330  16.105  12.231   3.953 -0.1555 -0.1564 -0.1079
12797W        W32331  10.062  14.835   0.551 -0.3001  0.0833  0.1653
12798W        W32332   1.520  13.398  12.474  0.1512 -0.1473 -0.0390
12799W        W32333   4.667   6.954  15.618  0.1294 -0.1448  0.1806
12800W        W32334   9.492  18.138  14.756  0.1713  0.1358 -0.0138
12801W        W32335   2.843   7.104   2.691  0.0357 -0.0964  0.2371
12802W        W32336  17.460   5.066  13.295  0.0308 -0.1199  0.2264
12803W        W32337   5.718   1.625  11.728  0.1062  0.0517  0.1411
12804W        W32338   5.266   2.184   2.760 -0.2886 -0.1646  0.0226
12805W        W32339   7.980  15.850  15.689 -0.0629  0.0440  0.1722
12806W        W32340   9.762   3.649  12.566 -0.1699  0.0660 -0.3098
12807W        W32341   9.068   4.676   4.410 -0.0988 -0.0086 -0.0139
12808W        W32342  16.201  14.494  13.442 -0.0815 -0.3704  0.2219
12809W        W32343  11.996   2.919  12.922 -0.3055 -0.0201 -0.0265
12810W        W32344  16.771  11.420   2.878  0.0784 -0.3753  0.1872
12811W        W32345   1.588  15.609  12.324  0.2542 -0.1206  0.0476
12812W        W32346  17.042   3.589   1.053 -0.0451 -0.2018 -0.1525
12813W        W32347   2.923   7.212   4.205 -0.0482 -0.0252 -0.1418
12814W        W32348   5.991  10.587   4.277  0.0388  0.0035 -0.1090
12815W        W32349  13.090   7.462  13.226 -0.3018  0.2070  0.0471
12816W        W32350  14.300  13.361   0.562 -0.0201 -0.2648 -0.1083
12817W        W32351  16.724   1.009   1.065  0.0706  0.0558 -0.3140
12818W        W32352   5.881   7.969  12.408 -0.0911  0.2786 -0.2320
12819W        W32353  14.981   9.614   3.646  0.0277  0.2488 -0.1234
12820W        W32354  14.512   1.817   2.881 -0.0017 -0.0691 -0.1460
12821W        W32355   0.453   2.441  12.335  0.1172 -0.0091  0.1512
12822W        W32356  15.773   0.715   2.835 -0.0698  0.0991  0.0577
12823W        W32357   9.701   7.596  15.698 -0.1523 -0.0031  0.0634
12824W        W32358   2.238   1.537   1.665  0.2048 -0.0501  0.0064
12825W        W32359   6.792   4.741  14.807 -0.3020 -0.1366 -0.0330
12826W        W32360   8.308   9.689  15.687 -0.0366  0.0164 -0.3135
12827W        W32361  11.770  15.818  11.810 -0.0245 -0.0867  0.0523
12828W        W32362   3.585  10.079  11.454 -0.0837 -0.0147 -0.0822
12829W        W32363   9.782  15.464  11.917  0.2874  0.1869  0.0121
12830W        W32364  14.791   6.656   2.697  0.0024 -0.0418 -0.1359
12831W        W32365  17.119   3.389   3.991 -0.0940 -0.2107 -0.2386
12832W        W32366   5.585  10.152  12.126  0.1442 -0.0650 -0.0116
12833W        W32367   7.865   7.216  14.133  0.2462 -0.1625 -0.1915
12834W        W32368  13.900   1.764  12.425 -0.0831 -0.1392  0.2161
12835W        W32369   1.535   3.670  14.841  0.0635 -0.0403  0.1941
12836W        W32370   4.632   2.425   1.416 -0.1489  0.2212 -0.2803
12837W        W32371  15.068   7.589   0.105 -0.1245 -0.1775  0.1810
12838W        W32372  10.776   4.104   0.574  0.4643  0.2454 -0.0455
12839W        W32373   4.507   4.907   3.689 -0.0131  0.1315 -0.0138
12840W        W32374   4.791  14.657  11.303 -0.1215 -0.0731 -0.0890
12841W        W32375   0.900   1.862  13.008  0.1448 -0.1493 -0.2798
12842W        W32376   8.471   2.140   0.938  0.2161  0.2673  0.0328
12843W        W32377   8.895   0.894  11.778 -0.1970 -0.3193  0.3194
12844W        W32378   3.582  14.336  15.578 -0.0263  0.0345  0.0229
12845W        W32379   9.368   5.257  13.358  0.1594  0.1270  0.0035
12846W        W32380   7.387  11.559   1.881 -0.1601  0.0797  0.1072
12847W        W32381  15.128   7.053  14.651 -0.1072  0.2033  0.0257
12848W        W32382   7.764   7.119  13.120 -0.0462 -0.0802 -0.2309
12849W        W32383   1.923   9.546  13.323 -0.0614  0.2666  0.1450
12850W        W32384   0.958   7.936  12.192  0.0944  0.1445 -0.2128
12851W        W32385  16.237   2.217  11.690 -0.0815 -0.1281  0.0749
12852W        W32386  14.745   8.173   4.158 -0.0825 -0.0595  0.2349
12853W        W32387  11.723   2.926   0.530 -0.0572  0.0197 -0.2669
12854W        W32388   4.378  15.731   3.783 -0.0039  0.0524 -0.1381
12855W        W32389   1.975   3.939   3.133  0.1550 -0.0520 -0.1990
12856W        W32390  17.017  14.511   2.814  0.2259  0.1669  0.0397
12857W        W32391   4.615  11.391  11.026 -0.2261 -0.1024  0.0030
12858W        W32392   8.459   6.638  13.192 -0.2749  0.0519 -0.0737
12859W        W32393   9.032   4.627   1.369 -0.1564 -0.0351  0.3327
12860W        W32394  13.296   0.656   0.881  0.2045 -0.0898  0.4169
12861W        W32395   3.447   0.613  16.009 -0.0571 -0.4304  0.1517
12862W        W32396   7.447   9.868   2.885 -0.0622 -0.1102 -0.1310
12863W        W32397   9.589  16.697   2.772  0.0448  0.0979  0.0497
12864W        W32398  13.423  18.031   0.956  0.0337 -0.1272  0.2274
12865W        W32399  16.442   7.139   0.913  0.1383  0.1291  0.1088
12866W        W32400  15.965   6.520   2.594 -0.1969 -0.1804 -0.1667
12867W        W32401   5.888   3.026  11.421  0.1740 -0.1226 -0.3389
12868W        W32402  17.404   8.854   3.283  0.4614  0.1931  0.1792
12869W        W32403  14.806   7.601  13.024  0.3107  0.1509  0.2384
12870W        W32404  11.046  12.756  15.971  0.1341 -0.3125 -0.0997
12871W        W32405  13.954  12.492   3.453 -0.1136  0.0174  0.1979
12872W        W32406   5.009  11.056  15.060  0.0131 -0.2614  0.4076
12873W        W32407  13.893   7.640  15.156  0.1535  0.1668  0.1047
12874W        W32408   2.810   3.147  13.348 -0.1837 -0.1191 -0.0814
12875W        W32409  10.635  11.138   4.508 -0.0243  0.1272 -0.0457
12876W        W32410  17.020  15.282  12.466 -0.2803 -0.0235 -0.2393
12877W        W32411  15.725   0.561  14.714 -0.2002  0.4422  0.0631
12878W        W32412  15.025   9.400  12.716 -0.0010  0.1373  0.1206
12879W        W32413  11.806   3.748  15.974 -0.1616  0.0848 -0.3179
12880W        W32414   1.892  17.803  12.214 -0.3162 -0.1974  0.1345
12881W        W32415   5.815  11.429  11.752 -0.0267  0.1442  0.0534
12882W        W32416  15.240  16.277  12.075 -0.0175  0.0104 -0.1132
12883W        W32417   0.593  16.959  13.322 -0.1321  0.0495 -0.3192
12884W        W32418  15.842   2.552   2.627 -0.1955 -0.0250  0.0384
12885W        W32419   7.261   0.761  15.870 -0.1756  0.1865  0.0217
12886W        W32420  12.970  14.787   3.438  0.0933 -0.1809 -0.0200
12887W        W32421  16.548   1.083  11.092 -0.1225  0.0115  0.3653
12888W        W32422  10.871   6.451  13.676 -0.4395 -0.0163 -0.0467
12889W        W32423   0.611   7.468   1.128  0.0499 -0.1140  0.0885
12890W        W32424  14.891  16.479  14.052  0.0864  0.1891  0.0298
12891W        W32425   4.452   4.024   3.379  0.0319  0.3656 -0.1361
12892W        W32426   9.950   1.114   2.010  0.1929 -0.0340 -0.4472
12893W        W32427  10.888   2.565  11.321 -0.0591 -0.0083 -0.0179
12894W        W32428   8.301   7.132   2.877  0.0572 -0.2154  0.1596
12895W        W32429  14.993   3.892  11.157  0.0075  0.2378  0.2647
12896W        W32430   9.661  17.970  13.970  0.1219  0.3096 -0.1152
12897W        W32431   4.158  11.360   4.046  0.0223  0.1042 -0.1529
12898W        W32432  13.369   3.904  15.939 -0.0682 -0.1575 -0.2992
12899W        W32433   2.774  13.552   3.540  0.1416 -0.2856 -0.2139
12900W        W32434   4.238   5.225  13.494 -0.3649  0.0684  0.1848
12901W        W32435   0.476  10.647   2.370  0.0047 -0.0735 -0.0508
12902W        W32436  18.101  18.051   0.479  0.1728  0.0816 -0.3648
12903W        W32437  16.208  14.864  10.844  0.0363 -0.0433  0.0246
12904W        W32438  14.267   2.040  12.775 -0.0629 -0.1005 -0.0642
12905W        W32439   6.959  13.229  11.770 -0.1948 -0.2445  0.1175
12906W        W32440   7.035   6.047  14.238  0.1933  0.2085 -0.0031
12907W        W32441  17.967   4.983  13.298 -0.2262  0.2437  0.3140
12908W        W32442   9.492  13.515  12.359 -0.2821  0.0995  0.0893
12909W        W32443  11.814   4.820  13.507  0.0875  0.0884  0.1515
12910W        W32444   2.517  11.384   1.446 -0.3490  0.2831 -0.2647
12911W        W32445   7.210  11.300  15.740 -0.0360 -0.2961 -0.1339
12912W        W32446   5.961   5.021   2.286 -0.2939  0.0600 -0.2393
12913W        W32447  12.617   2.320  15.109  0.0602 -0.1111  0.1775
12914W        W32448   6.649  15.791   1.106 -0.1148 -0.3024 -0.1151
12915W        W32449   3.745  17.200   0.561 -0.0518 -0.3380  0.0147
12916W        W32450  17.936   7.434   0.782 -0.1120  0.0213 -0.1137
12917W        W32451  13.081   9.775  12.696  0.0759 -0.0712  0.0370
12918W        W32452  10.558   3.021   1.978  0.1440  0.1910  0.0956
12919W        W32453  13.312  14.524   1.094 -0.1325  0.0613 -0.1766
12920W        W32454   4.989   1.904  13.492 -0.0544 -0.1263  0.2415
12921W        W32455  14.304  13.178  14.060 -0.0455 -0.2474  0.1774
12922W        W32456  11.133  10.160   1.424 -0.3720 -0.0742  0.1262
12923W        W32457   9.516   5.960  13.355 -0.2189  0.0479  0.2789
12924W        W32458  16.571   7.873  14.612 -0.0217 -0.0611 -0.3350
12925W        W32459   5.057   5.376   1.880  0.1460 -0.1404  0.2680
12926W        W32460   6.000   5.055   1.791  0.1576  0.1892  0.1335
12927W        W32461  17.392   0.696  14.990  0.1912  0.0870  0.0395
12928W        W32462  15.579  12.610   2.154 -0.0738 -0.1166 -0.1815
12929W        W32463  16.457   5.220  13.322 -0.0331 -0.0287 -0.1235
12930W        W32464  14.120   8.136  12.514  0.0593  0.1228  0.2382
12931W        W32465  18.085   1.320   3.950 -0.2283  0.2212 -0.1164
12932W        W32466  10.962  10.767   4.330 -0.2655 -0.0904  0.1617
12933W        W32467   1.820  16.822  15.411 -0.2128  0.2028 -0.1359
12934W        W32468   7.076   0.564   1.858 -0.1275  0.2820  0.0490
12935W        W32469  13.157  15.758  13.564  0.0115 -0.0942 -0.1478
12936W        W32470   9.650  13.335  12.858 -0.4044  0.1171  0.0806
12937W        W32471   6.766   4.844   4.364 -0.0066 -0.1401 -0.0706
12938W        W32472   7.777  13.160   4.046  0.0984  0.3060 -0.2080
12939W        W32473  12.009   4.597   4.394  0.1799 -0.1934  0.2027
12940W        W32474  10.735  12.893  14.135 -0.0348 -0.3345  0.3090
12941W        W32475   6.930   5.799  13.279  0.0456 -0.1392 -0.1340
12942W        W32476   5.131   0.044   1.601 -0.2189  0.2015 -0.1119
12943W        W32477   6.047  10.563  12.864 -0.2720 -0.4463 -0.0828
12944W        W32478  13.438   8.896   1.156 -0.3228 -0.0489 -0.1009
12945W        W32479   7.934   4.590   3.832  0.0257  0.0424  0.0385
12946W        W32480  13.850   5.405  14.617 -0.1637  0.0683  0.2606
12947W        W32481  12.789  11.522   2.684 -0.2221 -0.0211  0.1641
12948W        W32482  10.688   8.015  14.481 -0.2383  0.1605  0.0294
12949W        W32483   3.015   3.895  13.242 -0.1753  0.1281 -0.1150
12950W        W32484   3.640   3.280   0.973  0.1784  0.0187 -0.2662
12951W        W32485   5.704   2.213  12.450 -0.3343  0.2749  0.1038
12952W        W32486  14.872  12.334   1.449  0.3605 -0.0451  0.1516
12953W        W32487  17.070  12.962  15.702 -0.0407 -0.3897 -0.1538
12954W        W32488   2.680   0.456  15.253 -0.1119  0.1754 -0.0230
12955W        W32489   9.899   4.728   1.391 -0.1418 -0.0594 -0.0157
12956W        W32490   8.762  16.757   2.919 -0.2485  0.0624 -0.0311
12957W        W32491  13.935   3.716   0.694 -0.1228 -0.0873  0.0000
12958W        W32492   5.171   4.669  10.861  0.2059  0.4724 -0.1250
12959W        W32493  17.172   9.551   4.989 -0.1012  0.2040 -0.2174
12960W        W32494   1.281  14.150  13.997 -0.4831 -0.1019  0.0494
12961W        W32495  11.886  16.014   1.741  0.0223 -0.1639 -0.0837
12962W        W32496  14.610   1.392  15.096  0.0018  0.2059  0.0389
12963W        W32497   7.103  14.071   2.901  0.1363 -0.1691  0.1130
12964W        W32498   3.621   2.846   0.365 -0.0499 -0.1483  0.0390
12965W        W32499  11.570   0.486   2.658 -0.0226 -0.0730 -0.0218
12966W        W32500  13.182  16.157   4.335 -0.1855 -0.1398 -0.2221
12967W        W32501   5.971   1.895  13.615  0.1085  0.1223  0.3547
12968W        W32502   2.529   6.775   2.957 -0.0160  0.2579 -0.2547
12969W        W32503  14.073   0.016  14.708  0.2703  0.1125 -0.0094
12970W        W32504   7.536  17.175   3.618  0.0259 -0.0236  0.1650
12971W        W32505  17.171  10.822   3.073 -0.0821  0.0291 -0.0512
12972W        W32506  15.119   7.488   5.587 -0.0819 -0.3442  0.1332
12973W        W32507   8.583   9.467  12.832  0.0850 -0.0455 -0.1710
12974W        W32508  16.076   5.424   1.858  0.2451 -0.2061 -0.0164
12975W        W32509  17.747   6.782  14.843 -0.1273  0.1741  0.1646
12976W        W32510  15.440   9.649  11.667 -0.1258  0.0400  0.0482
12977W        W32511  17.235   1.149  15.192 -0.0105  0.3320  0.0530
12978W        W32512  10.710   8.467   3.047 -0.1970  0.1598 -0.0763
12979W        W32513   8.047   6.477   2.784 -0.2992 -0.0649 -0.1532
12980W        W32514   5.581  11.146  12.073  0.0313  0.0912  0.1593
12981W        W32515   8.551   2.311   2.146  0.0442  0.0698 -0.0886
12982W        W32516   4.180   6.217   2.440  0.0022  0.3781  0.1920
12983W        W32517  18.147  15.093   2.193  0.1607  0.3521 -0.1046
12984W        W32518  14.502   4.922   1.459 -0.0370  0.0950 -0.1723
12985W        W32519  12.810   3.346  14.348  0.0278 -0.0363 -0.1827
12986W        W32520  15.779  14.748   6.267  0.0110  0.2652 -0.0595
12987W        W32521   5.104  12.905  12.158  0.3279 -0.1261  0.0435
12988W        W32522  10.392  14.008   2.276  0.1884 -0.1884  0.0870
12989W        W32523  15.581  10.781   1.707 -0.0409  0.0103 -0.0379
12990W        W32524  10.507  13.076   2.302 -0.1988 -0.0130 -0.1759
12991W        W32525   3.050   9.661   4.873 -0.0988  0.0046  0.0987
12992W        W32526  14.139  10.092  14.059  0.4694 -0.0274 -0.3183
12993W        W32527   6.469  15.999  14.375  0.0482  0.0659  0.1637
12994W        W32528  15.963   7.349  15.292  0.0754 -0.0238  0.1390
12995W        W32529  14.438   8.335   3.630  0.0899 -0.1431  0.0573
12996W        W32530   4.165  17.285   2.058  0.2201 -0.1236  0.3490
12997W        W32531  12.872   9.215  15.974 -0.2819 -0.1837  0.0619
12998W        W32532   9.909  10.928   4.144  0.0697 -0.1550 -0.1558
12999W        W32533   5.089   6.404  10.290 -0.3989  0.2176 -0.1036
13000W        W32534  17.717   5.718   3.904  0.1333 -0.3288 -0.2426
13001W        W32535   6.929   8.077   0.526  0.1202  0.2602 -0.1009
13002W        W32536   7.797   4.172  11.900 -0.0399 -0.0309 -0.0374
13003W        W32537   4.055  14.225  11.764  0.0946 -0.0279 -0.3286
13004W        W32538  11.865  13.824   1.438  0.1392 -0.0691  0.1897
13005W        W32539   1.589  13.573  12.984 -0.0106 -0.2354 -0.3494
13006W        W32540   5.192   3.318   3.969  0.0886 -0.0939  0.1349
13007W        W32541   5.980  10.905  13.528 -0.3396 -0.0432 -0.0315
13008W        W32542  12.520   9.647  15.614 -0.0704  0.0775 -0.1101
13009W        W32543   0.947   8.829  14.444  0.1865 -0.0542  0.0780
13010W        W32544   8.079   9.356  14.488 -0.0785  0.0099  0.2028
13011W        W32545   7.251  14.514   2.195 -0.1020 -0.1314 -0.1440
13012W        W32546   2.008  18.185   2.652 -0.0021 -0.2414  0.5556
13013W        W32547   3.982   9.431   1.855  0.6019 -0.1377  0.1297
13014W        W32548  10.552   6.446  15.844 -0.1828  0.1757  0.2064
13015W        W32549  12.412   9.098  13.448  0.0866  0.1550 -0.0484
13016W        W32550  16.546   0.506  13.409 -0.0224 -0.0472 -0.1271
13017W        W32551  11.983   6.909  13.907 -0.0351  0.1804 -0.2624
13018W        W32552  14.050   3.415  13.840  0.0143 -0.1921  0.0787
13019W        W32553   9.371  10.345  15.382  0.0177  0.3989  0.2965
13020W        W32554  16.747  10.214  15.123 -0.2680  0.4010  0.0524
13021W        W32555  14.861   8.704   2.350 -0.5042  0.0092  0.0343
13022W        W32556  13.066  11.819  15.652 -0.2587 -0.1974 -0.0522
13023W        W32557  17.822   3.565  11.214 -0.1372 -0.1623  0.0043
13024W        W32558  16.596  10.398  13.785 -0.0154 -0.2459  0.1364
13025W        W32559   5.652   1.360   2.555  0.2845 -0.4540 -0.0382
13026W        W32560   0.632  12.455   4.289 -0.0291  0.0323 -0.0590
13027W        W32561   6.150  10.294   1.732  0.1160  0.0506  0.0529
13028W        W32562   4.270  11.749   0.396  0.0645 -0.3279  0.1961
13029W        W32563   5.360   3.464   2.153 -0.0324 -0.1020  0.0150
13030W        W32564   1.942  16.121   0.827 -0.0320  0.1908  0.2834
13031W        W32565  15.692  15.955  12.542  0.1504  0.1822  0.2368
13032W        W32566   8.519   7.537   4.037 -0.0363  0.2128 -0.2247
13033W        W32567  11.738   8.966  14.627 -0.1099  0.0624 -0.0486
13034W        W32568  12.614   7.060   3.740  0.0848 -0.0254 -0.0076
13035W        W32569  10.780  10.986  12.947  0.3223 -0.2013  0.0876
13036W        W32570  13.557   1.963  14.242  0.0670  0.0812  0.0833
13037W        W32571   0.560   1.360   1.906 -0.2547  0.0774  0.2655
13038W        W32572   4.848   4.347   3.524 -0.1929 -0.2427  0.0963
13039W        W32573  12.521   3.391   0.257 -0.0776 -0.0173  0.0251
13040W        W32574   6.344   0.457  14.294 -0.0095  0.1763 -0.0834
13041W        W32575   7.290  15.926   3.726  0.0268 -0.0158  0.1576
13042W        W32576  13.332   5.873   1.409  0.1115  0.0789 -0.0662
13043W        W32577   4.145  13.374   0.405  0.2409  0.3687 -0.1951
13044W        W32578  14.464   0.104  13.586  0.3005  0.0124  0.0041
13045W        W32579  11.220  15.437  15.574  0.0109 -0.0837  0.1853
13046W        W32580   5.475   1.583   1.917 -0.1080 -0.1357 -0.0236
13047W        W32581   2.133   7.815   4.354  0.1677 -0.1998  0.1967
13048W        W32582   0.939  13.451   0.715 -0.1614  0.2236 -0.2811
13049W        W32583   1.469  10.484   4.362 -0.2339  0.0608 -0.0016
13050W        W32584  15.376   3.467   2.452 -0.1239  0.0729  0.1922
13051W        W32585   7.434   0.902  11.849 -0.0579  0.0483 -0.0494
13052W        W32586   2.664   3.098   0.029  0.2112  0.1159 -0.1037
13053W        W32587   1.944   3.942  13.959  0.0281 -0.1876  0.3307
13054W        W32588  11.759  15.669   3.349 -0.1209  0.0169 -0.3658
13055W        W32589  12.050   3.943  11.973  0.0090 -0.0539  0.0889
13056W        W32590  17.445   7.672  11.504 -0.1736 -0.0195  0.1013
13057W        W32591  13.037   3.114  14.742  0.1654  0.0965  0.3833
13058W        W32592   7.481   2.874   1.997  0.1420 -0.0370  0.0425
13059W        W32593   5.987  11.015   3.120 -0.3955 -0.4381  0.0317
13060W        W32594   9.377   7.004   0.112  0.0479 -0.3319 -0.2308
13061W        W32595   1.198   2.275   1.061 -0.1858  0.2827  0.3002
13062W        W32596  13.087  14.460   1.534 -0.0377 -0.1010  0.0088
13063W        W32597   5.039   8.977  15.049  0.1313  0.0841 -0.1835
13064W        W32598  13.195   4.744  12.115 -0.0514 -0.2467 -0.0504
13065W        W32599   1.711  17.876   0.206 -0.0525  0.1815 -0.1190
13066W        W32600   3.329   2.428  13.226 -0.0144  0.0686 -0.4152
13067W        W32601   6.068   3.179   3.477 -0.1500  0.2488  0.0046
13068W        W32602   1.140  16.882   1.053 -0.0087  0.1146 -0.3406
13069W        W32603   0.839   8.860   2.350 -0.0003 -0.2568 -0.1683
13070W        W32604  11.791  13.431   2.202 -0.1276  0.1427  0.0416
13071W        W32605   2.335  14.932   1.344 -0.0702  0.0682  0.1694
13072W        W32606  12.119   8.586   4.708  0.2067 -0.2065 -0.1738
13073W        W32607  13.816   4.031   2.754 -0.0792 -0.0355 -0.1039
13074W        W32608  13.359  13.695  14.122 -0.1081 -0.3222 -0.0107
13075W        W32609   9.418   1.742  12.435 -0.0164 -0.0529  0.0859
13076W        W32610   1.886  17.432  15.488 -0.1501  0.2031 -0.4330
13077W        W32611   8.391   2.721  11.427  0.0250 -0.1875 -0.0449
13078W        W32612  12.317  11.550   1.649 -0.0008  0.0699  0.1376
13079W        W32613   2.125   5.486   5.685  0.1047  0.0671  0.1969
13080W        W32614   7.143   4.463  11.766  0.0354 -0.1635 -0.0894
13081W        W32615  11.381   7.322  11.783  0.0670 -0.2442 -0.0289
13082W        W32616  13.727  11.258   1.758  0.1384  0.0523 -0.1486
13083W        W32617  17.804   5.109   1.107 -0.2310 -0.1396  0.2921
13084W        W32618   5.656   3.327   3.217 -0.0582  0.2445 -0.0479
13085W        W32619   5.044   2.206   1.442 -0.0301  0.0836 -0.1078
13086W        W32620  15.835  15.159   2.619 -0.3089  0.1264  0.1571
13087W        W32621   8.594  14.478  12.327  0.2968 -0.1451 -0.3168
13088W        W32622  13.058  15.858   2.882 -0.0934 -0.0492  0.2292
13089W        W32623  14.558  13.082   3.029 -0.0832  0.0697 -0.0111
13090W        W32624  15.470   2.694   2.290 -0.1422 -0.2215  0.1360
13091W        W32625   4.942   4.154  14.892 -0.1463  0.2465 -0.1316
13092W        W32626   2.452  10.658   4.440 -0.0989  0.3115 -0.0950
13093W        W32627  17.355   0.486   3.257  0.0303 -0.2745 -0.1296
13094W        W32628   5.280   6.636  13.446  0.2147 -0.2304  0.0145
13095W        W32629  16.417   8.486   3.712 -0.0394 -0.0528  0.0647
13096W        W32630  10.053  17.253  13.796  0.2047 -0.0150 -0.0892
13097W        W32631   1.232   2.808  15.470 -0.0876 -0.0197  0.0268
13098W        W32632  11.597  12.994   1.753  0.1197  0.1174  0.0376
13099W        W32633   5.050  17.157   1.618  0.1041  0.3135 -0.1224
13100W        W32634  11.825   0.907   4.029  0.1612  0.2246 -0.2651
13101W        W32635   8.246  12.783  15.003  0.0207 -0.0022  0.0348
13102W        W32636  15.687  15.366  13.512  0.2189  0.0051 -0.0729
13103W        W32637   5.091   2.968  16.036 -0.0895  0.1230  0.1256
13104W        W32638  12.956  16.260  13.986 -0.3431  0.1688 -0.0153
13105W        W32639   5.220  17.802   3.536  0.0814  0.4208 -0.0083
13106W        W32640   6.352   6.832  10.446  0.0210 -0.0934 -0.0512
13107W        W32641  10.320   3.546  12.597 -0.2579 -0.0762 -0.4540
13108W        W32642   1.943   4.244  13.545  0.2381  0.1448 -0.3324
13109W        W32643  17.696  16.367  14.909  0.0756  0.3212 -0.0805
13110W        W32644   5.220   9.083   3.699 -0.1416  0.3771  0.1769
13111W        W32645   1.327  11.953  11.705 -0.3264 -0.1781  0.0182
13112W        W32646   8.380  14.960  11.600 -0.0235  0.1380  0.1601
13113W        W32647  11.298   2.251   1.871 -0.1819  0.2018 -0.0583
13114W        W32648   1.640  15.701  13.163  0.0443 -0.3333  0.2347
13115W        W32649  10.521   3.256  14.408 -0.1246  0.4261 -0.0562
13116W        W32650  13.933  12.122   1.921 -0.0390  0.1590 -0.2445
13117W        W32651  14.368   8.914  15.540 -0.0182 -0.1864  0.3094
13118W        W32652   8.658  15.998   2.452  0.1964 -0.2402 -0.0114
13119W        W32653   4.986   4.179  10.979 -0.0731 -0.2423  0.1161
13120W        W32654   7.782  11.785  15.151  0.0119  0.0407  0.0890
13121W        W32655   7.608   3.550  11.458 -0.2905 -0.0160 -0.2507
13122W        W32656   4.365  13.865   0.392  0.0415  0.0222  0.0384
13123W        W32657   8.579   0.419  15.987 -0.0044 -0.2371 -0.1172
13124W        W32658   0.899   3.960   2.529  0.0485  0.0491  0.0994
13125W        W32659  14.296   9.208  12.478  0.1733 -0.1499 -0.0991
13126W        W32660   9.768  14.885   1.826  0.1241 -0.4490 -0.4437
13127W        W32661   8.421  12.951  13.516  0.1822 -0.0182  0.1863
13128W        W32662   1.339  10.160   4.763  0.3565 -0.1688 -0.0329
13129W        W32663   8.586   5.104  15.694  0.0320  0.1212 -0.1375
13130W        W32664   8.310   4.371  15.325 -0.0830 -0.1460  0.3855
13131W        W32665   6.702  13.384   4.558  0.0549 -0.1556 -0.2916
13132W        W32666  13.268   8.355  13.174  0.1387  0.2291  0.1686
13133W        W32667   5.482   7.031   3.224  0.1125  0.0676  0.0961
13134W        W32668   2.022  13.345   3.053 -0.3824  0.1840  0.1022
13135W        W32669  10.761   1.266  11.702  0.0753  0.2300  0.0154
13136W        W32670  13.241   0.968   2.440 -0.2523 -0.2408  0.1119
13137W        W32671   9.122   3.814  14.361 -0.0428 -0.0389  0.3632
13138W        W32672  13.798  16.330   1.129  0.0821  0.2594  0.1197
13139W        W32673  13.413   1.293  14.635  0.2259 -0.0534  0.1194
13140W        W32674   2.715  18.056  14.322 -0.0435  0.1706 -0.0842
13141W        W32675   2.433   7.221   0.124 -0.1547  0.2001  0.1095
13142W        W32676  14.946   1.424   4.804 -0.0268 -0.0064 -0.1769
13143W        W32677  15.297   5.688   5.796 -0.0662 -0.0770 -0.2552
13144W        W32678   4.259   5.476   0.200 -0.1805  0.2499 -0.4212
13145W        W32679  15.959   0.829   3.670  0.0339 -0.3085  0.3827
13146W        W32680  17.823  14.664  11.852  0.0479  0.0113  0.1923
13147W        W32681  11.565   2.400   4.446  0.0622 -0.5307 -0.1071
13148W        W32682  10.070   6.152   0.573 -0.1693 -0.3252  0.0729
13149W        W32683  14.768  17.048   4.715 -0.1678 -0.0275 -0.0258
13150W        W32684   1.873   3.045   0.369  0.1528  0.2049 -0.2040
13151W        W32685  17.273  17.407   2.003 -0.0304 -0.0073  0.1987
13152W        W32686   8.810  15.078   3.080 -0.2057 -0.0151  0.1332
13153W        W32687  17.060  10.476  14.782  0.0503  0.0977 -0.0964
13154W        W32688  14.212  15.495   1.483 -0.1811  0.0094 -0.1567
13155W        W32689   2.227  15.075   4.320 -0.0434  0.1726 -0.1385
13156W        W32690   1.366  10.288   1.352  0.0261 -0.2652  0.1785
13157W        W32691  10.203  12.876   3.220 -0.0595  0.1787 -0.0638
13158W        W32692   3.874   8.183   0.776  0.0252 -0.0690 -0.1931
13159W        W32693  15.649   6.475  12.509 -0.2245 -0.0955 -0.0424
13160W        W32694   3.807   7.523  12.738  0.2494 -0.1657  0.1865
13161W        W32695   1.119   0.048   0.829  0.1201  0.2657  0.1868
13162W        W32696   7.621  11.208   4.333  0.0938 -0.0129 -0.1971
13163W        W32697  11.814   7.116  15.523 -0.1278  0.2640 -0.2082
13164W        W32698   8.069   6.468  13.893 -0.1897  0.0954 -0.2778
13165W        W32699   4.867   9.459   3.316  0.1417  0.0867  0.1333
13166W        W32700   4.263  14.328  14.007  0.1131 -0.1201 -0.1442
13167W        W32701   3.187   0.187  15.027  0.2076  0.1626  0.5114
13168W        W32702  12.552   5.945   1.301 -0.0094 -0.1727  0.3803
13169W        W32703   1.827  10.565  12.178 -0.0917  0.0842  0.2010
13170W        W32704  10.186  15.446   4.803  0.2554 -0.1095 -0.1836
13171W        W32705  11.187  15.360   2.750  0.0425 -0.0411 -0.0661
13172W        W32706   4.455   6.856  11.712 -0.2931  0.0147 -0.1466
13173W        W32707  11.791  18.013   3.124  0.0887  0.0750 -0.1058
13174W        W32708  11.166  14.555   3.025  0.1860 -0.0208  0.1734
13175W        W32709   1.767   4.572  15.097  0.1301 -0.2933 -0.2863
13176W        W32710  15.208   3.183  13.996  0.4108 -0.4039 -0.2148
13177W        W32711  14.873   0.321  15.148 -0.2971  0.4648 -0.0289
13178W        W32712  11.340  12.324  14.999  0.4127 -0.0978 -0.2538
13179W        W32713   3.915  13.882   2.262  0.1514  0.0787  0.1940
13180W        W32714  15.804  15.313  14.107 -0.2434  0.0419  0.1430
13181W        W32715  17.811   8.962  14.717  0.1688 -0.0038 -0.1387
13182W        W32716   1.852   3.962   5.086 -0.1116 -0.0071  0.3248
13183W        W32717   2.197   8.692  13.572  0.0371  0.1523  0.0224
13184W        W32718   2.832  17.353   2.970 -0.4073 -0.1555  0.2201
13185W        W32719   6.967  11.434  12.058 -0.0315 -0.2794 -0.2355
13186W        W32720  10.447   2.182   2.385  0.1877 -0.2731  0.3851
13187W        W32721  11.537  10.180  11.621  0.0400 -0.3543 -0.0231
13188W        W32722   3.474   6.456  13.872 -0.0032 -0.0124 -0.1305
13189W        W32723   5.088   2.911   4.251 -0.0243 -0.0795  0.1927
13190W        W32724   6.632   1.272  11.753 -0.3439 -0.3994  0.0415
13191W        W32725   9.456   1.292  14.881  0.1319 -0.0356 -0.0715
13192W        W32726   8.344   4.284  11.189 -0.2064 -0.0583 -0.1146
13193W        W32727   4.915   1.594  14.953 -0.4316  0.3923 -0.0475
13194W        W32728  17.767   8.069   3.030  0.1554  0.2724 -0.2674
13195W        W32729  14.556   8.955  11.619  0.0305  0.0121 -0.0832
13196W        W32730   9.214  15.144  12.416  0.2129 -0.1629 -0.1113
13197W        W32731   8.679   5.032   4.477 -0.0753  0.0698  0.2026
13198W        W32732   4.423  14.360  13.369 -0.2491  0.2250 -0.2132
13199W        W32733   4.681   3.096   4.753 -0.0817 -0.0087  0.0394
13200W        W32734   7.316  13.498  12.138 -0.0400 -0.3158  0.0437
13201W        W32735  18.146  12.063  13.593 -0.4043  0.3095 -0.0146
13202W        W32736   0.828   7.044  12.711 -0.1395  0.0014 -0.0469
13203W        W32737  12.639   8.023  14.360  0.0400  0.4269 -0.1221
13204W        W32738   2.037  17.243  12.275  0.1987 -0.0401 -0.0584
13205W        W32739  10.047   2.557   0.846 -0.0126 -0.0977 -0.0316
13206W        W32740   6.692   5.030   3.849  0.0793  0.0196 -0.0690
13207W        W32741   1.118  13.607  12.762  0.2161  0.1313  0.1292
13208W        W32742  13.255  14.886   0.399 -0.0217  0.0512 -0.0924
13209W        W32743  10.031   0.332  13.645  0.3898  0.0632 -0.2519
13210W        W32744  16.369  17.011   4.097  0.1467  0.3111  0.1012
13211W        W32745  17.076  13.178  13.833 -0.1727 -0.0785  0.1118
13212W        W32746  12.401  10.644  14.413  0.2934 -0.0372  0.1012
13213W        W32747  16.195   0.723  14.872 -0.0638 -0.2336 -0.0992
13214W        W32748  13.303   2.258   4.974 -0.1538  0.1068  0.0050
13215W        W32749  11.662  15.377   1.174  0.0487  0.0506 -0.1114
13216W        W32750   6.905  15.006   0.657 -0.1330  0.0817 -0.1155
13217W        W32751   5.451  14.719  12.009 -0.0914 -0.0519 -0.3574
13218W        W32752  17.511  15.771   4.637  0.0998  0.0067  0.0229
13219W        W32753   3.402  14.726   4.353  0.1822  0.2823  0.2040
13220W        W32754  10.782   9.258   2.576 -0.0215 -0.2180  0.0503
13221W        W32755  17.278   0.412  15.430 -0.1745 -0.0700 -0.1330
13222W        W32756   5.066  13.314   3.054 -0.3560 -0.1924  0.0034
13223W        W32757  16.563   6.562   2.221  0.2258 -0.1386  0.0311
13224W        W32758  14.094   5.207   3.192  0.1471 -0.2642 -0.2791
13225W        W32759  10.591  11.518   0.338  0.3592 -0.3037 -0.0975
13226W        W32760  12.556   8.274  13.910 -0.1003 -0.0558 -0.1870
13227W        W32761   3.505   1.012  15.647  0.2999  0.0911  0.1153
13228W        W32762   9.557   7.005   1.514 -0.2480 -0.0817  0.2019
13229W        W32763   2.592  15.497   2.712 -0.1219 -0.0937  0.3399
13230W        W32764   9.094  12.747  12.936 -0.0626  0.0500 -0.0657
13231W        W32765  15.929   8.954  12.780 -0.1388  0.1619 -0.2310
13232W        W32766   5.977   2.001  14.466 -0.0302  0.0726 -0.0010
13233W        W32767  11.918   5.927   4.975  0.0753  0.4523 -0.0788
13234W        W32768  12.362   8.300  15.787 -0.1778 -0.0421  0.3911
13235W        W32769   9.398   0.741   0.384  0.0475  0.1411 -0.1612
13236W        W32770   4.951   7.321   1.168 -0.0036  0.0398 -0.1232
13237W        W32771  10.388   4.120  14.790  0.0357 -0.1729 -0.3032
13238W        W32772  16.421  11.169  13.410 -0.0707 -0.2269  0.3555
13239W        W32773   8.844  13.100   4.636 -0.0341 -0.1508  0.0873
13240W        W32774   7.984   0.875  12.525 -0.1110 -0.0533 -0.1041
13241W        W32775  11.569  16.578   0.158 -0.0093  0.0474 -0.0213
13242W        W32776   2.758  18.028  12.703  0.2561  0.1843  0.2799
13243W        W32777   8.793  17.463  14.509  0.1799  0.3338 -0.0091
13244W        W32778   5.987   2.218   1.483  0.0696  0.0219  0.2494
13245W        W32779   7.286  16.814   2.287 -0.0011  0.1614  0.3886
13246W        W32780   1.046   7.203   0.399  0.2125  0.1437 -0.0501
13247W        W32781   7.003  13.443  13.269  0.3434 -0.1513 -0.1353
13248W        W32782   9.745   4.846  15.552  0.3632 -0.2314 -0.0122
13249W        W32783  15.908  10.977  15.549  0.2115  0.1542  0.2381
13250W        W32784  10.230   8.410   2.562 -0.1315  0.1310 -0.2044
13251W        W32785  14.892  11.625  15.911  0.0414  0.1293 -0.0482
13252W        W32786  17.624   5.611   3.429 -0.2098  0.2933  0.1018
13253W        W32787  10.974   7.845  14.835 -0.3264 -0.0377  0.2108
13254W        W32788   6.520   9.840   0.828 -0.0857 -0.2145  0.1447
13255W        W32789   9.631   8.374   1.664 -0.2658 -0.1165  0.3191
13256W        W32790   8.852  17.618   1.895 -0.0284  0.0365  0.3019
13257W        W32791  13.460  10.466   3.320 -0.3831 -0.0779 -0.1779
13258W        W32792   9.731   2.221  15.759  0.0486 -0.0785 -0.1953
13259W        W32793  11.675  14.705  13.929  0.0030 -0.0503  0.1832
13260W        W32794   0.044   9.470  13.533 -0.1137  0.0048  0.1176
13261W        W32795   1.608  16.588  13.386  0.0651 -0.2539 -0.0979
13262W        W32796   8.022  13.535   1.002  0.0122 -0.0284  0.1427
13263W        W32797  15.821   7.407  12.966 -0.3032  0.3371  0.2162
13264W        W32798   1.321  12.838   0.132 -0.0455 -0.3256  0.0909
13265W        W32799   7.942   3.450  12.490 -0.0306 -0.1068  0.1232
13266W        W32800   6.596  18.106  14.195  0.0270  0.0969 -0.1187
13267W        W32801   9.883   6.817  13.802  0.1241  0.1747  0.1598
13268W        W32802  10.270  15.414   0.664 -0.2193  0.2573  0.0868
13269W        W32803   2.402   6.428   3.325  0.1938  0.2868 -0.3319
13270W        W32804  11.084   8.753   3.372 -0.1246 -0.4032  0.2974
13271W        W32805  14.378   4.379  11.973 -0.0726  0.0961  0.2876
13272W        W32806   9.055  17.108  14.311 -0.1171 -0.0304  0.0143
13273W        W32807  11.371  11.556   1.315 -0.0082 -0.1323  0.0587
13274W        W32808  13.719   7.394  13.967  0.1275 -0.2364 -0.1428
13275W        W32809   7.338   5.129   1.856  0.1416 -0.2371  0.1017
13276W        W32810  15.342  11.798   3.663  0.0074  0.0064  0.3845
13277W        W32811   3.860   7.613   0.566  0.1194 -0.0521  0.0625
13278W        W32812   2.437   4.097   1.709 -0.1430  0.2407  0.1305
13279W        W32813   8.526  11.350  15.986  0.0429  0.0937  0.5085
13280W        W32814   7.106  12.916   4.788 -0.0550 -0.3174  0.0490
13281W        W32815   3.204   9.118   3.034  0.1408  0.1440  0.0949
13282W        W32816   9.923   0.867  12.096 -0.2046  0.2834 -0.0044
13283W        W32817  16.298  17.519  14.062  0.0747 -0.2773 -0.3297
13284W        W32818  13.190   8.457   1.901  0.0577  0.0504  0.3453
13285W        W32819  13.371   9.888  13.994  0.0963  0.4319  0.0622
13286W        W32820   4.571   7.155   1.450  0.0536 -0.2031 -0.3196
13287W        W32821   6.212   5.772   4.141 -0.1887  0.0840 -0.0714
13288W        W32822   0.947  16.972  11.526 -0.1306  0.2187  0.1956
13289W        W32823  16.472   0.320  12.910 -0.0459  0.1012  0.0923
13290W        W32824  16.626  15.869  13.905 -0.1537  0.1400  0.1431
13291W        W32825  13.645   4.386  12.753  0.1557 -0.2280 -0.0296
13292W        W32826   1.418   2.161  11.353  0.0692  0.1992 -0.2014
13293W        W32827  11.482  15.666   4.039  0.1454  0.0693 -0.0232
13294W        W32828  16.885  12.758   0.178 -0.1025 -0.1051  0.2649
13295W        W32829   2.372   2.306  14.185  0.1226  0.0281 -0.2584
13296W        W32830   7.157  10.942   0.068 -0.0361 -0.0269  0.1424
13297W        W32831   3.727   0.583   1.914  0.3274 -0.0984 -0.0823
13298W        W32832  15.486  12.138   0.234  0.0198  0.0116 -0.4348
13299W        W32833   1.669   3.177  11.586 -0.2355  0.1844 -0.2067
13300W        W32834   9.988   3.437   0.169 -0.0179  0.0810  0.1131
13301W        W32835   7.523   9.741   4.737  0.0455 -0.2325 -0.1255
13302W        W32836   3.503   2.800   1.789  0.0221 -0.1422 -0.0176
13303W        W32837  13.803   7.916   2.527  0.1803 -0.0660  0.0676
13304W        W32838  12.116  13.707   3.626 -0.1755 -0.1718 -0.2121
13305W        W32839  16.804   5.047  12.703  0.0332 -0.0329  0.0910
13306W        W32840   4.363   9.413   3.041 -0.1953 -0.0338  0.1917
13307W        W32841  11.801   0.854   2.406  0.1047 -0.0281 -0.0051
13308W        W32842   1.784  14.421  11.994 -0.2782 -0.1257  0.3931
13309W        W32843   3.058  17.974   4.095  0.0477  0.2846 -0.0268
13310W        W32844  13.510  10.235   4.769 -0.1188  0.3712  0.2657
13311W        W32845   2.540   3.228   1.300  0.3516 -0.0255  0.3617
13312W        W32846   8.344  11.408   0.972  0.0918 -0.1581  0.1557
13313W        W32847   5.625   9.514   1.193 -0.1402  0.0946 -0.4156
13314W        W32848   1.521  13.440   0.639  0.1403  0.2788 -0.4729
13315W        W32849   6.790  11.107  13.511  0.3621 -0.0655 -0.2378
13316W        W32850   8.982  10.119  13.388 -0.0846  0.0478 -0.0178
13317W        W32851  11.156   5.101  11.722  0.0297  0.0402  0.3064
13318W        W32852   4.674   2.161  12.031 -0.5228  0.0674  0.1544
13319W        W32853   5.677   6.848   3.674  0.0601  0.1583  0.0122
13320W        W32854   3.612   7.713   1.863  0.0965 -0.3384 -0.0800
13321W        W32855   8.892   6.941   4.272 -0.1011  0.2716 -0.1882
13322W        W32856   2.397  17.304   1.612 -0.0028 -0.0507 -0.0169
13323W        W32857   3.283  11.967  14.113  0.0575 -0.1693  0.3291
13324W        W32858  11.192   8.318  11.962  0.3366  0.3280 -0.0421
13325W        W32859   0.699   5.721   3.329  0.2778  0.0795 -0.2833
13326W        W32860   1.326  12.575  11.690  0.2705 -0.0196 -0.1996
13327W        W32861  13.413   5.857   4.433 -0.1895  0.1010 -0.0143
13328W        W32862   7.565   5.406  15.722  0.3538  0.0156 -0.0281
13329W        W32863  13.036   2.526   4.041 -0.0318 -0.0150 -0.2986
13330W        W32864   7.806  12.206  11.947 -0.2285  0.1567  0.2845
13331W        W32865   8.272   3.600  15.942  0.2494  0.3441 -0.3396
13332W        W32866  11.426   0.309  14.751 -0.0553 -0.1454 -0.0321
13333W        W32867   8.660   3.205  15.977  0.0079  0.0854 -0.2813
13334W        W32868  14.986  16.953  14.006 -0.3654 -0.2212 -0.0681
13335W        W32869   8.282   2.852  15.690  0.0695 -0.1258  0.1408
13336W        W32870  12.981  17.834   1.851  0.0981  0.0971  0.3036
13337W        W32871  14.567  14.919  12.147  0.3569 -0.0107  0.2834
13338W        W32872   9.673   2.495   3.436 -0.2121 -0.2842 -0.2292
13339W        W32873   4.352   0.220  13.402  0.0480 -0.1784  0.1909
13340W        W32874   5.850  10.736   3.539  0.2001 -0.6609 -0.1092
13341W        W32875  16.776  10.145   3.277 -0.2878  0.0606 -0.0336
13342W        W32876   3.668  15.128   4.301  0.0520 -0.1992  0.4114
13343W        W32877  10.991  14.440   1.766  0.3651 -0.4284  0.0935
13344W        W32878   9.129   2.761   1.615 -0.2657 -0.3494  0.1876
13345W        W32879  14.894   6.797  12.600 -0.0288 -0.0320 -0.4547
13346W        W32880  10.920   2.647  15.647  0.2143  0.0770  0.0215
13347W        W32881  10.182   3.212   0.728  0.1147 -0.0288  0.0134
13348W        W32882  12.414   7.527  14.611  0.0232  0.0507  0.0149
13349W        W32883   8.386   8.658  13.418 -0.1423 -0.1258 -0.1646
13350W        W32884   9.743   4.999   5.571 -0.2804 -0.0062 -0.2049
13351W        W32885   2.674  15.042  12.266 -0.3402  0.0988  0.1152
13352W        W32886   0.685  13.616  12.004  0.0512 -0.1603  0.1684
13353W        W32887   8.303   4.086  13.184 -0.0297 -0.1579  0.0348
13354W        W32888   5.603  16.988   0.112 -0.3280 -0.1920 -0.2563
13355W        W32889  12.341   5.163  15.952 -0.0871  0.1533 -0.0000
13356W        W32890   4.048  13.595   4.022 -0.0114 -0.2452 -0.1696
13357W        W32891  15.165   8.807   3.752 -0.2133  0.1000  0.0489
13358W        W32892   7.632   1.251  12.198 -0.1818 -0.1992  0.0728
13359W        W32893   4.420  12.230  11.101 -0.1414  0.2913  0.0635
13360W        W32894  14.673   0.693  12.780  0.1552 -0.1847  0.0231
13361W        W32895   7.279   9.234  14.839  0.1560  0.1145  0.3675
13362W        W32896   4.673   1.829  11.667 -0.3126  0.2156  0.0799
13363W        W32897   2.473  18.048  11.521 -0.1167 -0.0689 -0.0417
13364W        W32898   9.624   3.491  14.946 -0.1059  0.2947 -0.1565
13365W        W32899  11.829   2.097  12.696  0.1109  0.0225  0.0456
13366W        W32900   3.685   7.182   1.793  0.1759  0.2024  0.0163
13367W        W32901  15.787   7.035   3.456  0.0370  0.0496 -0.1899
13368W        W32902   7.731   0.637  14.900 -0.0573  0.1221  0.0532
13369W        W32903  16.504  13.849   1.350  0.1310  0.1920  0.2721
13370W        W32904  14.460   1.585  11.441 -0.0444 -0.0416 -0.1435
13371W        W32905  10.888  17.927   4.774 -0.0385 -0.0544 -0.1285
13372W        W32906  16.554   8.371   4.470  0.0797 -0.2119 -0.1555
13373W        W32907  10.849  13.173  15.741 -0.0864 -0.3528 -0.0103
13374W        W32908  16.208   1.096   1.745  0.0177  0.0164 -0.1605
13375W        W32909   1.855  10.118   1.325 -0.0651 -0.2335 -0.5745
13376W        W32910  12.734   5.922  14.865  0.3209  0.1913  0.1233
13377W        W32911  15.189  10.679   1.368 -0.0074 -0.2465  0.0537
13378W        W32912  11.323  17.723   2.904 -0.1914 -0.3488 -0.1389
13379W        W32913   1.158   7.663   0.592 -0.2417  0.1505  0.0014
13380W        W32914  16.887   8.668   1.617  0.1813 -0.0930 -0.0493
13381W        W32915  17.713   4.575   2.373  0.2079 -0.3044  0.2116
13382W        W32916   5.430   8.768  14.320  0.0701 -0.2028  0.2199
13383W        W32917  12.627  13.263  13.874  0.2667 -0.1417 -0.0394
13384W        W32918   0.133   8.142  12.366  0.1832  0.2037  0.1433
13385W        W32919   2.641   9.200   1.773 -0.0411 -0.1446 -0.1820
13386W        W32920  13.713   4.712   1.233 -0.2741  0.3092  0.2241
13387W        W32921   8.500   1.844  13.315  0.0297  0.0152 -0.1407
13388W        W32922  16.256  17.104   1.911 -0.1111  0.0059  0.0880
13389W        W32923  17.905   2.720   1.901  0.1061  0.3577  0.2537
13390W        W32924   8.540  15.338  11.273  0.3216  0.0573 -0.1430
13391W        W32925   9.452   8.413   0.414  0.0824 -0.0717 -0.0320
13392W        W32926  14.109   5.316  15.090  0.3342 -0.0157 -0.0423
13393W        W32927   6.188  16.051  13.379 -0.0199  0.2157  0.0161
13394W        W32928   5.513  15.023   0.835  0.2505  0.1698  0.0379
13395W        W32929  10.247  14.220   1.322 -0.1006 -0.0790  0.1312
13396W        W32930  13.249  15.908  15.739  0.1552  0.0470 -0.1326
13397W        W32931   2.097  11.553   1.232  0.0931  0.0999  0.0950
13398W        W32932  10.368   1.867  13.010 -0.2131 -0.0227 -0.1074
13399W        W32933  10.240  11.711  12.794 -0.0875 -0.2865 -0.1102
13400W        W32934   5.921  13.448   3.130 -0.2251 -0.2640  0.0711
13401W        W32935   6.617   3.119  15.537  0.1117 -0.0228  0.1885
13402W        W32936  11.916   9.853   1.178  0.3985 -0.0854  0.2908
13403W        W32937  15.588  13.589  11.727  0.0539 -0.3119  0.1100
13404W        W32938  16.829   7.112  13.855 -0.0325 -0.1939  0.3175
13405W        W32939   0.601   6.411   3.808 -0.2552  0.0662  0.0782
13406W        W32940  15.103  12.146   3.347  0.0950  0.0828 -0.2944
13407W        W32941  11.335   1.087   4.958 -0.1537  0.1710 -0.2860
13408W        W32942  12.416   7.578   1.202 -0.0068 -0.1703 -0.1374
13409W        W32943   1.777   9.590   2.480  0.0436  0.1381 -0.1510
13410W        W32944  13.174   5.449   5.549  0.0408 -0.4355 -0.2029
13411W        W32945   0.375   7.825  14.720  0.1938 -0.0338 -0.1064
13412W        W32946  17.871   2.470  11.574 -0.0840  0.2548  0.0631
13413W        W32947  12.333  10.781   3.009 -0.0308 -0.1427 -0.1719
13414W        W32948  16.180  13.637   4.977 -0.1117 -0.0368  0.1664
13415W        W32949  17.244  15.690  13.820  0.1846  0.0131  0.0956
13416W        W32950   3.099   2.296   3.634  0.0309 -0.1692 -0.1168
13417W        W32951   3.065  10.118  11.498  0.5401  0.0151 -0.2033
13418W        W32952  16.474  16.753   4.562  0.1093  0.1059 -0.1480
13419W        W32953   0.292  17.449   4.129  0.3479 -0.0068 -0.1652
13420W        W32954   8.387   4.809   2.417 -0.0267 -0.0350 -0.3126
13421W        W32955   4.353   5.474   3.586 -0.2357 -0.0499 -0.3875
13422W        W32956   6.964  10.046   1.340 -0.1365  0.1009  0.0857
13423W        W32957  12.382  13.628   4.042  0.0242  0.3699 -0.0997
13424W        W32958   3.322  15.798  14.590  0.1126 -0.0877 -0.0508
13425W        W32959   7.974   6.727  14.335 -0.0597  0.2255 -0.2547
13426W        W32960   3.477  14.089   0.880 -0.3993 -0.0016 -0.0657
13427W        W32961   8.662   9.277   3.523 -0.1572  0.0196  0.1617
13428W        W32962   1.376  16.664  11.566 -0.2495  0.0114  0.0156
13429W        W32963  15.689   9.471  14.952 -0.1114  0.1639 -0.1392
13430W        W32964   9.641   0.378  11.443  0.0472  0.0227  0.1085
13431W        W32965  13.868   1.204  12.467 -0.1250  0.1234  0.1036
13432W        W32966  12.692   2.656   4.620  0.2884 -0.1828  0.1216
13433W        W32967  12.895  15.797   3.956 -0.2790  0.1351 -0.1744
13434W        W32968   1.977   1.071  10.943  0.0186 -0.2343 -0.0649
13435W        W32969   0.308   1.409   0.632 -0.0547  0.2000  0.0823
13436W        W32970   3.338  15.647   4.252 -0.1217  0.1852  0.0908
13437W        W32971   1.313  10.102  15.314  0.0274 -0.0077 -0.1596
13438W        W32972   7.337   2.891  14.923 -0.0958  0.1917 -0.0047
13439W        W32973   5.972   7.568   1.256  0.0752  0.0958 -0.1776
13440W        W32974   6.672   7.018   0.430  0.0830  0.0108  0.4018
13441W        W32975   7.491  10.382   2.891  0.1498  0.1348 -0.1051
13442W        W32976   2.167   7.401  15.770 -0.1384  0.0230 -0.0610
13443W        W32977   4.388  12.113   4.852 -0.1692  0.1399  0.1812
13444W        W32978   7.508   4.272  15.451 -0.0213  0.3863  0.3088
13445W        W32979  14.685  15.496   3.155 -0.3218  0.2205 -0.0125
13446W        W32980  13.206   0.272   4.858 -0.0800  0.3342 -0.1057
13447W        W32981  12.322  16.810   4.621 -0.0321 -0.0212  0.0222
13448W        W32982   1.209   5.859   4.611  0.1376  0.0276 -0.0476
13449W        W32983   9.482  10.429   2.927 -0.1268 -0.1740 -0.2604
13450W        W32984   3.459  12.030   3.037 -0.0167 -0.1412  0.1109
13451W        W32985   8.881  10.158  12.251  0.0924 -0.0793 -0.0137
13452W        W32986   5.435   6.355  13.070  0.0450 -0.0239 -0.0869
13453W        W32987   9.998  16.637  15.881  0.0936 -0.0074 -0.1041
13454W        W32988  17.892   4.188   4.473 -0.1599 -0.1234 -0.0773
13455W        W32989   7.001  13.051  12.971 -0.1871 -0.2248 -0.0445
13456W        W32990   7.482   6.515   2.700 -0.3519 -0.0607  0.3025
13457W        W32991   4.382  10.745  14.487  0.1415  0.0681 -0.1188
13458W        W32992   0.050  15.623   3.231  0.0817 -0.0441  0.0051
13459W        W32993   4.461   8.896   0.150 -0.1650  0.0514 -0.0864
13460W        W32994   0.525   8.199   1.772  0.0597  0.0755 -0.3037
13461W        W32995  16.215   0.871   4.104  0.0801  0.2226  0.1494
13462W        W32996  10.487   3.943   4.548 -0.1594  0.0889 -0.1883
13463W        W32997   2.361  13.965  13.167 -0.0013  0.1018  0.0005
13464W        W32998  14.405  10.286  13.160  0.0172  0.0427  0.3043
13465W        W32999  13.046   2.621  15.324  0.1747  0.2935 -0.1418
13466W        W33000   0.914  11.033  11.444  0.1468  0.0623 -0.0895
13467W        W33001   6.435  17.534   5.584 -0.2139  0.1323  0.1106
13468W        W33002   7.152   6.680  12.046 -0.1477 -0.2210  0.0117
13469W        W33003   2.028   7.913  12.503 -0.1343  0.0835 -0.2702
13470W        W33004   1.981  10.743  12.961  0.0864  0.0481 -0.0469
13471W        W33005   5.544  15.888  11.358  0.0577  0.0385 -0.1763
13472W        W33006  16.485  17.207  14.815  0.0075  0.2313 -0.0316
13473W        W33007  17.054  15.334   0.236 -0.0262  0.0095 -0.0428
13474W        W33008   3.509  13.341  12.767  0.2608 -0.1583 -0.1278
13475W        W33009  15.922   3.909  15.026  0.2581  0.1716  0.0314
13476W        W33010  10.198  11.274  11.610  0.0757 -0.3458  0.4432
13477W        W33011   6.645  13.607  13.985 -0.0239  0.2245 -0.3781
13478W        W33012  15.816   2.501  14.058 -0.2648 -0.0983 -0.1403
13479W        W33013  10.308   9.216  11.766  0.0265  0.0333 -0.0650
13480W        W33014   7.766  13.114   0.747 -0.0321 -0.2445  0.0331
13481W        W33015   9.307  17.894   0.599  0.1722 -0.0282 -0.0091
13482W        W33016   6.048  13.807   0.742 -0.0233 -0.0136 -0.0512
13483W        W33017  16.511   3.741   1.221  0.0462 -0.1395  0.0486
13484W        W33018  16.443  14.569   2.914  0.0367 -0.3456  0.0262
13485W        W33019  13.202   5.676   2.142 -0.1186  0.2479  0.0235
13486W        W33020   5.700   3.111   4.370  0.1049 -0.0198  0.1763
13487W        W33021  11.938  11.531  14.884 -0.0750 -0.0962 -0.1437
13488W        W33022   1.616  14.291   3.243  0.0528  0.2363 -0.4163
13489W        W33023   6.513  17.356   0.267  0.1267  0.0658 -0.0285
13490W        W33024   8.664  11.126   2.620  0.0891 -0.0116 -0.0550
13491W        W33025  15.434   1.544  15.490  0.0671 -0.1063 -0.1539
13492W        W33026   8.766   7.661   0.679  0.2230  0.2135  0.0253
13493W        W33027   7.332   4.449   2.766  0.0452 -0.1898  0.3459
13494W        W33028  13.789  10.889  12.354  0.0288 -0.0103 -0.1435
13495W        W33029  18.188  10.758   2.277 -0.2632  0.1446  0.1446
13496W        W33030  14.549  10.509   3.950  0.0147 -0.2982 -0.1722
13497W        W33031  16.645   7.910  15.082  0.1503  0.0525 -0.0765
13498W        W33032  16.266   2.003  15.603 -0.2171 -0.2389 -0.3598
13499W        W33033  17.151  14.357  15.212  0.1809  0.0677 -0.0420
13500W        W33034  12.525   9.582   0.576  0.0062 -0.0195 -0.0390
13501W        W33035   3.303  18.066  14.025  0.0031 -0.1084 -0.2005
13502W        W33036   0.083  15.821   0.343 -0.0423  0.1427  0.1222
13503W        W33037  16.570  14.345  11.716 -0.0051  0.2605  0.0426
13504W        W33038  11.113   5.257  12.207  0.0448  0.5296  0.1273
13505W        W33039   4.613   4.698  14.828  0.1187  0.2985 -0.3105
13506W        W33040  13.260   9.817   1.715  0.1761  0.1287 -0.1041
13507W        W33041  16.738  13.412   1.208 -0.0508  0.0516  0.0163
13508W        W33042   8.235  11.543  12.585 -0.0045 -0.2004  0.0653
13509W        W33043  16.539   9.557   0.365 -0.0035 -0.1630 -0.1014
13510W        W33044   0.025   2.148  15.575 -0.0219 -0.1487  0.2029
13511W        W33045   9.369   5.132  15.780  0.0543 -0.0338 -0.0226
13512W        W33046  13.848   8.056   5.467 -0.2553 -0.3239 -0.1291
13513W        W33047  14.006  16.712   2.966  0.1219 -0.0296 -0.1893
13514W        W33048   2.770   8.060  13.265  0.1850  0.0549  0.1951
13515W        W33049  12.695   6.517  11.824  0.1435 -0.2509  0.1175
13516W        W33050   2.788   9.520   3.954  0.2073  0.2759  0.0763
13517W        W33051   8.669   8.503   1.905  0.1849 -0.0500 -0.1309
13518W        W33052   7.536  10.543  16.054 -0.0020  0.0809  0.1239
13519W        W33053  15.309   4.159   3.123 -0.0493 -0.0749 -0.3025
13520W        W33054   1.190  17.854  15.987 -0.3035  0.1461 -0.0640
13521W        W33055   9.259  17.266   0.279 -0.3244  0.0287  0.0972
13522W        W33056   7.490   8.477  13.439  0.1237 -0.0960  0.1483
13523W        W33057  11.861   2.794   2.099 -0.1610  0.0238  0.0231
13524W        W33058   3.257  13.093   0.882  0.0537 -0.1273 -0.1284
13525W        W33059  11.946   0.497   0.274  0.1643 -0.1178 -0.2052
13526W        W33060  10.238  17.099  15.986 -0.0691  0.1432 -0.1335
13527W        W33061  12.004   7.674  13.226  0.1428  0.4435 -0.0255
13528W        W33062  16.697   7.236   3.043 -0.0122  0.0075 -0.2052
13529W        W33063   8.998  16.572  12.896 -0.0902 -0.3170 -0.2553
13530W        W33064  17.670   4.019   3.948 -0.0098  0.3815  0.0734
13531W        W33065   4.521   0.417  12.543 -0.1266 -0.3737  0.2791
13532W        W33066   2.803  11.934  14.023  0.2172  0.0024 -0.0132
13533W        W33067  16.965   7.704   3.994  0.1928 -0.1849 -0.1411
13534W        W33068  17.151  13.997  14.396  0.0029 -0.0235  0.2341
13535W        W33069   4.031   0.350   3.323  0.3667  0.0306 -0.2685
13536W        W33070  12.434  11.917  11.686 -0.1513  0.1603  0.1789
13537W        W33071   5.429   8.032   1.719  0.0963  0.2186 -0.1793
13538W        W33072  13.955   4.759  15.133 -0.1658  0.2319  0.0188
13539W        W33073   0.362  13.139  15.355 -0.0731 -0.0500 -0.1549
13540W        W33074  14.278  17.292   0.072  0.2271 -0.2161 -0.0651
13541W        W33075   7.329   2.170   3.340  0.1135  0.2764  0.0239
13542W        W33076  18.013  12.411   3.606 -0.0947 -0.0781 -0.0788
13543W        W33077   7.048  17.203   2.391  0.2868  0.0867  0.1145
13544W        W33078   3.663   3.882   0.199  0.2206 -0.3625  0.0772
13545W        W33079   8.462   1.884  11.382 -0.3324 -0.2612  0.1654
13546W        W33080   9.478   9.921   2.177  0.1078 -0.2865 -0.0390
13547W        W33081   9.807  11.893  15.373 -0.2066  0.1094 -0.0496
13548W        W33082   5.822  15.744   2.126 -0.1096 -0.0072 -0.0312
13549W        W33083   3.989  14.790   3.022 -0.0620 -0.1322  0.1106
13550W        W33084   9.497   6.521   0.146 -0.3505 -0.0478 -0.3032
13551W        W33085   5.531   4.593  13.384  0.0837  0.0811  0.0677
13552W        W33086   7.494   6.218   3.507 -0.3606 -0.0131 -0.1999
13553W        W33087   9.750   6.098   0.155  0.2986 -0.2252  0.3208
13554W        W33088  16.832  13.794   3.110  0.1997  0.0630 -0.1215
13555W        W33089   4.258  11.311   4.542  0.2671 -0.0789  0.2407
13556W        W33090   0.298   1.445   2.979 -0.1839  0.1096 -0.0851
13557W        W33091  13.099   3.147  15.296 -0.0392 -0.0148 -0.1082
13558W        W33092   2.059  17.855   0.549 -0.3327 -0.0112  0.2952
13559W        W33093   4.962  14.010  14.776 -0.3280 -0.0519  0.4005
13560W        W33094  13.763   8.760  13.920  0.0758 -0.4293  0.0633
13561W        W33095   8.242  13.658   2.358  0.1832  0.1918 -0.1956
13562W        W33096   8.467   2.283   3.000  0.2125 -0.3477  0.0373
13563W        W33097   1.367   9.622   0.028 -0.0025 -0.0706  0.1961
13564W        W33098  12.193  12.627   0.778  0.0074  0.1005 -0.1760
13565W        W33099  10.383  15.623  14.513  0.2099  0.3064 -0.0006
13566W        W33100   1.463  15.246   1.239  0.0103  0.1928 -0.0472
13567W        W33101   8.093  14.152  14.436  0.1725 -0.2884  0.1641
13568W        W33102  10.685   2.693   3.664 -0.0878  0.0961 -0.2546
13569W        W33103   9.808   5.752  11.486 -0.5064 -0.1454 -0.1041
13570W        W33104   9.957   7.757  13.444  0.0035 -0.1666  0.3054
13571W        W33105   0.011   0.540   1.101  0.0305 -0.0877  0.2107
13572W        W33106  15.603   1.115  14.136  0.1525  0.3339 -0.2739
13573W        W33107   0.207   5.673  12.106  0.0887  0.2599 -0.2895
13574W        W33108  14.756  13.083  15.365 -0.0277  0.0255 -0.2722
13575W        W33109  14.353  14.991  12.649  0.1946 -0.0822 -0.0577
13576W        W33110   5.691  15.322   3.522  0.0239  0.0553  0.3180
13577W        W33111   2.571   6.804   4.028 -0.0587 -0.3727 -0.1722
13578W        W33112  15.811   4.854   3.804 -0.1018 -0.1210 -0.0720
13579W        W33113   7.671  13.690  15.346  0.1326 -0.0918 -0.0173
13580W        W33114   9.289   9.907  15.972 -0.1131  0.2410 -0.0959
13581W        W33115   5.746  13.715  12.862 -0.1096 -0.0075 -0.0658
13582W        W33116   2.492   4.151   2.202  0.0918 -0.2163  0.1871
13583W        W33117   7.707  17.985  15.080  0.1259 -0.0735  0.1104
13584W        W33118  15.699   1.780   3.214 -0.1212 -0.2281 -0.2512
13585W        W33119   4.080  15.415   4.122 -0.2360  0.0293 -0.0799
13586W        W33120   3.267   8.256  16.029 -0.1667 -0.2005  0.0898
13587W        W33121   6.774   5.460   3.533  0.1545  0.1509  0.0571
13588W        W33122   4.744  12.768   0.143  0.3106  0.0213 -0.0585
13589W        W33123  10.056   8.590  14.086 -0.2426  0.1502  0.0974
13590W        W33124  17.407  17.349   2.624  0.2326  0.0402  0.0245
13591W        W33125  14.117   8.272  13.297 -0.0931 -0.2777  0.0397
13592W        W33126   8.523  15.036   2.600  0.0791 -0.0229 -0.0096
13593W        W33127   6.249   7.441  11.919  0.2850  0.0116  0.0764
13594W        W33128   7.554   8.296   2.547 -0.1229 -0.0948 -0.1242
13595W        W33129  13.500   8.399   2.283 -0.0223  0.1722 -0.1870
13596W        W33130  13.520   4.664  11.447 -0.0782 -0.2703 -0.0949
13597W        W33131   3.167  15.835   1.097  0.2714  0.0533  0.0352
13598W        W33132   7.775  13.661   4.967 -0.2849  0.0190  0.1655
13599W        W33133  11.187  12.097  14.506 -0.1086  0.0040  0.0799
13600W        W33134   3.318  17.454  13.200 -0.1148 -0.1233 -0.0417
13601W        W33135   9.150   2.261  13.753 -0.0080 -0.0010 -0.1580
13602W        W33136   8.210   4.994   4.176 -0.0945  0.0271 -0.1481
13603W        W33137   8.957   5.624  14.519 -0.0395 -0.0067  0.2811
13604W        W33138   8.001   9.300  12.594  0.3006 -0.2255  0.0410
13605W        W33139   1.841  13.735  14.733  0.1451  0.1409  0.1793
13606W        W33140   9.277  11.316  15.944  0.2147  0.0200 -0.2662
13607W        W33141   1.932  14.363   1.139 -0.1842  0.1324 -0.0360
13608W        W33142   6.180  17.269   0.669 -0.0398  0.1098 -0.1773
13609W        W33143  15.326   9.411  14.142  0.1298  0.2637  0.1805
13610W        W33144   3.056  11.952  13.583  0.1698 -0.0165  0.1662
13611W        W33145  15.843  12.962   0.890 -0.0592  0.0990  0.0749
13612W        W33146   0.620  10.118   0.424  0.1819  0.1157 -0.0212
13613W        W33147  15.292  12.636  15.282  0.0480 -0.2392 -0.0259
13614W        W33148   0.156   9.344   0.508  0.2221  0.2715  0.1542
13615W        W33149   4.903   2.538   0.961  0.0288  0.2995 -0.1207
13616W        W33150   6.167  12.165  15.712  0.2779  0.3625 -0.0424
13617W        W33151  12.200  13.622   1.905  0.0302  0.2116  0.0988
13618W        W33152  17.803  13.848  16.040 -0.3478 -0.0219 -0.1540
13619W        W33153  15.800  11.805  14.939  0.1209  0.1233  0.0549
13620W        W33154   7.683  13.024  10.682 -0.1708 -0.0908  0.3507
13621W        W33155   9.865  18.126   1.138  0.1572  0.2938  0.2597
13622W        W33156  17.941   3.615  13.250 -0.1054 -0.1576 -0.0759
13623W        W33157  13.910   8.923   1.402 -0.0027 -0.0160  0.0621
13624W        W33158  10.451  12.493  15.077  0.1389 -0.1470 -0.2669
13625W        W33159   7.752  11.911  14.685 -0.3532 -0.1425 -0.1198
13626W        W33160  18.061  13.243   0.731 -0.0444  0.0140 -0.0467
13627W        W33161   7.942  10.423   5.046 -0.0989  0.0685  0.1088
13628W        W33162  11.215  13.357  13.470  0.0578 -0.1364 -0.0612
13629W        W33163  17.470   4.526  13.325  0.1284 -0.2626  0.0278
13630W        W33164   5.802  16.241  12.914  0.1462  0.2173 -0.1416
13631W        W33165   4.371   1.263  12.301  0.1926 -0.0107 -0.0359
13632W        W33166  16.478   2.269  11.260 -0.0901  0.3219  0.3608
13633W        W33167  10.495   0.345   3.965  0.0742 -0.1499 -0.1496
13634W        W33168   9.299  17.718   3.613  0.2512 -0.2234  0.0726
13635W        W33169   0.647  11.885  13.302 -0.0769  0.0551 -0.1113
13636W        W33170   5.147  13.936   1.870  0.0370 -0.0306  0.2811
13637W        W33171  15.431   7.520   3.673 -0.0005  0.1007  0.3031
13638W        W33172  12.074   5.734   4.531 -0.0323 -0.0750  0.3264
13639W        W33173  13.838   2.604  15.921  0.0277 -0.0114 -0.2062
13640W        W33174  14.451  12.949   0.952  0.2201 -0.0043 -0.0735
13641W        W33175   2.734   7.454  14.924 -0.1233  0.2858 -0.0555
13642W        W33176  11.818   6.413   4.777  0.2545  0.0418  0.0866
13643W        W33177   8.535  15.632   3.982  0.0746  0.0271  0.0638
13644W        W33178  13.078  12.703  11.673 -0.2118  0.0311 -0.3724
13645W        W33179  14.807  16.618   1.670  0.4415  0.0008  0.1051
13646W        W33180   6.649   5.854  15.137 -0.0051  0.0617 -0.1479
13647W        W33181  16.088   2.994   2.527 -0.2368 -0.1768 -0.2165
13648W        W33182  10.184  12.636  15.722 -0.0785  0.4793  0.1322
13649W        W33183   7.763  16.949  10.259 -0.0384 -0.0230 -0.2073
13650W        W33184  11.519   3.562   3.898  0.0792  0.1813  0.0652
13651W        W33185  11.977  13.958  13.447  0.0980  0.0307 -0.1729
13652W        W33186  14.324   3.766  13.479 -0.2024 -0.2115  0.1667
13653W        W33187   3.018  16.726  13.060 -0.0063 -0.0673 -0.1394
13654W        W33188   9.756  12.180  13.403  0.4289  0.1451 -0.1122
13655W        W33189  15.318   5.028   1.073 -0.0949 -0.2621 -0.2715
13656W        W33190  14.633  12.059   0.664  0.2545  0.1703 -0.2167
13657W        W33191   1.959   9.600   1.249 -0.0506  0.4517 -0.0886
13658W        W33192  15.605  17.382   0.047 -0.0429 -0.0972 -0.1499
13659W        W33193  13.756  17.784  13.913 -0.0835  0.1706 -0.0862
13660W        W33194   8.662  15.518  14.455  0.1333 -0.2271  0.1211
13661W        W33195   2.611   9.717   4.404 -0.0762  0.2004  0.0237
13662W        W33196   1.598   4.746  14.166  0.0282 -0.0084 -0.0574
13663W        W33197   5.736   7.046   5.365  0.0636 -0.0573 -0.1424
13664W        W33198   9.159   1.778   5.537  0.0319 -0.2775  0.2041
13665W        W33199   0.341  15.523  13.373 -0.2581  0.2811  0.2765
13666W        W33200   2.641  15.063  10.713 -0.2173  0.0369 -0.2012
13667W        W33201  16.595   3.831  13.573  0.2570 -0.1105 -0.2155
13668W        W33202  12.023   6.100  14.841  0.1856  0.1042 -0.0152
13669W        W33203   1.566  10.101   1.778 -0.1518  0.1632 -0.1561
13670W        W33204   4.364   9.006  14.082 -0.1964 -0.0147 -0.0927
13671W        W33205  16.646  18.141   5.523 -0.1703  0.1538  0.2006
13672W        W33206  17.600  12.617  12.948 -0.1422 -0.2586  0.2788
13673W        W33207  16.324   2.768   3.311 -0.1699  0.2482 -0.2291
13674W        W33208  10.086   9.291  12.201  0.2932  0.0340  0.2021
13675W        W33209  17.063   8.190  15.205  0.2423 -0.0681 -0.1246
13676W        W33210  17.151   3.359  14.304  0.0808 -0.2412  0.1590
13677W        W33211   7.602  12.728   4.946  0.0691 -0.2260  0.2252
13678W        W33212  12.991  13.445  10.897  0.0280 -0.2248  0.2255
13679W        W33213   8.345   3.339  11.248 -0.0780  0.3515 -0.0083
13680W        W33214  15.511   0.207   4.924  0.1385  0.0197 -0.2160
13681W        W33215  17.970  10.472   0.883  0.1891  0.0744 -0.0066
13682W        W33216  11.071  15.680  12.628 -0.0238 -0.0678 -0.0913
13683W        W33217   5.978  11.791  14.343  0.1344  0.2345 -0.2562
13684W        W33218   1.135   8.668   4.598 -0.0450 -0.5911  0.1762
13685W        W33219   3.044   1.738   3.149  0.0868 -0.1268  0.1736
13686W        W33220  11.400  16.688   1.171  0.0594  0.2110  0.2064
13687W        W33221  11.875  10.846   4.208  0.1646 -0.0147 -0.4447
13688W        W33222   6.730  15.445   4.402 -0.0989  0.1324  0.2243
13689W        W33223  17.506  12.203   1.589  0.1315  0.2385 -0.2108
13690W        W33224   4.287  10.558  12.920 -0.0784 -0.1706 -0.3318
13691W        W33225   3.731   7.631  14.978  0.0254 -0.0521 -0.0893
13692W        W33226   0.893   3.308   3.085  0.1553 -0.2079  0.2218
13693W        W33227   3.267   2.855  13.676  0.1048  0.0057 -0.3256
13694W        W33228  10.576   8.383   1.593  0.0012  0.0452 -0.1508
13695W        W33229  10.816   4.502   3.230  0.1640  0.0382 -0.1219
13696W        W33230   1.031   7.667  13.585  0.1607  0.0782 -0.1303
13697W        W33231   2.040  12.569  14.702 -0.1295  0.3429  0.1175
13698W        W33232  17.668  17.541   1.132  0.0956  0.2149  0.0023
13699W        W33233   3.938   6.591   2.929 -0.1089  0.1777 -0.2370
13700W        W33234   1.617   6.777  14.812 -0.2991 -0.0420  0.4517
13701W        W33235   2.975  16.494   0.595  0.3629  0.0632  0.0986
13702W        W33236  11.183  15.051   1.082  0.3264 -0.0956 -0.2703
13703W        W33237  11.934   8.370  15.015 -0.0067  0.0237 -0.1144
13704W        W33238  10.800  12.378   0.428 -0.1847 -0.2207  0.0943
13705W        W33239  10.471  16.246   2.072 -0.0257  0.0213 -0.2800
13706W        W33240   5.544   9.348  14.965  0.2134 -0.0128 -0.3713
13707W        W33241  18.074   0.831   4.209  0.1078 -0.0399  0.0143
13708W        W33242   0.661  14.498  15.877  0.1702 -0.0324 -0.2006
13709W        W33243  14.017   3.958   1.668  0.0185 -0.4191  0.2330
13710W        W33244   8.392  10.229   3.168 -0.0615 -0.1446  0.1382
13711W        W33245   6.180  17.916  13.959  0.2958  0.0485 -0.2015
13712W        W33246  15.732   3.173   2.212  0.0060  0.0419 -0.0794
13713W        W33247   0.432   5.042  15.978 -0.0082  0.1897  0.2611
13714W        W33248  14.035  15.081   4.322  0.0882 -0.2928 -0.0708
13715W        W33249  16.089   1.113  12.302  0.1036  0.1744 -0.0006
13716W        W33250  11.893  16.165   3.215 -0.2123 -0.0964 -0.2296
13717W        W33251  14.295  18.185   2.250 -0.1032  0.0424  0.0190
13718W        W33252  15.267  12.639   1.013  0.0932 -0.1271  0.2721
13719W        W33253  14.112  14.147   3.515  0.0126 -0.1457 -0.0476
13720W        W33254  13.941   4.445   3.600 -0.0292 -0.0485 -0.0579
13721W        W33255   4.662  14.924   3.088 -0.1325 -0.3558 -0.0051
13722W        W33256   4.943   7.152  11.954  0.1703 -0.1003  0.1469
13723W        W33257   9.364   3.150  13.626  0.0783 -0.1408  0.0338
13724W        W33258   4.701  11.443  14.941 -0.0674  0.1315 -0.3575
13725W        W33259   5.002  17.981   2.473 -0.0958  0.3084 -0.0758
13726W        W33260  11.368  10.088   0.973 -0.1455  0.0391 -0.0961
13727W        W33261   7.777  15.107  13.709 -0.1962 -0.0502  0.0494
13728W        W33262   7.902   3.809   3.400  0.0482 -0.1798 -0.1097
13729W        W33263  17.587   0.558  13.435 -0.3360 -0.1786 -0.0375
13730W        W33264   0.734   7.093   4.345 -0.0152  0.0713  0.4126
13731W        W33265  11.917  12.234   4.060  0.1115  0.0595 -0.1175
13732W        W33266  16.343   7.177  15.621 -0.1649 -0.1678 -0.0230
13733W        W33267   1.977  12.974   2.265 -0.3582 -0.1713 -0.0542
13734W        W33268  17.126   7.349   3.246 -0.2770 -0.2034 -0.0217
13735W        W33269   7.683   2.431   2.033  0.3301  0.1955  0.1893
13736W        W33270  13.314   7.846  12.368  0.1177  0.0322  0.3492
13737W        W33271   9.017   0.504   1.822 -0.1066 -0.1218 -0.5006
13738W        W33272  16.400  11.776  12.709  0.0331  0.0881 -0.2302
13739W        W33273   7.967   7.216  12.604  0.1461 -0.0133 -0.1356
13740W        W33274  12.481   3.001   2.891  0.0842 -0.1564  0.0962
13741W        W33275   7.431   7.643  15.359  0.2200 -0.0421  0.3389
13742W        W33276   9.930   0.842  13.487  0.0447  0.0875  0.1190
13743W        W33277  10.698   5.389   4.701 -0.0568  0.1125  0.0618
13744W        W33278   6.909  10.417  12.538  0.1328  0.1851  0.0021
13745W        W33279   0.109   9.958   3.997  0.2358  0.0275 -0.2895
13746W        W33280   1.038  16.319  13.784  0.1643 -0.3392 -0.2043
13747W        W33281   1.487   9.814  14.841 -0.1194  0.2945  0.1203
13748W        W33282  12.028   9.633  12.748  0.1573  0.3019 -0.1201
13749W        W33283  13.204   0.300  12.852  0.0925  0.0071 -0.1635
13750W        W33284   2.558   8.471  13.026  0.1808 -0.4450  0.0949
13751W        W33285   6.428   2.695  12.206 -0.0772 -0.3236  0.0870
13752W        W33286  17.857   0.199  11.739  0.0093 -0.1627 -0.3440
13753W        W33287   3.933   2.034   2.983 -0.1259 -0.3639  0.1330
13754W        W33288   7.293  11.344   3.918  0.0083  0.0018 -0.3659
13755W        W33289  16.688  14.290   0.069 -0.0301 -0.2549 -0.0799
13756W        W33290  14.621   1.041   4.720 -0.1445 -0.0949  0.1762
13757W        W33291  13.785  17.067   0.105 -0.1553 -0.0352 -0.4179
13758W        W33292   9.271   7.888  12.257  0.0529  0.1235 -0.0982
13759W        W33293  11.868   2.019  14.233  0.1934 -0.1580  0.0690
13760W        W33294   4.646  11.351  12.094 -0.1132  0.1012 -0.0891
13761W        W33295  10.276  10.538  15.632  0.1311  0.1838 -0.1928
13762W        W33296  12.838   3.780  13.200  0.3326  0.0793 -0.1332
13763W        W33297   0.714   6.318  15.346 -0.3215 -0.0744  0.4349
13764W        W33298   1.513   5.565   4.274  0.2120 -0.3538  0.0210
13765W        W33299  15.885   9.654   2.015 -0.0447 -0.4016  0.1811
13766W        W33300   2.188  18.072   3.508 -0.2253 -0.0519 -0.0213
13767W        W33301  13.725   7.253   3.402  0.2417 -0.2503  0.1767
13768W        W33302  12.425   3.809  15.464  0.1466  0.2863  0.0570
13769W        W33303  12.428   4.069  15.889  0.1139 -0.0540 -0.2784
13770W        W33304  11.090  10.010   5.677  0.1232  0.1176 -0.0362
13771W        W33305   6.680  17.657  13.255 -0.2125 -0.2509  0.2406
13772W        W33306   4.091   0.624   2.251 -0.1038 -0.1493  0.1338
13773W        W33307   1.100   5.352   4.537 -0.1812  0.0413 -0.2828
13774W        W33308   1.141  15.471  14.959 -0.1478 -0.3508  0.0813
13775W        W33309   5.799   1.434   5.011 -0.2899 -0.0886 -0.1874
13776W        W33310  14.278   3.806  10.521  0.1819  0.1581 -0.1199
13777W        W33311  18.081  11.570   1.592  0.1461  0.1013  0.0501
13778W        W33312   5.198  15.489  11.248 -0.2620  0.1534 -0.1246
13779W        W33313  17.135  11.658  13.809 -0.2271  0.2257  0.2322
13780W        W33314   9.917   1.712   3.040 -0.0217  0.1183  0.1047
13781W        W33315   1.301   8.256  12.489  0.3561  0.0170  0.2696
13782W        W33316   3.220   0.990   2.501 -0.0360  0.1900 -0.0623
13783W        W33317  11.091   6.028   2.879  0.1794  0.4944  0.1043
13784W        W33318  15.024  12.435  15.703  0.0138 -0.1697 -0.0691
13785W        W33319   5.653   6.844   0.042  0.1427  0.0255  0.1905
13786W        W33320   9.711   9.941   2.877  0.4006 -0.2823  0.4472
13787W        W33321   3.439   4.162  14.812 -0.0808 -0.0682 -0.0524
13788W        W33322  15.691  18.073   3.616  0.1770  0.2006  0.0384
13789W        W33323  12.230   8.889  14.448 -0.3575  0.1959 -0.0260
13790W        W33324  15.923   2.078  16.010  0.2287  0.2737  0.2955
13791W        W33325   0.913  12.741  15.870 -0.2276 -0.0149  0.0266
13792W        W33326   8.723   7.927  13.859 -0.0807  0.1255  0.2169
13793W        W33327   1.544   0.261   2.503  0.1014 -0.1140 -0.1883
13794W        W33328  12.488   9.560  15.143 -0.3558  0.1355  0.0661
13795W        W33329  16.857   1.475  13.604  0.0923 -0.1591  0.0722
13796W        W33330  15.128   4.533  15.817  0.1410 -0.0958 -0.1390
13797W        W33331  17.894   7.647  15.396 -0.0157  0.3503 -0.0317
13798W        W33332   0.209   4.454   1.565  0.1867 -0.3670 -0.0266
13799W        W33333  16.686   6.355  11.732  0.0753  0.1099  0.1929
13800W        W33334   0.299   6.649   3.281 -0.2000 -0.2960  0.1615
13801W        W33335  13.481  12.499   3.136 -0.2056 -0.1850 -0.2176
13802W        W33336   7.220  10.843  13.356 -0.1237 -0.2520 -0.4605
13803W        W33337   0.312   2.569   9.901  0.0490 -0.1090  0.0495
13804W        W33338  11.367   0.959   3.405  0.1703  0.1054 -0.0915
13805W        W33339   7.292  16.473   0.783  0.0700  0.0921 -0.2303
13806W        W33340  16.144  12.738   2.779  0.0265 -0.0659 -0.2456
13807W        W33341   1.940   4.748   3.830  0.1818  0.0509  0.1711
13808W        W33342   8.608   9.825   3.417 -0.1400  0.1070 -0.2400
13809W        W33343   7.127  16.303  15.590  0.0551  0.1880 -0.0882
13810W        W33344  10.113  12.476   4.380  0.1504  0.2692 -0.1025
13811W        W33345   4.458   5.734  13.171  0.2401  0.0745  0.0939
13812W        W33346  13.918  11.699  14.316  0.2419 -0.2427 -0.3357
13813W        W33347   2.736   0.020  14.814  0.2177  0.1503 -0.1144
13814W        W33348   2.802  17.002   0.326  0.0012 -0.1526 -0.1656
13815W        W33349  15.255  15.524   4.331 -0.1339  0.1484 -0.0760
13816W        W33350  13.934   1.353  13.788  0.0953  0.2219  0.1584
13817W        W33351  11.318  12.077   5.257  0.1006 -0.1402 -0.0600
13818W        W33352   2.426  10.870   3.569  0.0271  0.0040  0.0808
13819W        W33353  18.103   6.991   3.853 -0.0006  0.2327  0.1390
13820W        W33354   5.548  16.887  13.659 -0.2039  0.1338  0.0755
13821W        W33355   6.677   0.518   3.261  0.1190 -0.0547 -0.0062
13822W        W33356   9.234   6.469  15.106  0.1393 -0.0064  0.1648
13823W        W33357  10.832   4.308  11.857 -0.1092 -0.2100  0.1940
13824W        W33358  17.533  15.365  11.372  0.0469 -0.2048 -0.2058
13825W        W33359   6.009  16.198  11.217 -0.1742  0.1254 -0.2074
13826W        W33360   1.912   4.094   1.520 -0.2354 -0.0137  0.1934
13827W        W33361   8.377   0.056  14.069  0.0703 -0.0299 -0.1324
13828W        W33362  10.900  10.130  13.620  0.0856  0.2546 -0.2891
13829W        W33363  14.142   1.302   5.345  0.1228 -0.0280  0.0567
13830W        W33364  10.937   3.383  14.644  0.1957  0.2719 -0.0176
13831W        W33365   4.834   0.264   2.753  0.1921  0.3551  0.1910
13832W        W33366   0.728   6.107   2.052  0.1772  0.1779 -0.0781
13833W        W33367   8.194  11.862   3.045  0.0416 -0.0001  0.1499
13834W        W33368   0.584  17.409   1.908 -0.2466  0.0258 -0.2540
13835W        W33369   4.617   6.991   2.632  0.0911  0.1002 -0.1990
13836W        W33370   7.890  13.046  14.765  0.1568  0.2161  0.0872
13837W        W33371  10.815   3.054  11.589  0.0601 -0.0628 -0.0795
13838W        W33372  18.074  15.706  14.277  0.2347  0.0886 -0.0230
13839W        W33373  12.983   2.605  12.986 -0.1606 -0.2869 -0.2563
13840W        W33374  16.115  12.055  13.995  0.1548  0.0968 -0.0010
13841W        W33375   4.350   7.541   4.409  0.1001 -0.3015 -0.1077
13842W        W33376   2.830  16.391  14.270  0.0716  0.1721 -0.0215
13843W        W33377  17.084  16.998  11.622  0.1204  0.3819 -0.1707
13844W        W33378  11.597  14.645   2.419  0.1645 -0.1910  0.0605
13845W        W33379   3.458  14.208   5.343  0.2674  0.0219  0.1893
13846W        W33380  14.559   0.210   4.667 -0.0479 -0.3807 -0.1091
13847W        W33381  12.695  16.727  11.921 -0.1716 -0.0782  0.3081
13848W        W33382  13.705  12.950   3.053  0.0972 -0.1623 -0.2367
13849W        W33383   0.405   1.266  14.656  0.2326 -0.1237 -0.2094
13850W        W33384  17.779   4.646   4.290  0.2100 -0.1433 -0.0661
13851W        W33385  16.291  11.808   3.679  0.0716  0.0452  0.3760
13852W        W33386   3.787   8.537   2.845  0.1191  0.2845  0.0656
13853W        W33387  15.202   5.408  12.530 -0.0093 -0.0786  0.1770
13854W        W33388  17.375  14.349  12.072  0.0571  0.0121  0.0651
13855W        W33389   5.534  14.003  13.911 -0.1352 -0.3165  0.2834
13856W        W33390  12.793   4.010   4.067 -0.0151  0.0286  0.1299
13857W        W33391   2.690   0.207  12.322  0.0100  0.0471 -0.0959
13858W        W33392  15.347   2.321  14.940 -0.0129  0.4129 -0.0069
13859W        W33393  12.459  17.043  13.762  0.1761 -0.1803 -0.2380
13860W        W33394  12.477  15.631  11.824  0.2249  0.1673  0.1690
13861W        W33395   3.186   4.989  12.597  0.0505  0.0593  0.0802
13862W        W33396  13.621   2.481   3.047 -0.1088  0.3263 -0.2765
13863W        W33397  12.842   6.158   0.473 -0.1965  0.1771  0.3469
13864W        W33398   7.826  10.851   2.925 -0.1324 -0.0977  0.0721
13865W        W33399   3.422   2.602  14.956 -0.1447 -0.0897  0.0423
13866W        W33400   8.043  15.344  15.593  0.1216 -0.1866 -0.0411
13867W        W33401   7.084   2.661   1.222 -0.0619 -0.1909  0.0543
13868W        W33402  16.901  12.448   0.764  0.1899 -0.0867 -0.2121
13869W        W33403  12.573  17.492   0.518  0.0004  0.2370 -0.2867
13870W        W33404   9.627  17.627   3.273  0.0234 -0.0431  0.0721
13871W        W33405   7.366  14.582   4.324  0.1350 -0.1156 -0.1157
13872W        W33406   1.795   1.993   4.928  0.0815 -0.1534  0.0119
13873W        W33407   2.838  15.536  13.972  0.0787 -0.1644  0.1150
13874W        W33408   3.603  16.039  13.720  0.1357  0.1072 -0.1096
13875W        W33409  10.225   7.069   4.341 -0.1228  0.0936 -0.0242
13876W        W33410   5.651  15.025   5.568 -0.0910 -0.2337  0.0272
13877W        W33411  12.628  17.346   2.708  0.1290  0.0876  0.0217
13878W        W33412   7.363  17.929   2.146  0.2969  0.0200 -0.0769
13879W        W33413  15.436  12.603   3.452  0.5130 -0.0313  0.0685
13880W        W33414  10.385  14.982  13.516 -0.0724 -0.1220  0.0670
13881W        W33415   5.377   7.136  12.274 -0.0112 -0.0230 -0.1503
13882W        W33416   8.731  17.341   4.935  0.1313  0.0170  0.1531
13883W        W33417  14.638   9.854  12.830  0.0071 -0.2621  0.1280
13884W        W33418  13.855  16.800  14.109  0.0636  0.1107 -0.4576
13885W        W33419  15.669   8.432   1.387 -0.1735  0.1349  0.1319
13886W        W33420   9.990   9.867   1.020 -0.0541  0.4173 -0.0185
13887W        W33421   9.665  16.818   2.319 -0.4518  0.0426 -0.2416
13888W        W33422  15.795   9.284  13.192  0.0686  0.0013  0.0948
13889W        W33423   7.927  13.066   4.783  0.0596 -0.2744  0.1016
13890W        W33424  10.290   6.341  15.489  0.1070 -0.2149 -0.2891
13891W        W33425   2.044   3.205   1.369  0.0267 -0.0761  0.1242
13892W        W33426  12.783   0.623   1.839 -0.1005  0.1678  0.2778
13893W        W33427  16.488   2.817   2.829  0.0459 -0.0851  0.0042
13894W        W33428   8.775   8.453   5.450 -0.1911  0.0733 -0.1484
13895W        W33429  14.805   6.842   5.427 -0.0879  0.1698 -0.0631
13896W        W33430  13.676  10.110  14.319 -0.0773  0.0914 -0.3829
13897W        W33431  11.841   7.162   2.383  0.1366  0.0274  0.3322
13898W        W33432  12.326  17.532  13.929  0.3412 -0.1713 -0.2424
13899W        W33433  14.349  13.264   2.462 -0.1357 -0.4145 -0.1972
13900W        W33434  17.480   6.498   3.525  0.3453 -0.0766  0.0510
13901W        W33435   9.173  17.064   0.987 -0.3488  0.0423 -0.0201
13902W        W33436   7.803   3.119  11.948  0.0169 -0.3476 -0.0664
13903W        W33437   5.614   7.922  12.906  0.2264  0.0500 -0.0484
13904W        W33438   9.268  13.932   5.465 -0.2823  0.1384  0.3206
13905W        W33439  15.158   4.706   4.891 -0.3087 -0.1209  0.2623
13906W        W33440   7.207  14.214   0.233  0.0608  0.1040  0.0719
13907W        W33441   0.259   3.895   1.154 -0.0535 -0.0352 -0.1903
13908W        W33442  10.358   1.161  13.841 -0.2746  0.0966  0.2889
13909W        W33443  10.459   4.425  11.524 -0.2309 -0.2370 -0.3375
13910W        W33444   3.508  16.770   3.097  0.2566  0.0366 -0.1173
13911W        W33445   8.228   5.415  11.999 -0.0437  0.1191 -0.1487
13912W        W33446  14.070  11.463   3.881  0.0299 -0.0932 -0.1591
13913W        W33447   6.820  10.513   4.590  0.0938  0.1897  0.2268
13914W        W33448  16.295   6.082   0.726  0.1632  0.1272 -0.2995
13915W        W33449  12.469   3.930   1.902  0.1828 -0.2561 -0.2344
13916W        W33450   4.695   1.786  14.079  0.0215  0.2576  0.0869
13917W        W33451   9.610   4.713  14.056  0.0422 -0.1453  0.1092
13918W        W33452   2.885  14.225  11.163 -0.0235 -0.0304  0.1518
13919W        W33453   5.471   9.018   2.114  0.0025 -0.0507 -0.0297
13920W        W33454  18.038   6.182   2.157 -0.2561 -0.1887  0.1755
13921W        W33455  15.029   4.105   4.160 -0.0887  0.2589  0.1707
13922W        W33456   3.453   9.211   1.706 -0.1273  0.1390  0.1115
13923W        W33457  12.681   7.460  15.062  0.0509 -0.1246 -0.1083
13924W        W33458   6.298  12.247  14.336  0.3185 -0.3438  0.0760
13925W        W33459   3.213   5.906  14.983  0.1295 -0.3534  0.1312
13926W        W33460   3.102   7.022   2.286  0.1334 -0.1400  0.0216
13927W        W33461   2.730   3.798   2.587 -0.0337 -0.1453  0.3622
13928W        W33462  12.121  17.416  12.384 -0.0195  0.0290 -0.2331
13929W        W33463  13.781   5.124  15.434  0.1682 -0.1148 -0.0901
13930W        W33464   4.754  14.934  15.136  0.0914  0.2403  0.3789
13931W        W33465   1.786  11.632  14.804  0.2196  0.0847  0.1226
13932W        W33466   6.476  14.824  13.725  0.0079  0.0746  0.0413
13933W        W33467   0.630   9.988   1.755  0.1907 -0.0495 -0.2457
13934W        W33468  16.669  13.984   0.489 -0.1130  0.3296  0.1358
13935W        W33469   9.717  13.617   4.291  0.2683  0.1222  0.1419
13936W        W33470  15.506   9.917  12.056 -0.2268 -0.2622 -0.3943
13937W        W33471   3.945   0.725   2.987 -0.1270  0.0758  0.0511
13938W        W33472  10.791   6.893  11.833  0.1719  0.1476  0.1116
13939W        W33473   6.630   2.326  12.621  0.0007  0.1679 -0.0031
13940W        W33474   5.425  12.005   3.924 -0.0133 -0.0088  0.0345
13941W        W33475  11.724  12.740  14.183 -0.0746 -0.0227  0.0576
13942W        W33476  17.259   1.514   3.194 -0.3383  0.1102 -0.1715
13943W        W33477  17.612  11.757   4.177  0.1174 -0.1706  0.1123
13944W        W33478   2.161  17.649  13.724 -0.2561 -0.1055 -0.0503
13945W        W33479   7.755  12.615  12.693 -0.0925 -0.3080 -0.0618
13946W        W33480   3.042  18.164   2.615 -0.1349 -0.0014  0.0045
13947W        W33481  11.869  16.947   1.317 -0.1764 -0.1714  0.1015
13948W        W33482  11.567   5.860   2.624 -0.0681 -0.0115 -0.1809
13949W        W33483  17.451   5.101  14.723  0.0204  0.0812  0.0346
13950W        W33484   7.509   3.647  13.117 -0.1758  0.2211  0.3045
13951W        W33485  12.655   0.600  15.957 -0.2648  0.0931 -0.0938
13952W        W33486   9.084   3.856  12.523  0.0011  0.1638  0.2943
13953W        W33487  11.254   0.968   2.139 -0.1061 -0.0907 -0.0271
13954W        W33488  13.492  17.578  14.343  0.5102  0.1241 -0.0658
13955W        W33489   3.420   3.081  14.885  0.2679  0.2293 -0.0556
13956W        W33490   4.078  10.075  13.749 -0.0106 -0.2682 -0.2733
13957W        W33491  16.350   8.049  13.721 -0.0116 -0.1937 -0.0669
13958W        W33492  15.195  14.617  13.309 -0.0189  0.2008 -0.1396
13959W        W33493  10.890   7.210  15.463 -0.0573  0.0917  0.0218
13960W        W33494  16.556   0.416  12.445 -0.2556  0.0673  0.2127
13961W        W33495   8.323  14.437  15.612 -0.1722  0.1523  0.0880
13962W        W33496   6.027  13.415   0.432  0.2547  0.1592  0.1791
13963W        W33497  15.153   8.113  14.649 -0.3204  0.1148 -0.0185
13964W        W33498   3.247   5.879   3.571 -0.0806 -0.1532  0.3131
13965W        W33499   1.531   9.913   3.767 -0.1909  0.0225 -0.0690
13966W        W33500   6.052  12.960  12.288  0.1458 -0.1254  0.0970
13967W        W33501   2.931  11.362  11.516 -0.0292 -0.0132  0.0235
13968W        W33502   3.774   8.308   1.980  0.0874 -0.4079 -0.1129
13969W        W33503   9.221  13.586  13.026 -0.0727  0.1589  0.2206
13970W        W33504   4.348  10.564  13.658 -0.2310  0.1207 -0.0092
13971W        W33505   0.197  12.602   4.024 -0.0655  0.1437 -0.0069
13972W        W33506   9.409  17.093  14.775 -0.1033 -0.3360  0.1245
13973W        W33507   4.114  11.475  12.221 -0.2104  0.0019  0.0974
13974W        W33508   8.461   3.248   1.763 -0.0773  0.2780 -0.1822
13975W        W33509  12.700  14.962  14.721 -0.0357 -0.0970 -0.2439
13976W        W33510   0.493   3.240  12.408  0.1310 -0.1971  0.0605
13977W        W33511  10.540  16.550   2.917  0.1794  0.0140  0.0192
13978W        W33512   5.074   4.450   2.454  0.1992 -0.1529 -0.1585
13979W        W33513  15.313  10.702  13.184  0.1475 -0.3465  0.0457
13980W        W33514  13.139   2.270  14.306  0.2051 -0.0747 -0.1099
13981W        W33515   3.391   8.254  12.466  0.2819 -0.1342  0.3145
13982W        W33516  13.378   5.093  15.143  0.1592 -0.1053  0.0039
13983W        W33517   7.894   5.480   5.607  0.0609 -0.0372  0.0514
13984W        W33518   2.195   7.055  12.233  0.0633 -0.1865 -0.2500
13985W        W33519   1.855  16.124  13.447 -0.0883 -0.1968  0.0661
13986W        W33520   4.624  17.824   4.377  0.0967  0.1394  0.1287
13987W        W33521   2.723   5.092  12.880 -0.2419  0.3260  0.3226
13988W        W33522   2.283   4.623   2.432 -0.0958 -0.0372  0.1683
13989W        W33523  11.388   4.061  14.765  0.1082 -0.2031  0.1799
13990W        W33524  16.976  15.021  13.476 -0.1456  0.2175  0.0988
13991W        W33525  14.156   3.237  10.558  0.1726 -0.0597 -0.2418
13992W        W33526   2.954  16.132  14.705  0.0018  0.0637  0.0930
13993W        W33527  14.151  10.621   2.235 -0.4402  0.2030 -0.0862
13994W        W33528   7.083   5.314   3.904  0.2271 -0.0913 -0.0424
13995W        W33529  14.464   5.408  12.119 -0.1020  0.4378 -0.1567
13996W        W33530   2.820  17.606   3.872  0.1961 -0.0326 -0.3328
13997W        W33531  17.993  17.838  13.711  0.2437  0.0991  0.1679
13998W        W33532   1.169  18.169  15.076  0.2030 -0.4922 -0.3625
13999W        W33533  10.232  17.999   3.928  0.2169 -0.1431  0.1208
14000W        W33534   3.925   5.615   0.743  0.0699 -0.1230  0.1390
14001W        W33535  15.970  15.028  15.217  0.0343 -0.0310 -0.0473
14002W        W33536   5.004   7.218  15.062 -0.2155 -0.1506  0.0551
14003W        W33537  12.146   6.738   4.561  0.1885 -0.3058 -0.2474
14004W        W33538  10.534   7.749   0.806 -0.0880 -0.5275 -0.1942
14005W        W33539   9.207   3.979   3.293 -0.1274 -0.1122  0.0159
14006W        W33540   2.692   6.263  11.024 -0.1831 -0.1050  0.1328
14007W        W33541   4.286  10.491   0.911 -0.0270  0.0514 -0.1061
14008W        W33542   0.221   0.734   0.676 -0.2528 -0.4198 -0.3478
14009W        W33543  10.943  12.491   3.996  0.0209  0.2651 -0.0309
14010W        W33544   9.200  11.042   0.377 -0.1546  0.1068 -0.1352
14011W        W33545  14.040  14.849  11.881  0.0907 -0.1312  0.3436
14012W        W33546  13.236   2.182  13.714  0.0007 -0.1038 -0.0103
14013W        W33547  15.932   3.046   3.654 -0.0154  0.0222  0.1041
14014W        W33548  14.783  15.076  10.826  0.0503  0.0693 -0.0693
14015W        W33549   7.760   4.366   1.914  0.1677  0.0051 -0.0461
14016W        W33550  17.073   6.313   2.988  0.1664 -0.0978 -0.2144
14017W        W33551   4.094   0.967  13.126 -0.1014 -0.0321  0.3650
14018W        W33552   4.486   5.808  12.634  0.0700 -0.3380  0.2412
14019W        W33553   8.017   4.983   3.137  0.0627 -0.1828 -0.3638
14020W        W33554  17.233   9.261   1.117  0.1347  0.0032  0.1833
14021W        W33555  14.362   7.619   2.642 -0.3232 -0.0831  0.2073
14022W        W33556  16.228   8.736   4.418  0.0496 -0.0905 -0.1723
14023W        W33557   4.936  12.383   2.006 -0.1716  0.3819  0.0043
14024W        W33558  15.469  17.013  14.293  0.0020  0.1200  0.3865
14025W        W33559  10.240  14.661   3.904 -0.3662 -0.0257 -0.0570
14026W        W33560  11.990   4.713  14.486 -0.0517 -0.0371  0.0575
14027W        W33561   0.836   4.077   4.294 -0.1041 -0.1651 -0.2166
14028W        W33562  15.796  11.439   3.019  0.4170  0.0393 -0.0171
14029W        W33563  11.389  10.913   5.703  0.1098  0.1333 -0.0977
14030W        W33564   5.675  16.761   2.808  0.5261 -0.0188  0.0318
14031W        W33565  13.053  15.068  15.472 -0.1469  0.0530  0.1973
14032W        W33566  16.711  15.348   1.377 -0.0439  0.2014 -0.1172
14033W        W33567   0.114  17.638  14.447 -0.0707 -0.1108  0.1389
14034W        W33568   5.409   8.501   1.400  0.0602 -0.2206  0.0537
14035W        W33569  14.113  15.335  15.494  0.0539 -0.3105 -0.6593
14036W        W33570  17.815  11.457   1.990 -0.0378 -0.0061  0.2875
14037W        W33571  14.480  16.018  12.754 -0.1949 -0.2357 -0.2987
14038W        W33572  16.647   0.688   4.324  0.1021 -0.0425  0.3632
14039W        W33573   5.051   6.304   4.408  0.1378  0.4001  0.1832
14040W        W33574  10.520  17.707  15.174 -0.3057 -0.0723  0.1695
14041W        W33575   0.607   6.380   1.122 -0.1638 -0.2421  0.0205
14042W        W33576   2.831   5.564   1.757  0.0657  0.4164  0.0066
14043W        W33577  14.363  10.592   4.444  0.0461 -0.1074 -0.0059
14044W        W33578  11.509   1.262   4.377 -0.2377  0.0489 -0.0125
14045W        W33579  10.819   6.094   2.222 -0.0527  0.0730  0.0184
14046W        W33580   1.378   5.038  13.792  0.2800 -0.1879 -0.0107
14047W        W33581  10.328  17.200   3.566  0.2500 -0.1551 -0.0782
14048W        W33582   3.370   7.414   2.179  0.0784 -0.1514 -0.0374
14049W        W33583  13.233  11.519   4.925 -0.2871  0.1137 -0.3282
14050W        W33584  16.329  13.731   3.538  0.0938 -0.0899  0.1862
14051W        W33585   1.117   1.201  15.477  0.0920  0.0207  0.3163
14052W        W33586   6.514  12.877   0.016  0.1355  0.1295 -0.1076
14053W        W33587  17.633   8.953  13.464  0.0184 -0.0464  0.0184
14054W        W33588   1.345   6.984   1.376 -0.0246  0.3046 -0.3159
14055W        W33589   9.118   7.656  15.990 -0.1038 -0.0173 -0.0371
14056W        W33590  17.461   9.207   0.431  0.2664 -0.0676 -0.3470
14057W        W33591  15.790   1.277   1.948  0.0904 -0.1215 -0.2224
14058W        W33592  14.688   2.236   3.750 -0.0730  0.0408 -0.1551
14059W        W33593  11.994  12.697  12.111 -0.0067 -0.2116 -0.1621
14060W        W33594  17.254   5.611  11.950  0.0502  0.0530 -0.0092
14061W        W33595   2.929  17.025   0.902  0.1813 -0.1892 -0.2459
14062W        W33596   8.157   4.368   2.356 -0.0563 -0.1793  0.0393
14063W        W33597   7.298   3.418   0.716  0.0221 -0.0572 -0.0069
14064W        W33598  16.568  14.501   4.150 -0.2832  0.0654  0.0961
14065W        W33599  13.522   6.640  15.482  0.0396 -0.0048  0.2795
14066W        W33600   7.987   6.192   3.678  0.0615  0.1333  0.0838
14067W        W33601   8.433   7.834  14.224  0.3636  0.0222 -0.0370
14068W        W33602   4.632   0.780   0.478 -0.2438 -0.1440  0.2487
14069W        W33603   9.744   7.445   3.978 -0.2387  0.2013 -0.0297
14070W        W33604   7.958   0.157  13.800  0.4168  0.2448 -0.1058
14071W        W33605  14.232   9.767   4.301 -0.0996  0.0183 -0.4160
14072W        W33606   2.056   3.761  13.502 -0.2196 -0.1318 -0.1785
14073W        W33607   8.211  10.986  12.441  0.2158 -0.1353  0.0757
14074W        W33608   9.586   3.934  12.236  0.1001  0.1800 -0.0891
14075W        W33609   0.171  17.572  13.481 -0.0962  0.0916  0.1005
14076W        W33610  16.370  14.049   0.856 -0.0993 -0.3057  0.0085
14077W        W33611   8.322  12.841   2.373  0.2355  0.0780  0.0508
14078W        W33612  15.304   3.568   0.586  0.1659 -0.0339 -0.1195
14079W        W33613   9.027  12.111   0.871 -0.0720 -0.3079 -0.1463
14080W        W33614   6.087   7.925   1.582  0.2804 -0.1405  0.0681
14081W        W33615  16.778  13.495  13.593 -0.2721 -0.1858  0.2352
14082W        W33616   0.838   8.055   0.500  0.0630  0.1822  0.3860
14083W        W33617  11.387   8.225  15.967  0.5517 -0.2725  0.1708
14084W        W33618  10.111   1.842  14.545 -0.1689  0.1856 -0.2422
14085W        W33619   6.689   0.901   1.576  0.2693  0.2150  0.2160
14086W        W33620  14.546  12.579  12.708  0.2324  0.1045 -0.1372
14087W        W33621  17.420  14.773  13.644  0.1800 -0.0580  0.1718
14088W        W33622   5.327  13.197   2.553  0.1836  0.2075  0.1626
14089W        W33623  11.865   8.191   1.518  0.1640  0.1752 -0.1173
14090W        W33624   6.351  12.214   4.133  0.2900 -0.1213  0.1660
14091W        W33625  13.449  16.653   0.397  0.1958 -0.1962 -0.0031
14092W        W33626  10.504   0.813   3.824 -0.2375 -0.2012  0.1869
14093W        W33627  10.699  16.073  14.376 -0.0468 -0.0378  0.4420
14094W        W33628  15.050   6.636  15.110 -0.2543 -0.0309 -0.1658
14095W        W33629   6.500  17.012  12.452 -0.3150 -0.0161  0.3074
14096W        W33630  13.704   0.316   0.996  0.0210  0.0102 -0.1137
14097W        W33631   1.318   8.738  11.742 -0.3096 -0.3418 -0.0173
14098W        W33632  11.619  18.085  15.620 -0.0943 -0.0581 -0.1761
14099W        W33633   2.761  11.647  12.402 -0.2875  0.3269  0.0494
14100W        W33634   7.799   1.519   2.207 -0.3597 -0.1328  0.3318
14101W        W33635   4.809   7.601  11.698 -0.0956 -0.0516 -0.0130
14102W        W33636   2.493  11.386   0.932  0.2352  0.0101 -0.0302
14103W        W33637   6.823   4.292   0.174  0.0132  0.0302 -0.0875
14104W        W33638   4.256   3.054  14.008  0.2765 -0.1175  0.3511
14105W        W33639  13.407  16.553  14.066  0.2604  0.0062  0.3695
14106W        W33640  16.848   6.843   1.010 -0.0069  0.1648 -0.0230
14107W        W33641  13.279  15.675   1.439  0.2202  0.1885 -0.2380
14108W        W33642  12.897  11.534   5.833 -0.0062  0.2205 -0.1459
14109W        W33643   4.337   3.534   4.111  0.0255  0.0484 -0.1150
14110W        W33644   6.556   1.803   2.026 -0.0126  0.3077 -0.1236
14111W        W33645   4.072  18.045  13.197 -0.0423  0.0725 -0.2684
14112W        W33646  15.360   4.777   0.224 -0.0115 -0.3415 -0.2766
14113W        W33647  16.071   5.813  12.784 -0.1396 -0.1235  0.2357
14114W        W33648   9.147  11.280  15.161 -0.0021  0.2077  0.0582
14115W        W33649   5.550   5.877  13.881  0.0357  0.3318  0.4290
14116W        W33650   9.929   8.008  14.752  0.3263 -0.0003  0.2669
14117W        W33651   7.604   2.893  15.460  0.0100 -0.1151 -0.0881
14118W        W33652  13.963  10.492  12.668  0.2081  0.2977  0.2225
14119W        W33653  17.588   5.053  15.689 -0.0817 -0.1323 -0.3111
14120W        W33654   2.165   4.203  15.436  0.0081 -0.2539 -0.0969
14121W        W33655  11.055   6.431  11.314 -0.0586  0.2168 -0.1336
14122W        W33656   3.447  11.618   4.152  0.4763 -0.1628  0.1025
14123W        W33657   2.606  11.512   0.445  0.1161  0.2378  0.1622
14124W        W33658   3.301   2.074  15.909 -0.0578 -0.1159 -0.0540
14125W        W33659   7.156  11.648   0.072 -0.5343  0.1353  0.3285
14126W        W33660  15.228  16.037  11.577 -0.0446  0.2679 -0.2921
14127W        W33661  17.979   5.214   2.107 -0.1361 -0.0592  0.0876
14128W        W33662  16.105   2.014   2.657  0.3154 -0.0737 -0.0921
14129W        W33663   3.941  13.135   0.861 -0.1233  0.0648  0.1214
14130W        W33664   1.850   9.780   3.416  0.1183  0.0256 -0.0983
14131W        W33665   1.355   2.860  14.047  0.1756 -0.1488  0.0015
14132W        W33666   1.452   9.070   3.798  0.0971 -0.1736  0.2811
14133W        W33667  16.143  14.204   1.391  0.0640 -0.1490 -0.0464
14134W        W33668   1.730  16.371  15.284  0.0170  0.0450  0.1403
14135W        W33669  15.330  15.823   5.120 -0.1812  0.1188 -0.2885
14136W        W33670   8.266  15.664  13.102  0.0083 -0.1878 -0.0434
14137W        W33671  13.336  12.061   4.828  0.4294  0.3342  0.1456
14138W        W33672  14.979   5.233  12.144  0.1512 -0.0916  0.1227
14139W        W33673   9.640  13.526  14.014  0.2840  0.1047  0.3610
14140W        W33674   4.844  17.641   0.371  0.1555 -0.3804 -0.0400
14141W        W33675  12.957   5.324   2.431 -0.0917  0.2420 -0.4339
14142W        W33676   3.021   4.446  13.494  0.0749  0.1700 -0.0993
14143W        W33677  12.326   9.022   4.650  0.0089 -0.0803  0.0068
14144W        W33678   0.869  14.299  12.217  0.0822  0.2130  0.0052
14145W        W33679   8.146   5.312  15.759 -0.1353  0.2906  0.1408
14146W        W33680   5.768  10.668   0.835 -0.1572 -0.1116  0.2155
14147W        W33681   9.630   8.891   0.898 -0.2807  0.1287  0.2497
14148W        W33682  16.108   6.184  13.780 -0.1961 -0.1794 -0.4835
14149W        W33683   0.005  13.610   4.225 -0.3773 -0.0289 -0.1451
14150W        W33684   8.111   7.941  13.093  0.0531 -0.1654 -0.3286
14151W        W33685  11.103  15.331  11.476 -0.2093  0.4036 -0.0759
14152W        W33686   6.525   0.852   2.428 -0.2632 -0.3598 -0.3543
14153W        W33687   3.087  10.469  14.540  0.0729  0.1519  0.1440
14154W        W33688  13.504  11.053   2.780  0.1804  0.0406  0.4048
14155W        W33689   2.753  13.185  12.823 -0.1135 -0.1195  0.0994
14156W        W33690   0.177  10.241  14.046  0.1978  0.0136  0.2177
14157W        W33691   9.671  16.219  12.855  0.1339  0.0164  0.1599
14158W        W33692  14.125   1.615   1.259  0.1725 -0.1844  0.1522
14159W        W33693   6.236  14.838   5.744  0.0371 -0.1008  0.0388
14160W        W33694   9.991  12.244   3.946 -0.1455  0.0495 -0.2550
14161W        W33695   6.659   2.563   1.058  0.3203  0.1876 -0.1210
14162W        W33696   1.305   6.877   0.772  0.2108 -0.2110 -0.1551
14163W        W33697  12.313   1.069   1.890 -0.3526 -0.4390 -0.0661
14164W        W33698   4.317  10.009   0.256 -0.0362 -0.1817  0.0869
14165W        W33699  12.108  16.927  14.240 -0.1448 -0.0039  0.0806
14166W        W33700   6.688   2.972  12.505  0.2522  0.2971  0.3380
14167W        W33701   9.398   6.769   4.496  0.3793  0.2494 -0.0547
14168W        W33702   7.214   1.724  11.559  0.2444 -0.1225 -0.1819
14169W        W33703  12.298   3.769  12.980  0.0482  0.2399  0.2460
14170W        W33704   2.138  13.024   1.810 -0.1219 -0.1625 -0.3959
14171W        W33705   4.664  14.079  12.810 -0.2378 -0.1726  0.0782
14172W        W33706   9.540   7.459   0.109 -0.2095  0.1063 -0.2434
14173W        W33707   2.448  13.340   3.889  0.0288  0.2279  0.1768
14174W        W33708   1.568   3.208   3.060  0.0053 -0.0546  0.1514
14175W        W33709   1.003   4.652   2.165 -0.2848 -0.2232  0.1495
14176W        W33710  14.699   7.699   4.361 -0.4219  0.0896  0.0284
14177W        W33711  17.592   1.204   0.456  0.1205  0.1757 -0.1617
14178W        W33712   4.527  15.680  14.551  0.0794  0.2131  0.0515
14179W        W33713   2.404  14.047   3.072 -0.2444 -0.2043  0.1126
14180W        W33714  12.101  12.887  11.280 -0.0552  0.1442 -0.1291
14181W        W33715  10.471   3.591  14.804  0.2608 -0.0498  0.2312
14182W        W33716   9.459  13.444   3.840 -0.2692 -0.0107  0.1474
14183W        W33717   7.500   3.040  14.470 -0.1320 -0.2610 -0.0137
14184W        W33718   4.636   5.838   3.333  0.1729 -0.0933 -0.0891
14185W        W33719  12.639  11.591  12.539 -0.1144  0.0254 -0.1003
14186W        W33720   4.782   3.727   3.024 -0.0774  0.1885  0.2733
14187W        W33721  15.777   2.652   3.217  0.1305 -0.0880 -0.2141
14188W        W33722  12.669   4.783  14.333 -0.0662 -0.1391 -0.1087
14189W        W33723   2.429  16.014  13.133  0.2767 -0.1392  0.1546
14190W        W33724   7.356   7.000   2.573  0.0051 -0.0707  0.2613
14191W        W33725  16.485  13.479  15.832 -0.0115  0.1700  0.0330
14192W        W33726  15.489  15.879  13.547  0.0874 -0.0579 -0.0513
14193W        W33727  12.455   6.461  15.234  0.0597  0.3460  0.1553
14194W        W33728  12.179   9.143  12.858  0.2201  0.0181  0.0172
14195W        W33729  15.948   3.474  12.570 -0.0335  0.2711  0.3077
14196W        W33730   2.672  15.211   4.679  0.1784 -0.2110  0.0713
14197W        W33731  12.609   4.675   4.544  0.3949 -0.1334 -0.1170
14198W        W33732   1.259  13.759   0.986 -0.3768  0.0728  0.0980
14199W        W33733   0.100  15.585   2.094  0.2537  0.0087  0.0876
14200W        W33734  13.246   7.219   4.263  0.1982 -0.0254  0.0466
14201W        W33735   6.019   7.264  14.191 -0.0775  0.2372 -0.1173
14202W        W33736   9.804   4.987   0.590  0.1311 -0.1639 -0.1471
14203W        W33737  16.074  11.095   1.855 -0.0183  0.0748 -0.1782
14204W        W33738  11.188   1.040  14.743  0.0801 -0.1004 -0.0024
14205W        W33739   7.486  11.526  14.005 -0.1491 -0.1599  0.1666
14206W        W33740   3.314  14.808   1.423 -0.2709  0.2049  0.1539
14207W        W33741  13.412   1.015  12.307  0.1134 -0.0653 -0.2543
14208W        W33742   5.402  13.093  13.539 -0.0581 -0.1443  0.0462
14209W        W33743  10.887   0.625   4.220 -0.0454  0.0260  0.1367
14210W        W33744  18.001   8.812   1.915  0.0465 -0.2076  0.3379
14211W        W33745  16.713  13.589  12.091 -0.0873 -0.1563  0.1310
14212W        W33746  17.833  15.238  12.774 -0.0023  0.1108  0.2028
14213W        W33747  17.722   2.844   2.404  0.0563 -0.2004 -0.3020
14214W        W33748  13.405  17.007   3.848 -0.0721  0.1182 -0.1099
14215W        W33749   0.137  10.868   4.623 -0.0064 -0.1488  0.0272
14216W        W33750   7.930  15.113  11.875 -0.2442 -0.0034 -0.0582
14217W        W33751   2.257  13.392   5.190 -0.0236  0.0082  0.0370
14218W        W33752   0.996  17.455  12.724  0.1438  0.0733 -0.1645
14219W        W33753   4.863   0.141   1.134  0.2248 -0.0065  0.0680
14220W        W33754   0.826  11.480   4.692 -0.0457 -0.2924 -0.1628
14221W        W33755   3.827   9.061  13.491 -0.0427 -0.0534 -0.1182
14222W        W33756  12.562  15.253  15.125  0.1820 -0.3108 -0.2289
14223W        W33757  11.557  15.046  11.998  0.2863 -0.2384 -0.0689
14224W        W33758   0.473  10.709   4.276 -0.2036  0.1722  0.1253
14225W        W33759   7.805   8.533  13.988 -0.1494  0.0791 -0.1266
14226W        W33760   9.208   4.303   2.820  0.1898 -0.1348  0.0710
14227W        W33761   8.157   4.521   0.098 -0.0357  0.0389 -0.0301
14228W        W33762  15.622   2.321   1.245 -0.2342  0.0855  0.0040
14229W        W33763  17.079  11.605   4.334  0.0486  0.0245  0.0415
14230W        W33764  17.560   5.019   1.885 -0.1948 -0.0337 -0.2497
14231W        W33765   6.799  12.996  13.464  0.1817  0.2407 -0.0583
14232W        W33766   0.648   3.664   2.232  0.0246  0.0505  0.1204
14233W        W33767  18.132  15.745  13.519 -0.3918  0.1503 -0.0834
14234W        W33768  16.381   5.411  12.672 -0.0054  0.0104  0.0089
14235W        W33769  18.100   6.686  15.185  0.1407  0.0416 -0.3775
14236W        W33770   3.961   2.836   4.123 -0.0880 -0.1352 -0.3849
14237W        W33771  11.310   9.768   1.909 -0.1966  0.0396 -0.1184
14238W        W33772   4.455   7.425   1.046  0.4206  0.2130  0.1987
14239W        W33773  12.548   9.596  12.883  0.0301 -0.0523 -0.1108
14240W        W33774  13.219   3.519  15.670 -0.2110  0.2546 -0.1048
14241W        W33775   2.769  11.627   2.479 -0.0247 -0.0494 -0.2604
14242W        W33776   7.553   3.844   2.684  0.1035  0.3690  0.0375
14243W        W33777   1.399   9.527  13.587 -0.2339 -0.0796  0.0390
14244W        W33778  16.809   6.324   4.118  0.2951 -0.0591 -0.0643
14245W        W33779  15.762  11.446  14.498 -0.0187 -0.0914 -0.1752
14246W        W33780   0.639   1.149  12.050 -0.0551 -0.0929  0.0281
14247W        W33781   8.059  12.397  13.891 -0.2133 -0.0688  0.0436
14248W        W33782   2.069  13.147   0.862  0.0173  0.1535 -0.1016
14249W        W33783   4.333  11.773   3.045 -0.0529  0.1232  0.0249
14250W        W33784   0.431  18.143  14.985  0.2660 -0.0358 -0.3107
14251W        W33785  13.990  13.566   2.095  0.3292 -0.0795  0.4001
14252W        W33786  16.652   0.469   2.027 -0.0506  0.0717 -0.0051
14253W        W33787  11.600   6.021  12.533 -0.1719 -0.2061 -0.0552
14254W        W33788   8.666   7.771   2.413  0.0477 -0.4181 -0.3121
14255W        W33789  16.287   0.131  15.613  0.1954 -0.0335 -0.0771
14256W        W33790  14.395  12.698   3.257  0.2115 -0.0267  0.2735
14257W        W33791  11.858  17.867   0.013  0.1763  0.0021  0.4737
14258W        W33792  15.312  11.602  15.122 -0.2196  0.3511  0.0967
14259W        W33793  14.901  11.692   3.991 -0.0829 -0.3432 -0.1505
14260W        W33794   4.673   6.703   3.183 -0.0908 -0.2706 -0.1671
14261W        W33795  17.623   9.812  11.967 -0.1632 -0.0463  0.0134
14262W        W33796   7.431   2.472  11.568 -0.0653 -0.1375  0.1318
14263W        W33797  15.499   9.664   3.347 -0.1948 -0.0322 -0.0384
14264W        W33798   5.895   4.626  14.892  0.0505 -0.1350 -0.1417
14265W        W33799   9.411   9.532  12.683 -0.4916 -0.0437  0.0226
14266W        W33800  11.025  10.190   1.969 -0.0922 -0.0214 -0.1038
14267W        W33801   5.167   1.697  13.973  0.2021  0.0087  0.3408
14268W        W33802   0.466  12.211  15.988 -0.1908 -0.1121 -0.3005
14269W        W33803   9.919  10.653   4.991 -0.2039 -0.0318 -0.4028
14270W        W33804  13.926   6.601   2.314 -0.0524 -0.3899  0.1112
14271W        W33805   5.487   5.176  13.290  0.0861  0.2466 -0.0959
14272W        W33806   2.621  14.516   2.586 -0.1563 -0.0300 -0.0184
14273W        W33807  16.122   8.190  12.012  0.0805 -0.1550  0.0729
14274W        W33808  13.737  16.948   3.454 -0.0443 -0.0917  0.0481
14275W        W33809   3.434   8.420   0.746 -0.1759  0.0185  0.0250
14276W        W33810   8.827   6.176   1.579  0.1056 -0.0390  0.3621
14277W        W33811   6.334  17.668  15.451 -0.1397 -0.1190 -0.1424
14278W        W33812   8.767   1.158   4.269 -0.4236  0.1050  0.1834
14279W        W33813   9.749  10.709  15.704  0.1481 -0.2836  0.0196
14280W        W33814   1.783  12.499   2.752 -0.0453 -0.1930  0.2301
14281W        W33815  14.066  10.931  15.604  0.0707  0.0540 -0.0269
14282W        W33816  11.754   0.622   5.046  0.3803  0.1710 -0.1175
14283W        W33817  14.176   4.860   3.771 -0.0004  0.4027 -0.2849
14284W        W33818   0.717   2.498  13.028  0.0152  0.0979  0.0295
14285W        W33819  16.671   6.951  14.734  0.0829 -0.2406  0.1150
14286W        W33820   5.959  11.089   1.029  0.1453  0.2214  0.3225
14287W        W33821  10.482  15.492  12.760 -0.1544  0.1714 -0.0034
14288W        W33822  11.216   4.936   1.553  0.1124 -0.0749 -0.1001
14289W        W33823   6.980   7.637  11.752  0.2728  0.1841  0.1120
14290W        W33824  14.097   7.035  12.565  0.0511 -0.4086 -0.3308
14291W        W33825   9.044  14.238  14.041 -0.3850  0.1238 -0.1690
14292W        W33826  17.401  11.930   2.091 -0.0959  0.1204  0.0624
14293W        W33827   2.006   3.255   4.189  0.0933  0.0234  0.2425
14294W        W33828   2.739  10.009   3.409  0.1040 -0.0238  0.0606
14295W        W33829   0.717  10.915  12.811 -0.1346  0.1899  0.0312
14296W        W33830  13.750   7.625  11.945 -0.2204  0.2272  0.2118
14297W        W33831   5.621  12.870  14.518  0.0137  0.1974 -0.0227
14298W        W33832   8.330   9.502  12.267  0.0181 -0.2129 -0.1111
14299W        W33833   6.818  12.712  12.619  0.3797  0.0344 -0.0209
14300W        W33834   5.767   3.731   2.007  0.0923 -0.2264  0.0292
14301W        W33835   4.687   5.289   0.049  0.2974  0.2025  0.1564
14302W        W33836   6.110  17.580   3.327 -0.0396 -0.0099 -0.0170
14303W        W33837  16.766  17.295   3.968  0.1076  0.2180 -0.1303
14304W        W33838  11.511   5.605   0.774  0.0020  0.2747 -0.1616
14305W        W33839  13.539  10.921   0.074 -0.0076  0.1641 -0.1751
14306W        W33840  16.768  14.384  12.918 -0.1374 -0.1175 -0.1101
14307W        W33841  14.259  12.497   1.842 -0.2173  0.3116  0.2590
14308W        W33842  17.652  12.927   4.381  0.0803 -0.0176  0.1679
14309W        W33843   4.124   8.488   1.592  0.1487  0.1652 -0.0055
14310W        W33844  12.084   8.297   2.952  0.1868  0.0830 -0.1247
14311W        W33845  15.360  14.912  15.961  0.0961 -0.0307  0.1066
14312W        W33846   3.021   7.778   0.126 -0.1296 -0.3037  0.1891
14313W        W33847  10.733   3.956  15.191 -0.1224 -0.0119  0.0630
14314W        W33848   0.078   7.602  15.080 -0.3638 -0.2595  0.1398
14315W        W33849   5.821   7.162  14.676 -0.1372 -0.1033  0.1088
14316W        W33850   3.640   4.198  15.745 -0.2181 -0.0399 -0.2708
14317W        W33851   6.070  16.622   3.071  0.0567  0.0105  0.3416
14318W        W33852  11.214   3.108   0.505 -0.0502  0.0666  0.2590
14319W        W33853   8.824   6.723   2.348  0.3861  0.0156  0.2075
14320W        W33854   8.047  13.899  11.627  0.0374 -0.2093 -0.0547
14321W        W33855   9.001  10.151  11.233 -0.0357  0.2185 -0.0663
14322W        W33856   0.742  13.379  15.039  0.1810  0.1653  0.1499
14323W        W33857   4.073  16.090   3.534  0.0530  0.0428  0.0314
14324W        W33858  14.298   6.359  15.000  0.0167 -0.0473  0.1371
14325W        W33859   2.895  11.670  15.405 -0.2691 -0.1659  0.2425
14326W        W33860  11.099   2.027  14.777  0.0704  0.2063  0.4305
14327W        W33861   3.698  15.160  14.100  0.2457 -0.1043 -0.1368
14328W        W33862  15.485  16.895   3.265 -0.2648 -0.0195 -0.1302
14329W        W33863   7.898  15.379  13.293  0.1419 -0.0004  0.1702
14330W        W33864  12.209   3.671   2.336 -0.0020  0.3311  0.2515
14331W        W33865   9.095   4.632   5.443 -0.0312 -0.2298 -0.0320
14332W        W33866  14.577  11.223  14.750 -0.1431  0.1389  0.0750
14333W        W33867  13.368  13.591   3.876 -0.4558 -0.0270 -0.2929
14334W        W33868  17.142   5.295   2.098 -0.0991  0.2186  0.1869
14335W        W33869  10.977   2.138  13.873  0.1019  0.0778 -0.0339
14336W        W33870  17.840   2.919   6.131 -0.1531  0.1195 -0.0405
14337W        W33871  13.080  11.301  15.412 -0.0623 -0.1330 -0.3780
14338W        W33872  10.078   1.632  15.438  0.3761 -0.0318  0.2567
14339W        W33873   0.995  11.679   0.934  0.1177 -0.1453  0.0891
14340W        W33874   5.341   5.499  12.268  0.0734  0.1758  0.1664
14341W        W33875  11.135  11.870  12.328  0.0328  0.0367 -0.0920
14342W        W33876   7.998  17.906   4.108  0.0349  0.1048  0.1936
14343W        W33877   6.890   5.891  12.418 -0.1385  0.1332 -0.1684
14344W        W33878  12.129  10.302   1.138  0.1044  0.0602 -0.0938
14345W        W33879   6.833  10.134   4.904  0.0972  0.1661 -0.2086
14346W        W33880  11.702  17.063   3.032 -0.2170  0.0673  0.2316
14347W        W33881   3.189  11.661   4.661 -0.0637 -0.1740 -0.2847
14348W        W33882   2.875  16.580   1.687  0.2697  0.1230 -0.3417
14349W        W33883   8.851  14.091   1.710 -0.1040 -0.1572 -0.0061
14350W        W33884   7.868  18.006   3.468  0.1813  0.0124  0.1575
14351W        W33885   8.611  17.793   4.690 -0.1828  0.2926  0.1214
14352W        W33886  13.161  13.525   1.307 -0.0498 -0.3155 -0.0005
14353W        W33887  12.741   6.889   2.789  0.0829 -0.1539  0.3825
14354W        W33888  13.650  13.830  14.555 -0.1953  0.1489  0.1814
14355W        W33889   8.510   0.791   0.268 -0.1286  0.0147  0.0625
14356W        W33890   0.732  11.134   2.517 -0.1819  0.0971  0.1518
14357W        W33891   1.761   1.598  15.959 -0.2856  0.0655 -0.0283
14358W        W33892  13.342   0.527  13.857 -0.1375 -0.0037  0.0496
14359W        W33893  14.469  11.561   3.212  0.2304  0.1891 -0.2923
14360W        W33894  15.404   0.456   1.635  0.1348  0.0176  0.0115
14361W        W33895   5.038   4.418  15.951  0.2798 -0.0906 -0.3335
14362W        W33896   0.640   4.413   4.579 -0.0143 -0.1919  0.1102
14363W        W33897   3.099   7.755  13.548  0.0010  0.3013  0.1192
14364W        W33898  17.445  16.230  14.521  0.0489  0.4162 -0.2020
14365W        W33899  12.701   4.763  13.384 -0.0638 -0.1265  0.0434
14366W        W33900   0.793  12.934   4.333 -0.0094 -0.1744 -0.1903
14367W        W33901   4.242   0.875  14.606 -0.0215 -0.0121 -0.0785
14368W        W33902  13.452   4.389  14.438  0.0484  0.0045 -0.3095
14369W        W33903  11.958   9.110  13.768 -0.0666  0.1252  0.1345
14370W        W33904  13.871   7.576  13.382 -0.2124 -0.1978  0.2789
14371W        W33905   9.546   3.047  15.642 -0.1154  0.0043  0.1436
14372W        W33906  16.065   7.559   4.299 -0.3988  0.0880  0.0197
14373W        W33907  14.110   6.493  12.874  0.0593 -0.1074 -0.1191
14374W        W33908  10.217  16.626   2.155  0.1283  0.0689  0.0747
14375W        W33909  10.413  16.661   1.564  0.0206 -0.0592  0.1688
14376W        W33910   2.109   6.937   4.267  0.1900  0.0760  0.2817
14377W        W33911   2.807   4.163   0.925  0.2246  0.2931 -0.5732
14378W        W33912  15.428  12.935   5.911  0.1458 -0.0138 -0.0580
14379W        W33913   8.728   7.203  13.010  0.4234 -0.1253  0.0937
14380W        W33914  13.665   7.361  12.359  0.0907 -0.1116 -0.4845
14381W        W33915   4.837   2.048   0.677 -0.1612  0.0073 -0.0129
14382W        W33916   2.834   0.055   0.899  0.0723 -0.0441 -0.1410
14383W        W33917   2.125   8.081   1.138  0.1306  0.3737  0.1375
14384W        W33918   9.896  15.530  13.148 -0.0685  0.2586  0.1636
14385W        W33919  11.485   1.254   0.424 -0.0173  0.0712 -0.1703
14386W        W33920  10.115   8.347   1.991  0.2318  0.0001 -0.1208
14387W        W33921   4.434  15.163   2.683  0.1627 -0.1906  0.0370
14388W        W33922   0.855   9.297  15.323 -0.0042 -0.1127  0.2103
14389W        W33923   2.927   9.662  14.034  0.0823  0.1014 -0.1164
14390W        W33924   6.094   2.739  15.254 -0.2687 -0.0555 -0.2485
14391W        W33925  17.511  16.929  13.859 -0.0058  0.1799  0.3290
14392W        W33926   0.734   0.375  14.957  0.0485 -0.1756  0.2970
14393W        W33927  14.115   0.546   4.135  0.0292 -0.1538 -0.0958
14394W        W33928  11.185  12.116  12.833  0.1002  0.0853  0.1135
14395W        W33929   0.530  14.213   2.593  0.0211 -0.0001 -0.2540
14396W        W33930   1.662   5.444  15.420  0.1895  0.1871  0.0572
14397W        W33931   7.936   0.400   2.081 -0.1678 -0.1473  0.2516
14398W        W33932  15.373   0.237  12.243 -0.0253  0.1871 -0.1290
14399W        W33933   5.304   7.443   0.638  0.0488  0.0439 -0.0520
14400W        W33934   5.796   0.143   4.146 -0.2015  0.1401 -0.1381
14401W        W33935  13.208   6.901   2.959  0.0508 -0.3478 -0.0704
14402W        W33936   8.379  10.104  16.025  0.2564  0.3802  0.0593
14403W        W33937  18.149   4.275   2.508  0.2406 -0.3291 -0.0003
14404W        W33938   0.146   2.226  11.616 -0.3119  0.2620  0.0132
14405W        W33939  11.428   5.346   2.708  0.3103  0.1034  0.0104
14406W        W33940  16.351   2.105   5.647  0.0203  0.0612 -0.4675
14407W        W33941  16.183  12.827   4.504  0.0225 -0.2356 -0.2274
14408W        W33942   7.855   9.657   1.478  0.1951  0.2067  0.0424
14409W        W33943   3.979  14.700  11.319  0.0659 -0.0909 -0.1446
14410W        W33944  17.565   9.087  14.296  0.1373  0.1088  0.1648
14411W        W33945  13.130   4.311  11.311 -0.2706  0.0744  0.2240
14412W        W33946  13.510   5.437   1.608 -0.3003  0.2955  0.0439
14413W        W33947  15.778   3.817   0.943 -0.0134  0.0519 -0.2045
14414W        W33948  15.550   4.377  15.441  0.0701 -0.2161 -0.1908
14415W        W33949  15.472  10.322  15.929  0.1965 -0.0329 -0.2200
14416W        W33950  17.282   0.135  14.126  0.0443  0.2359  0.0856
14417W        W33951  10.845   8.473  14.708  0.2660 -0.1463  0.4267
14418W        W33952  16.748   4.676  14.669 -0.1202 -0.2846 -0.2319
14419W        W33953  10.351   1.357   2.260  0.4197  0.1369 -0.2368
14420W        W33954  16.217  14.579  11.943 -0.3224  0.5086 -0.3293
14421W        W33955  15.190  13.999  15.120 -0.2975 -0.1290 -0.2508
14422W        W33956  15.552   2.820  13.800 -0.0400 -0.2309 -0.2303
14423W        W33957   9.123  13.503  14.962  0.1643 -0.1828 -0.1599
14424W        W33958  13.288  17.321   2.280 -0.0294  0.0487 -0.5468
14425W        W33959  15.955   0.371   0.265  0.1229  0.4724 -0.1259
14426W        W33960   7.268   6.601  11.322  0.0812  0.0919  0.1632
14427W        W33961  14.263  17.643   4.833  0.3246  0.1764 -0.1342
14428W        W33962   4.426   7.091   4.669 -0.3484  0.0133  0.1011
14429W        W33963  10.589   2.269  14.224  0.0651  0.1689  0.0510
14430W        W33964   5.175   3.832   3.982  0.0098  0.1581  0.2789
14431W        W33965  14.904   1.934   1.262 -0.0946 -0.1730  0.1233
14432W        W33966  12.655   7.152  14.377  0.0831 -0.3398  0.0247
14433W        W33967  10.726   4.490  14.564  0.0151 -0.0052  0.2532
14434W        W33968  13.403  15.077   3.633  0.0958 -0.1020 -0.2824
14435W        W33969  13.769  17.630  14.738  0.3729 -0.0238 -0.1463
14436W        W33970  16.074   9.812   2.507 -0.3966 -0.3878 -0.5539
14437W        W33971  16.545   9.129   1.717 -0.0734  0.1914 -0.3654
14438W        W33972   4.973  17.972  15.178  0.0055  0.0781  0.1928
14439W        W33973  13.362   9.917   0.107 -0.4698  0.2439  0.3091
14440W        W33974  17.918   1.241  15.435 -0.2929  0.1272 -0.1799
14441W        W33975   6.269   9.516  14.924  0.1720 -0.1570 -0.3092
14442W        W33976  11.073  17.415   4.076 -0.0031  0.1927  0.1602
14443W        W33977   9.088  14.977  13.407  0.0254 -0.0636  0.1792
14444W        W33978   3.351   8.022  14.008  0.0379  0.0410 -0.0555
14445W        W33979   6.257  10.403  13.361 -0.0027  0.1944 -0.0427
14446W        W33980  15.830  11.232  15.002  0.2207  0.0548 -0.0516
14447W        W33981   4.743   2.906  13.770  0.3269  0.0744  0.3090
14448W        W33982   4.272   3.324  15.753 -0.1099 -0.1135  0.1541
14449W        W33983  17.188   7.025   0.668 -0.3488  0.0674  0.1930
14450W        W33984   3.898  16.176   0.911  0.2274 -0.0606 -0.0227
14451W        W33985   6.106  16.993   3.387  0.0141  0.0949 -0.1408
14452W        W33986  16.700  14.801   1.430  0.1494  0.2151  0.0676
14453W        W33987   9.869  17.309   0.552  0.1219  0.1182  0.4396
14454W        W33988  11.254  15.112   4.819 -0.0531 -0.2494 -0.2593
14455W        W33989   1.174  11.254   3.449 -0.0852  0.0704 -0.1890
14456W        W33990   8.899   4.407  11.245  0.0440  0.3231 -0.1736
14457W        W33991  11.148   7.323   0.224  0.2537 -0.0189 -0.1118
14458W        W33992   7.419  16.506  15.021 -0.1091 -0.4025 -0.1687
14459W        W33993  17.199  17.673   0.310 -0.1140  0.2595 -0.1944
14460W        W33994   7.760   9.324   0.552 -0.0844  0.2102 -0.0210
14461W        W33995   0.905  13.174  15.460  0.2637  0.2601  0.0607
14462W        W33996  14.433  16.492  15.060 -0.0022  0.0254  0.1299
14463W        W33997   5.907  16.583  14.460  0.0718  0.0810  0.1779
14464W        W33998  16.442   7.903   4.044  0.1463  0.2747 -0.1837
14465W        W33999   4.617  17.744  15.518  0.0608  0.1672  0.1359
14466W        W34000  12.993   5.793   1.107 -0.0978 -0.1543 -0.0694
14467W        W34001   2.487   6.574  12.323  0.0390 -0.2488  0.1125
14468W        W34002   4.581   1.941   1.758 -0.1758 -0.2517 -0.0139
14469W        W34003   7.305   6.989  11.702 -0.0239 -0.0760  0.2422
14470W        W34004  10.637   1.334   3.930  0.0673  0.0950  0.3230
14471W        W34005   5.489  15.778   1.604  0.1267 -0.1016 -0.0545
14472W        W34006  14.079   1.381   0.716 -0.0861  0.1586 -0.0209
14473W        W34007   1.669   9.579   0.576 -0.0628 -0.2300  0.3648
14474W        W34008  16.569  10.756   4.102 -0.1768  0.2277  0.0487
14475W        W34009   3.210   0.761  11.963 -0.0308 -0.0412  0.1588
14476W        W34010   7.321   7.415   1.270 -0.0288  0.0645  0.0428
14477W        W34011  10.212   9.769  12.486 -0.1140 -0.3060  0.1336
14478W        W34012  13.523   2.355  15.642  0.1460 -0.1103 -0.0054
14479W        W34013   3.704   7.001   3.161  0.2426  0.2782 -0.0234
14480W        W34014   0.289   2.032  13.681  0.2465  0.1132  0.1382
14481W        W34015   3.739  10.291  15.091  0.1119 -0.0863  0.3203
14482W        W34016   7.769   1.025   1.513  0.1716  0.0392  0.2676
14483W        W34017   1.528   2.471  15.723  0.0516 -0.1226  0.1485
14484W        W34018   7.356  17.109  15.874 -0.3053  0.1711 -0.0554
14485W        W34019   0.047  17.782  15.006  0.1936 -0.1739  0.0659
14486W        W34020   8.696  14.272   4.330 -0.2229  0.1492  0.0096
14487W        W34021  16.016   2.028   0.488 -0.0060 -0.3397 -0.1362
14488W        W34022   0.763   9.185  14.864 -0.3459  0.2058  0.3832
14489W        W34023  13.818   3.406  14.301 -0.2024 -0.2243  0.3124
14490W        W34024  16.786  13.446   2.713  0.1462 -0.1735  0.3543
14491W        W34025  12.589   2.185   3.372 -0.1448  0.2551 -0.1583
14492W        W34026  13.715   8.189  12.905 -0.2115  0.2193 -0.1850
14493W        W34027  14.498  16.242   1.294  0.2098 -0.3047  0.5404
14494W        W34028  17.261   5.675   2.366  0.0328 -0.2017 -0.0470
14495W        W34029  12.559   5.130   2.230 -0.0639 -0.0705 -0.1390
14496W        W34030   0.721  16.728   4.286  0.2090 -0.1696 -0.2249
14497W        W34031   1.365  14.049   3.601  0.1025 -0.3087 -0.0999
14498W        W34032   0.666  18.087   0.617  0.0755 -0.3436 -0.0938
14499W        W34033   1.604  12.688   4.150  0.0513 -0.0933 -0.1127
14500W        W34034  17.162   7.358  12.219  0.1755  0.0558  0.1333
14501W        W34035   3.974   4.929  10.959  0.2247  0.0091 -0.1717
14502W        W34036  11.999   9.579   0.289  0.3983 -0.0608  0.2186
14503W        W34037   5.211   9.667   1.422  0.0399  0.0136  0.0404
14504W        W34038  10.906   8.787   1.424  0.0535 -0.0956  0.0320
14505W        W34039   5.992   1.270   3.330 -0.0366 -0.1046  0.1805
14506W        W34040  12.428   2.145  11.532  0.1502  0.1703  0.1470
14507W        W34041   8.435  12.026  13.918 -0.1140 -0.0466 -0.0479
14508W        W34042   6.422  15.993   3.627 -0.0042  0.1018 -0.0744
14509W        W34043  13.732  11.326  11.090 -0.0248 -0.0950  0.2078
14510W        W34044  11.672  10.768  13.626  0.0594  0.1842  0.1395
14511W        W34045  18.068   0.956   2.397  0.0430 -0.0257 -0.4790
14512W        W34046   6.029  10.529  14.987  0.1462  0.1059  0.4590
14513W        W34047   8.057  12.574   1.568 -0.4649  0.2005  0.0170
14514W        W34048   6.262  12.753   1.379 -0.2720  0.0369 -0.1124
14515W        W34049   7.994  12.932   3.672 -0.1754  0.1577 -0.0235
14516W        W34050   9.251  13.831  11.427 -0.0350  0.3576 -0.0398
14517W        W34051  10.240  17.834   0.461 -0.2920 -0.1153  0.1397
14518W        W34052  17.211  17.977   1.919 -0.0196 -0.0649  0.0338
14519W        W34053  12.557   1.124  11.473  0.0132 -0.1738 -0.1648
14520W        W34054   0.757   5.555  14.789 -0.0934 -0.3238 -0.0485
14521W        W34055  16.145   3.064  15.699 -0.1935  0.3614  0.0180
14522W        W34056  17.036   8.290  15.702 -0.0469  0.0030 -0.1176
14523W        W34057   0.696   6.229  14.131  0.1514  0.0725 -0.0920
14524W        W34058  15.408   1.230   0.632 -0.3613  0.0821 -0.1455
14525W        W34059   2.275   4.634   4.303 -0.2471  0.0530  0.4265
14526W        W34060  17.764  10.568   0.417  0.0335 -0.1875  0.1577
14527W        W34061  14.970  13.539  15.234  0.0427  0.3559 -0.1149
14528W        W34062   0.079   8.372   1.931  0.0032  0.0979 -0.2429
14529W        W34063  18.133  12.085  15.666  0.1735  0.2809 -0.0890
14530W        W34064   1.106   7.332  13.191  0.0448 -0.0366 -0.0311
14531W        W34065  11.514   7.066   2.845  0.2948 -0.1655  0.2959
14532W        W34066  16.484   8.507   2.694  0.2550  0.1560 -0.0519
14533W        W34067   1.844   9.082   0.758 -0.2371  0.0321  0.3711
14534W        W34068  13.098  12.740  14.022  0.4449  0.1385  0.1305
14535W        W34069   4.795   0.617  15.895  0.1170 -0.0797  0.5352
14536W        W34070  11.184  10.139   2.816 -0.0347 -0.3846 -0.3112
14537W        W34071   2.025  16.917   2.932 -0.0912 -0.0868  0.0316
14538W        W34072   5.270  11.025   2.087 -0.1120  0.0188  0.0029
14539W        W34073  12.758   8.778   0.288 -0.0723  0.2584 -0.4091
14540W        W34074   4.202  13.879   3.371  0.1712  0.0959  0.0502
14541W        W34075   3.353   9.210  12.662  0.1510 -0.2708  0.2730
14542W        W34076  15.182   6.789   4.332 -0.2476 -0.0496  0.4552
14543W        W34077  16.259  12.913   2.313 -0.0594  0.0112  0.2163
14544W        W34078   5.617   8.945  11.936  0.1876 -0.3819  0.1601
14545W        W34079   9.971  13.700  12.580  0.0431  0.3128  0.0636
14546W        W34080   6.100  13.835   2.171  0.1017 -0.0660 -0.1289
14547W        W34081   5.333  13.406  12.590 -0.3984 -0.1328 -0.5011
14548W        W34082  10.880  17.147   3.460  0.0075 -0.0069 -0.3663
14549W        W34083  12.415  12.168   1.899 -0.0484  0.0826  0.1140
14550W        W34084   9.129   6.873   0.562 -0.1720  0.2010  0.4084
14551W        W34085   4.911   1.022   2.290 -0.2134  0.2347 -0.3565
14552W        W34086  15.534  17.007   5.652  0.0878  0.0958  0.1525
14553W        W34087   2.563  15.369   1.727  0.0790 -0.0640  0.0557
14554W        W34088   8.923   4.382  15.149 -0.1244  0.0165 -0.1582
14555W        W34089   0.039   9.892   1.666 -0.2264 -0.1105  0.1326
14556W        W34090  11.865  13.252  15.614  0.1187 -0.0064 -0.0118
14557W        W34091  17.658  13.103   3.770 -0.1160  0.1805  0.1151
14558W        W34092   7.356  11.659  12.490 -0.0004 -0.0410  0.0803
14559W        W34093  11.057   0.489   2.088 -0.1259 -0.1042 -0.2555
14560W        W34094  10.110  13.959  15.480 -0.2760  0.0724  0.1617
14561W        W34095   6.363   2.281  14.396  0.0387  0.0001 -0.0470
14562W        W34096   9.259  12.364  12.033  0.2675 -0.1358 -0.1407
14563W        W34097   5.084   0.470  13.810  0.2339 -0.3525 -0.0399
14564W        W34098   3.237   9.085  13.098 -0.0562  0.0657 -0.1057
14565W        W34099  13.201  12.904   3.013  0.2319 -0.3231  0.0798
14566W        W34100  14.615  17.338   2.335  0.3688 -0.3589  0.1210
14567W        W34101   7.449   8.969  15.297 -0.1191  0.2138 -0.1443
14568W        W34102   5.898   5.504   2.130  0.0140 -0.0977 -0.1193
14569W        W34103   1.179  12.453  12.588  0.1758 -0.0823 -0.1019
14570W        W34104   6.398  12.241  11.155 -0.0592 -0.1119 -0.0189
14571W        W34105   4.902  12.375   0.509 -0.1273 -0.0958 -0.0152
14572W        W34106   0.112   8.310   1.001 -0.4483 -0.1000 -0.1164
14573W        W34107  10.429   8.237  14.096 -0.0311  0.1851 -0.0278
14574W        W34108   5.976  16.093   1.634  0.0802  0.1581  0.2604
14575W        W34109  14.157  12.254  12.184 -0.0938 -0.2217  0.0069
14576W        W34110  13.439   6.574  12.258 -0.3063 -0.0527 -0.2427
14577W        W34111   0.241   9.424  13.990 -0.0886  0.3331  0.1037
14578W        W34112   2.480  11.209   2.136 -0.0062  0.4318  0.0743
14579W        W34113  17.573  13.462   0.701  0.1199  0.0332 -0.0163
14580W        W34114   5.857  13.384   1.392 -0.0141 -0.4468  0.0817
14581W        W34115   9.129   9.344  13.590  0.0042  0.1084  0.0785
14582W        W34116  15.299  14.486  15.055  0.0081  0.1206 -0.1783
14583W        W34117   4.992   8.916   1.970 -0.1886  0.2505  0.0362
14584W        W34118   5.623   8.520  13.952  0.0433 -0.4004 -0.1112
14585W        W34119  10.985  15.799   2.708 -0.3146  0.0405  0.0562
14586W        W34120   4.705  11.821   3.476 -0.1095  0.1046 -0.0910
14587W        W34121  11.098   9.798   4.714 -0.1596 -0.1698  0.0079
14588W        W34122   9.216   0.464  11.982 -0.2408  0.0444  0.0368
14589W        W34123   3.970   5.105  15.470  0.1820  0.1885 -0.1681
14590W        W34124   5.329   8.576   0.135 -0.1418 -0.2690 -0.0265
14591W        W34125  10.708  17.871  11.690  0.1987  0.4283  0.1426
14592W        W34126  10.129   0.093   1.606  0.1709 -0.1417 -0.0167
14593W        W34127   3.869   9.302  12.026  0.1700 -0.2917 -0.2672
14594W        W34128  13.109   3.338   4.760  0.2099  0.0299  0.1211
14595W        W34129   8.611  14.171  14.367  0.1422 -0.1605 -0.1071
14596W        W34130  16.323   2.820  12.939  0.0901 -0.0246 -0.1216
14597W        W34131   0.089   6.502   3.721  0.1113  0.0005 -0.0778
14598W        W34132  13.019  17.379  14.351  0.0001 -0.2012  0.2919
14599W        W34133  11.547  13.454   3.678  0.0223  0.0370 -0.1274
14600W        W34134   9.126   5.643   2.836 -0.2894  0.1933  0.5085
14601W        W34135  16.161  16.259  13.429  0.1828  0.0352  0.1156
14602W        W34136  10.022  18.136  12.401 -0.2375 -0.0249  0.2582
14603W        W34137  16.602  12.543   2.111  0.4456 -0.1371 -0.2525
14604W        W34138   7.393   8.534  15.837 -0.0390  0.0710 -0.0975
14605W        W34139   0.889  14.893   0.149  0.0680 -0.1066 -0.2218
14606W        W34140  15.295   7.224   0.317 -0.0142 -0.0325 -0.0419
14607W        W34141   2.633   1.317   2.607  0.0517 -0.3253  0.1464
14608W        W34142   8.706   6.678  15.184  0.0075  0.0818 -0.1655
14609W        W34143   2.044  17.729   1.832  0.3471  0.0089 -0.1458
14610W        W34144  14.156   4.250   5.630 -0.1978 -0.0462 -0.1648
14611W        W34145   0.155  11.748   4.573  0.1059  0.1931 -0.0119
14612W        W34146  12.211   8.841  14.912  0.1540  0.5370 -0.0679
14613W        W34147   4.670  17.405   2.041 -0.2193  0.1058  0.0088
14614W        W34148  17.961  10.315   1.456  0.1200 -0.2696  0.1650
14615W        W34149   0.820  10.482  14.780 -0.0876 -0.2876 -0.1357
14616W        W34150  16.859  17.480   3.327  0.0551 -0.1785 -0.1902
14617W        W34151   4.544  17.010   2.355  0.2694  0.1628 -0.0407
14618W        W34152  10.165  16.621  14.353 -0.1141  0.0874  0.1975
14619W        W34153  17.907   8.111   0.082 -0.0489  0.3863  0.0571
14620W        W34154  15.706   3.312  15.870 -0.1147  0.0862  0.1927
14621W        W34155  14.152   1.143   4.486 -0.0190  0.0746  0.0317
14622W        W34156  14.758  13.163  15.932 -0.0975  0.1585 -0.0016
14623W        W34157   3.767   2.213  13.005  0.2221  0.2076 -0.1999
14624W        W34158  10.791   4.801   3.689  0.1298 -0.1226  0.2132
14625W        W34159  16.717   0.982  13.484 -0.0106 -0.2110  0.3249
14626W        W34160   3.799   2.914  11.587  0.0823 -0.0447  0.1506
14627W        W34161   5.105  14.617   3.106 -0.1115 -0.0804 -0.0867
14628W        W34162  16.409   6.549  15.073  0.4222 -0.0720 -0.0761
14629W        W34163   7.266   1.065   1.573  0.0119  0.0882  0.0785
14630W        W34164   1.587  11.331   3.149  0.1112 -0.0955 -0.2789
14631W        W34165  12.038   8.798   2.871 -0.2272 -0.2956  0.1848
14632W        W34166  17.547  13.617  12.849  0.0748  0.0419 -0.2297
14633W        W34167  16.395  10.735   3.540  0.3541  0.1961 -0.3755
14634W        W34168  16.613  10.037  13.138 -0.0109  0.1642 -0.2673
14635W        W34169  15.844   8.660   0.136  0.2980  0.3010  0.2927
14636W        W34170   4.908   7.119  13.671  0.0101 -0.0926 -0.2368
14637W        W34171   3.250  17.820   1.604  0.1952 -0.4078  0.2444
14638W        W34172  12.909  15.648   0.086 -0.1732  0.0562 -0.1919
14639W        W34173   3.261  10.916   2.763 -0.2002 -0.1598  0.2396
14640W        W34174  12.591  14.883  15.478  0.1120  0.1511  0.0337
14641W        W34175   4.490  10.814   3.388 -0.1181 -0.0193  0.0851
14642W        W34176  14.500  10.033   1.234  0.1871 -0.0202 -0.0133
14643W        W34177   4.760   7.666  15.392 -0.0766  0.1001  0.1594
14644W        W34178  11.352  15.644   0.051 -0.0420  0.0255  0.2886
14645W        W34179  13.257  15.226   4.868  0.0484  0.0372 -0.1377
14646W        W34180   4.104   2.725   3.257 -0.1350  0.1699 -0.4696
14647W        W34181   1.530   3.476  11.240 -0.0714  0.0856 -0.1482
14648W        W34182   4.380   4.504   3.378 -0.1551 -0.0892 -0.0156
14649W        W34183   6.849   1.962  15.301  0.0251 -0.0580 -0.2148
14650W        W34184   4.465   6.131  13.955  0.1503 -0.1162  0.0693
14651W        W34185  12.380   6.362  12.577 -0.0669 -0.0931 -0.2221
14652W        W34186  12.651  15.363  14.249 -0.0601  0.2360 -0.0955
14653W        W34187   9.407   6.835   1.034  0.0503  0.1448  0.2530
14654W        W34188  13.602  16.102  14.607 -0.0714 -0.0665  0.0774
14655W        W34189  14.992   0.139   1.517  0.2601  0.1553 -0.2852
14656W        W34190  14.410  15.395   5.732  0.1293  0.0321  0.0134
14657W        W34191   4.138  16.833  14.795  0.2064 -0.1471  0.0219
14658W        W34192  18.126  11.558  14.973  0.1868 -0.1425 -0.4113
14659W        W34193   8.032  11.159  12.899 -0.1732 -0.1152 -0.1211
14660W        W34194   9.488   0.678  12.343  0.3685  0.0700 -0.0249
14661W        W34195   7.662  10.406   2.017  0.0334 -0.2303  0.0832
14662W        W34196   2.432   2.494  11.511  0.2046  0.1354 -0.2220
14663W        W34197  13.528  13.963  13.736  0.0887 -0.2965  0.1219
14664W        W34198  17.183   4.350  14.363 -0.2529 -0.3014 -0.0387
14665W        W34199   5.846   6.155   0.629  0.0593 -0.1385  0.1448
14666W        W34200   0.110   0.870   4.707 -0.4436 -0.4713  0.3174
14667W        W34201   2.147  12.119   3.608 -0.2220 -0.1765 -0.3254
14668W        W34202   8.633  13.186   3.255 -0.2529  0.0901  0.1564
14669W        W34203   5.212   6.705  12.297  0.1520  0.1741 -0.1020
14670W        W34204  12.803   9.031  12.192 -0.2079  0.3035  0.0228
14671W        W34205   3.630   3.629   2.423 -0.0350 -0.3978 -0.1887
14672W        W34206   8.213   6.500  15.745  0.1839  0.1713  0.0318
14673W        W34207  13.209  16.409  13.550 -0.2071  0.3038 -0.2972
14674W        W34208   6.357  11.354  13.692  0.0117 -0.1298  0.0189
14675W        W34209   4.282  11.237  11.805  0.1985  0.0401  0.1598
14676W        W34210   7.265   0.893  14.647 -0.0280  0.2470  0.0427
14677W        W34211  15.056   8.377  15.806  0.6896 -0.0330 -0.0674
14678W        W34212  14.341  16.155   2.275 -0.4447  0.0437 -0.0350
14679W        W34213   5.968   8.002   3.201 -0.2558  0.0568 -0.1624
14680W        W34214   3.977  13.451  15.139  0.0867 -0.2667 -0.0449
14681W        W34215   6.331   2.118  15.419  0.3229 -0.1130 -0.2117
14682W        W34216  10.325   4.641   1.170 -0.1793  0.3190 -0.0662
14683W        W34217   6.751  15.554  12.976  0.0626 -0.0609 -0.0033
14684W        W34218  12.774  12.587  15.408 -0.0752  0.1271  0.1189
14685W        W34219   4.578  11.616  13.933 -0.3152 -0.1761  0.1712
14686W        W34220   4.826   3.932   0.113  0.0046 -0.1928  0.1665
14687W        W34221  12.262   2.694  13.546 -0.1648  0.0016  0.2825
14688W        W34222  14.773  16.713   0.212 -0.0715 -0.2450  0.2798
14689W        W34223  18.139  18.092  14.627  0.1670  0.1376  0.0731
14690W        W34224  17.390  15.917   0.887 -0.1112 -0.1082  0.1689
14691W        W34225   7.460  13.760   2.659 -0.2069 -0.0697  0.0049
14692W        W34226   7.557   8.099   3.668 -0.1263  0.0099 -0.0215
14693W        W34227   7.494  18.110  11.728 -0.1191  0.1643 -0.0074
14694W        W34228  11.407  10.137   3.563  0.2788  0.0303  0.1981
14695W        W34229   8.479  17.093  14.633 -0.0954 -0.0045  0.0017
14696W        W34230   6.239  16.465   0.774 -0.0228 -0.0924  0.0566
14697W        W34231   7.125  17.733  11.307 -0.2920 -0.1419  0.0479
14698W        W34232   7.190   6.016   0.926 -0.0783 -0.0409 -0.1044
14699W        W34233  14.347   1.710  13.651 -0.2183  0.2226  0.2448
14700W        W34234   3.080   0.717   0.926 -0.1735  0.2041 -0.0435
14701W        W34235  13.096  15.559   2.447  0.1081  0.0788  0.1880
14702W        W34236   6.984   9.979  15.406 -0.0547  0.0473  0.1019
14703W        W34237   4.426  14.340  11.408  0.1877 -0.0868  0.0983
14704W        W34238   0.322  16.691  12.723 -0.0020 -0.1239 -0.1855
14705W        W34239   4.007  15.707  14.737  0.1610 -0.0410 -0.1863
14706W        W34240   6.779   3.072  10.376  0.3172  0.1396  0.0503
14707W        W34241  13.568   3.126  14.650 -0.1035 -0.1798  0.1343
14708W        W34242   8.857  15.843  14.104 -0.0794  0.3829  0.1293
14709W        W34243   8.739  16.637   2.243  0.2701 -0.1640 -0.0044
14710W        W34244  14.363   3.012   4.331 -0.1900 -0.1220  0.1480
14711W        W34245   1.709   8.505   2.228 -0.2997  0.2204 -0.0565
14712W        W34246   4.634   2.485  14.676  0.3696  0.0227  0.1010
14713W        W34247   9.160  15.279   2.759  0.3005  0.1581 -0.0865
14714W        W34248  13.640  16.805   0.912  0.2754 -0.0063 -0.1212
14715W        W34249   0.166   3.666  14.577  0.0017  0.1573 -0.2100
14716W        W34250   1.117   5.343   3.982  0.0997  0.2528  0.2187
14717W        W34251  10.102   3.354   2.535  0.1715  0.4172  0.4766
14718W        W34252  12.886   0.897   0.672 -0.1773  0.0297 -0.3608
14719W        W34253   5.923  14.625  12.045 -0.0203 -0.5403  0.0242
14720W        W34254  15.488   6.768  14.864 -0.0093 -0.3606  0.2675
14721W        W34255  10.469   2.767  12.367 -0.1277 -0.0706 -0.2315
14722W        W34256  11.488  17.176   2.096 -0.1439  0.0689  0.4323
14723W        W34257  12.257   7.003  11.806 -0.2190 -0.4733 -0.0215
14724W        W34258  12.880   0.858  11.767  0.3157  0.0768 -0.0943
14725W        W34259   1.730  14.415   0.036 -0.1253 -0.3092  0.0357
14726W        W34260   3.660   6.042   1.734  0.0574 -0.0302  0.0513
14727W        W34261   2.776   0.457  12.813 -0.3513 -0.0697 -0.1836
14728W        W34262  16.863   8.030  13.866  0.0653 -0.0073  0.0426
14729W        W34263   9.984   8.794  13.139 -0.1698  0.0439 -0.2581
14730W        W34264   8.561  12.516   3.933 -0.3796 -0.0941 -0.0884
14731W        W34265   1.589  16.243  14.776  0.0274  0.1193  0.1925
14732W        W34266   5.244  15.937  14.753  0.0841  0.3368 -0.1818
14733W        W34267   7.440  14.933   4.026 -0.0576 -0.1098  0.1315
14734W        W34268   5.968   6.810  13.835  0.2253 -0.2603 -0.1401
14735W        W34269   8.079   2.443  15.383  0.2881  0.1094  0.2700
14736W        W34270  15.583  11.815   4.675 -0.1083 -0.1389  0.0181
14737W        W34271   4.716   0.829   3.630  0.1715  0.3783 -0.1605
14738W        W34272  12.267   4.740  13.108  0.1853 -0.0956  0.0469
14739W        W34273  17.388  11.340   3.826 -0.0080 -0.3013 -0.2890
14740W        W34274   6.740   1.699   0.426  0.1390  0.0534 -0.0639
14741W        W34275  11.221   6.468  15.205 -0.0404  0.1933 -0.3954
14742W        W34276  16.444  10.372   0.566  0.0347  0.0762 -0.3803
14743W        W34277  11.744  11.219  13.324  0.0658 -0.0738  0.0638
14744W        W34278  17.219   4.824  16.057 -0.4020  0.1725  0.0884
14745W        W34279  12.166   2.895  15.046 -0.3465  0.2240  0.1868
14746W        W34280   7.594  11.194   2.614  0.0716  0.0546 -0.2239
14747W        W34281  15.322   2.109   2.507  0.3469 -0.2239 -0.3671
14748W        W34282   8.536   3.262   3.246  0.1450  0.1304 -0.3415
14749W        W34283   5.557  14.783  13.635  0.1113 -0.0980  0.1634
14750W        W34284  11.497   9.771   1.394 -0.0234  0.0625  0.1416
14751W        W34285   3.214   4.107   1.438 -0.4056 -0.0990  0.2497
14752W        W34286   8.653   2.558   2.603  0.2708  0.1223 -0.0932
14753W        W34287   2.507   1.223  15.506 -0.1896 -0.0011 -0.3403
14754W        W34288   5.147   2.139  12.297  0.2596  0.1185 -0.3881
14755W        W34289   2.512  14.439  12.955 -0.1187  0.0031 -0.0710
14756W        W34290   8.226  10.959   0.194 -0.0412 -0.1015 -0.0002
14757W        W34291   7.931   0.671   3.799  0.1139 -0.0827  0.1375
14758W        W34292  17.409   1.216  14.757  0.1795 -0.0461  0.2029
14759W        W34293   9.553   4.847   4.377  0.0937  0.1054 -0.0250
14760W        W34294  17.563  10.697   1.327  0.1377 -0.1170  0.0342
14761W        W34295   3.368  12.978  13.580  0.0713 -0.1652 -0.0558
14762W        W34296  17.943  11.437  12.350  0.0949  0.1419  0.0996
14763W        W34297  15.411  10.483   3.117 -0.0624  0.0291 -0.2354
14764W        W34298   6.066   7.216   2.631  0.2205 -0.0969  0.4278
14765W        W34299  15.497  14.765   2.505  0.1423 -0.0735  0.2521
14766W        W34300  16.612   8.771  11.357  0.0875 -0.1779 -0.0939
14767W        W34301  14.418  11.861  13.262  0.0738 -0.3361 -0.0776
14768W        W34302   6.362  13.236   3.693 -0.1187  0.0151 -0.0173
14769W        W34303  11.312  10.066  14.567 -0.2373  0.1605 -0.0326
14770W        W34304  15.077  15.720  13.801  0.1397  0.0226  0.2147
14771W        W34305  15.817   8.578  12.066  0.0871  0.3774 -0.3299
14772W        W34306   4.192   9.557   3.983  0.0494 -0.0297  0.1897
14773W        W34307  10.427  12.690  11.749  0.0088  0.1237  0.1514
14774W        W34308   5.784   2.851   4.783  0.1099 -0.0987  0.0177
14775W        W34309  13.804  10.778   1.909  0.0962 -0.2795  0.3733
14776W        W34310   4.484   5.225  12.305  0.2441  0.3845  0.0883
14777W        W34311  13.489  12.746   5.651 -0.2819 -0.0310 -0.1074
14778W        W34312   6.210   7.724   3.555  0.1631 -0.0888  0.3252
14779W        W34313  16.526   4.703   0.337  0.1501 -0.2898 -0.1065
14780W        W34314  16.278   7.136  13.771  0.2240 -0.0822  0.1557
14781W        W34315   0.339   2.109  11.148 -0.0519 -0.4826 -0.1604
14782W        W34316   5.416   8.235  11.283  0.1262  0.2431 -0.1925
14783W        W34317   6.557   9.198   1.157 -0.0243 -0.1333 -0.0645
14784W        W34318   2.745  15.839  13.539  0.0011 -0.2151 -0.0140
14785W        W34319  16.699   7.804   1.993  0.1171  0.0074  0.4408
14786W        W34320   0.557  13.194  14.254 -0.0562 -0.0407 -0.0619
14787W        W34321  17.944   1.925   4.848  0.1598 -0.1726 -0.0550
14788W        W34322   1.363   7.734  11.776  0.0683  0.0054 -0.2312
14789W        W34323   1.911  11.811  15.330  0.3956  0.0251  0.0326
14790W        W34324   0.711   6.345   2.635 -0.1422 -0.1496  0.2499
14791W        W34325   3.536   2.444   0.799 -0.3726  0.0731  0.1387
14792W        W34326   4.256   2.024  13.802 -0.1596  0.1294 -0.1625
14793W        W34327  10.069   7.475  13.038 -0.0793 -0.0999 -0.3280
14794W        W34328  15.732  12.722   0.419 -0.0062  0.0180 -0.0621
14795W        W34329   2.798  17.855   0.543  0.2496  0.2811  0.0739
14796W        W34330   6.981  15.256  13.327  0.0909  0.0321  0.2070
14797W        W34331   5.497  17.166  12.233  0.1039 -0.2732  0.0081
14798W        W34332   6.535  13.909   2.400 -0.0384  0.2450 -0.1420
14799W        W34333   8.529   7.984   1.933  0.4322  0.0344  0.1062
14800W        W34334  14.548   0.931   6.216 -0.1137  0.4619  0.1422
14801W        W34335  11.812   9.365  11.532  0.2341 -0.1422 -0.2674
14802W        W34336  12.647  16.336  14.498  0.1333 -0.0210 -0.0824
14803W        W34337  11.054   6.481   1.060 -0.0197 -0.0193 -0.3516
14804W        W34338   3.520   2.752  14.468 -0.0291 -0.0897 -0.2433
14805W        W34339   0.282   9.110  12.527  0.1120 -0.1322  0.2000
14806W        W34340  10.399   9.129   3.834 -0.1498  0.0109 -0.0069
14807W        W34341   0.423  14.994  15.215 -0.2170  0.0711 -0.0502
14808W        W34342   6.316  15.256  15.152 -0.2029 -0.0784  0.1811
14809W        W34343  12.956  15.290  10.437  0.1004  0.0675 -0.0773
14810W        W34344   6.780  16.373  14.237 -0.0076  0.1186 -0.2369
14811W        W34345  10.928   3.257   0.034 -0.0181 -0.1473 -0.1612
14812W        W34346   5.395   2.294  11.439 -0.1400  0.0253 -0.0448
14813W        W34347   5.760   5.125  10.418  0.1090  0.1907  0.0029
14814W        W34348  10.581   8.789   4.175  0.0273  0.0516  0.2707
14815W        W34349   0.477  13.619   3.961  0.0342 -0.3335 -0.0422
14816W        W34350   6.480  13.548  11.851 -0.0208  0.0831  0.3701
14817W        W34351  14.843   8.514  12.696  0.2291 -0.4948 -0.1658
14818W        W34352   6.872  11.570   4.721 -0.0388  0.3200 -0.3730
14819W        W34353  16.425  17.994   0.409  0.3929  0.4922 -0.0383
14820W        W34354  16.551  16.563   3.952 -0.1332 -0.3395 -0.0592
14821W        W34355   1.774   4.683   2.305  0.0249  0.1671  0.1675
14822W        W34356   5.698  16.029  13.965  0.0380  0.2375  0.0534
14823W        W34357   0.743   2.879  15.458 -0.2294  0.2513 -0.0442
14824W        W34358  13.782   3.580   3.654 -0.5283  0.0285  0.0600
14825W        W34359   3.775  10.028  15.532 -0.1430  0.0194  0.0722
14826W        W34360   3.689  13.539   1.631  0.1253 -0.0719  0.0675
14827W        W34361  17.244   6.689   1.337 -0.0139 -0.1776  0.1822
14828W        W34362   7.096   4.762   3.962 -0.0939  0.1485  0.1370
14829W        W34363   7.917  16.807   0.638  0.2177 -0.2754 -0.0009
14830W        W34364   5.795  16.495  15.998 -0.1353 -0.0146  0.1379
14831W        W34365   0.405  12.055  14.361 -0.1103  0.0861  0.1620
14832W        W34366   4.210  11.634  14.894 -0.2142 -0.0378 -0.2413
14833W        W34367   0.854   8.463   1.361  0.1197 -0.1760 -0.1083
14834W        W34368   8.764  15.351   3.531  0.0641 -0.0201  0.1991
14835W        W34369   0.273  13.313   3.584  0.3209  0.1947  0.2222
14836W        W34370   0.271  14.388  13.937  0.3946  0.0276 -0.0891
14837W        W34371   5.664   3.425   4.746 -0.0577  0.1533 -0.0958
14838W        W34372   5.364  13.939   0.194  0.1855 -0.0856 -0.3014
14839W        W34373  18.124  17.866  12.572  0.1349  0.1025 -0.0543
14840W        W34374  11.409  13.104  15.693 -0.1151 -0.0955  0.3941
14841W        W34375  16.531  16.082   0.496 -0.0141  0.1467 -0.1023
14842W        W34376  11.904   5.045  11.851  0.0275  0.3435  0.1062
14843W        W34377  17.803  17.621  14.641 -0.4154  0.0715  0.0243
14844W        W34378   1.128  14.208  13.469  0.1093 -0.0083  0.4624
14845W        W34379   4.247  15.574  15.737 -0.3124 -0.0636  0.1375
14846W        W34380  13.140  11.400   0.728 -0.1556 -0.0857 -0.0051
14847W        W34381  11.716   9.456  14.900  0.0692  0.0569  0.0468
14848W        W34382   0.695   5.305  11.344 -0.0760 -0.0367 -0.2366
14849W        W34383   2.433   3.013   2.589 -0.1380 -0.1493 -0.1173
14850W        W34384  10.654  15.292   2.730  0.1349  0.2337  0.2128
14851W        W34385  15.746   2.298  12.022 -0.0554  0.0451  0.0897
14852W        W34386  10.772  10.490   5.094  0.1968 -0.1468 -0.0292
14853W        W34387   4.807   8.635  15.987 -0.0239 -0.1269 -0.0183
14854W        W34388  12.763  16.619  15.506  0.1169  0.0375  0.0974
14855W        W34389  10.049  17.173   2.276 -0.0137  0.1158 -0.3705
14856W        W34390   1.937  11.771   0.757 -0.0666  0.2405 -0.0357
14857W        W34391  13.210   5.177  11.653 -0.2153 -0.1450 -0.1666
14858W        W34392  15.457   2.488  11.297  0.3157  0.0656  0.1884
14859W        W34393  17.214   5.393   5.198  0.0454 -0.0742 -0.0747
14860W        W34394  17.098  10.784  13.012  0.0219  0.0395 -0.0657
14861W        W34395  10.105  10.914   3.637 -0.0655 -0.1584  0.0064
14862W        W34396   7.757  10.093   2.407 -0.0183  0.0306  0.0150
14863W        W34397  14.289   8.419   3.047 -0.1513  0.2831  0.2146
14864W        W34398   6.408   4.278  14.080 -0.1584 -0.0998 -0.1161
14865W        W34399  12.616  18.032   1.557 -0.0778 -0.0067 -0.4443
14866W        W34400   5.486   7.940   3.046  0.3300 -0.0378 -0.0486
14867W        W34401   1.595  11.018  12.049  0.1171 -0.4019 -0.2555
14868W        W34402   0.555   3.111   1.622  0.0644 -0.0193 -0.1485
14869W        W34403   0.825  13.301  13.074 -0.0335 -0.1932  0.2448
14870W        W34404  10.873   2.669   4.124  0.0486 -0.0384 -0.3351
14871W        W34405   6.071  17.820  15.989 -0.2371 -0.0496  0.0248
14872W        W34406  15.650  12.844  15.617 -0.0180  0.1219 -0.2504
14873W        W34407   0.412  11.817  14.895 -0.2516 -0.1332 -0.3092
14874W        W34408   5.865  17.843  12.642 -0.1465  0.1633 -0.0587
14875W        W34409  14.669   9.933   3.037  0.1371  0.0668 -0.0725
14876W        W34410  13.745   9.228  12.355  0.1025  0.0600 -0.1056
14877W        W34411   6.153  10.356   0.734  0.1435 -0.0046 -0.0775
14878W        W34412   1.323   4.323  14.307  0.0062 -0.1378  0.1076
14879W        W34413   9.449  15.177  14.284 -0.1973 -0.0678  0.0645
14880W        W34414   4.061   1.911   0.353 -0.2614  0.1551 -0.0399
14881W        W34415   3.153   5.915  12.575  0.3650  0.1961  0.0620
14882W        W34416  11.736  13.127  12.213  0.2822  0.2154  0.3635
14883W        W34417   7.821   9.288  13.585  0.1640  0.1281 -0.0929
14884W        W34418   5.412   1.582   4.081 -0.0128 -0.0956  0.0270
14885W        W34419   0.430   1.611  13.475 -0.1655 -0.0187 -0.2749
14886W        W34420  12.442   5.502   3.765  0.0198  0.0376  0.1114
14887W        W34421  11.261   0.526   4.890  0.1880  0.3046 -0.1460
14888W        W34422  11.373   4.407   1.397  0.0217  0.0641 -0.1567
14889W        W34423  12.830  12.757   2.047  0.1129 -0.1269 -0.1701
14890W        W34424   5.312   6.725  11.707  0.0443  0.1569 -0.0092
14891W        W34425  14.910  11.789  12.311  0.0130 -0.1177 -0.1766
14892W        W34426   6.355   2.330   2.398  0.0445  0.0822 -0.1499
14893W        W34427   8.491   6.114  11.286  0.1401  0.2587  0.0563
14894W        W34428  16.973  18.124   2.668 -0.2331  0.0538 -0.0214
14895W        W34429  13.450  16.510   4.127  0.1899  0.1630  0.0464
14896W        W34430   5.975  11.089  15.049  0.2894  0.0872  0.0103
14897W        W34431   9.144   9.476   0.187 -0.0320 -0.1968 -0.2070
14898W        W34432   2.206   5.411   2.551  0.0070 -0.0714 -0.1506
14899W        W34433   4.942   1.525   3.988 -0.2897 -0.0167  0.0829
14900W        W34434  10.622   2.769  14.356 -0.2374  0.5933  0.1813
14901W        W34435   6.142   1.537   2.891  0.3250 -0.2307  0.2672
14902W        W34436  11.061  12.332   3.082  0.0317 -0.2019  0.0788
14903W        W34437   3.674  10.934  10.964 -0.1200  0.0105 -0.2025
14904W        W34438  15.244   6.159  13.797  0.0045 -0.1427 -0.1579
14905W        W34439  17.675   1.083  12.060 -0.3065 -0.2829 -0.1781
14906W        W34440   9.025   9.740  13.019 -0.1969 -0.0244 -0.0251
14907W        W34441  13.794   8.092   0.317 -0.1557 -0.4536 -0.3283
14908W        W34442  12.670  13.786   2.135  0.0578  0.5457 -0.0540
14909W        W34443   5.815   5.736   4.440 -0.0714 -0.3316 -0.3231
14910W        W34444   4.654  18.136  11.438  0.1224 -0.1487  0.0850
14911W        W34445  14.918  11.098  15.112  0.1677  0.0899 -0.2955
14912W        W34446  15.395  11.145  15.317  0.2917  0.0030  0.0179
14913W        W34447   5.259  15.360  14.004 -0.2132 -0.1041  0.3098
14914W        W34448   1.698  14.663   2.579 -0.0387 -0.3957 -0.1664
14915W        W34449   5.944   7.634  14.615 -0.0372  0.1691  0.0491
14916W        W34450   4.237   7.343  14.822 -0.1927  0.3699 -0.4029
14917W        W34451  18.108  14.381  13.079 -0.0706  0.0096  0.0093
14918W        W34452  14.937  18.138   0.154  0.3038  0.2711  0.4103
14919W        W34453  15.575   1.468   1.072 -0.3004 -0.2091  0.0355
14920W        W34454   8.986   4.570   0.728 -0.2593  0.1638  0.0338
14921W        W34455  17.188  10.141   4.653 -0.2197 -0.1114  0.0481
14922W        W34456  12.646   2.566   3.710  0.0086  0.1693  0.0604
14923W        W34457   9.610  15.796   2.112 -0.1709 -0.0498  0.1897
14924W        W34458  17.698  13.528   4.121 -0.1772 -0.4208  0.1749
14925W        W34459  17.204   4.829   2.316 -0.2290  0.1462  0.1627
14926W        W34460  10.947  10.480  15.107 -0.1665  0.0841  0.1003
14927W        W34461  12.581  13.742  14.583  0.1707 -0.0188 -0.3371
14928W        W34462  16.262  16.516  12.996  0.1473  0.0612  0.1896
14929W        W34463   4.308  11.553  11.405  0.1814 -0.0027 -0.3207
14930W        W34464   1.723   2.936  14.646  0.0374  0.1242 -0.0057
14931W        W34465   7.884   8.397   4.857 -0.1452 -0.0818  0.3455
14932W        W34466   1.446   7.222  14.589  0.1387 -0.1177  0.1849
14933W        W34467   9.909  17.291  15.601 -0.1141 -0.0962  0.6115
14934W        W34468  11.457   3.282  14.735  0.0888  0.6344  0.0542
14935W        W34469  12.893  13.677  14.250  0.0495 -0.1155  0.1478
14936W        W34470  17.856   8.996   2.858 -0.1931  0.0366  0.0440
14937W        W34471   8.213  10.913   0.723  0.0538 -0.0902  0.0216
14938W        W34472  12.780   5.878  11.115  0.0797 -0.2825 -0.1842
14939W        W34473   6.164   9.984  12.246 -0.1980 -0.1261  0.4031
14940W        W34474  14.320  16.747   2.526 -0.1696 -0.0852 -0.0593
14941W        W34475  15.340   1.086  13.384  0.1256 -0.0404  0.2133
14942W        W34476   6.046  12.335  12.396 -0.2572  0.1008 -0.0166
14943W        W34477   9.248   9.885  10.832 -0.2037 -0.0358  0.0161
14944W        W34478  15.395   7.030   2.165 -0.5009  0.1617  0.1925
14945W        W34479   7.395  12.883   1.515  0.0169  0.2691 -0.1441
14946W        W34480   3.362   3.817   4.707  0.0591  0.1897  0.0772
14947W        W34481   1.794  10.704  11.070 -0.1174  0.1156 -0.2552
14948W        W34482  17.136   7.344  11.307 -0.0903  0.0582  0.1562
14949W        W34483   9.627  15.516  12.383  0.2446  0.1683 -0.0797
14950W        W34484  17.813   8.099  13.094 -0.0950 -0.1479 -0.1409
14951W        W34485   7.397   1.303   3.442  0.1116 -0.1480 -0.0441
14952W        W34486  15.108   0.955   4.617  0.1327  0.1040 -0.3300
14953W        W34487  15.257   5.930   3.174  0.0000 -0.0173  0.0019
14954W        W34488   2.173  11.781  15.841  0.1429  0.4161 -0.2905
14955W        W34489   4.474  16.342  14.789  0.1651  0.0355 -0.0205
14956W        W34490   5.291   8.349   0.594 -0.0159 -0.0834 -0.0605
14957W        W34491   6.312   3.470  15.685  0.0966 -0.3208  0.4397
14958W        W34492   5.795  14.627   0.911  0.2684 -0.1174 -0.2285
14959W        W34493   6.797  11.604  15.820 -0.0501 -0.0377  0.1388
14960W        W34494   0.796  10.896  15.569  0.0299 -0.1276 -0.2337
14961W        W34495  14.156   5.018  14.673 -0.1372  0.1095 -0.6076
14962W        W34496   6.346   6.171  11.777  0.0898  0.1182 -0.0299
14963W        W34497  15.549   5.616  14.949 -0.1760 -0.0882 -0.3297
14964W        W34498  11.800   2.165   2.729 -0.1269  0.0790 -0.1603
14965W        W34499   3.555  13.386  13.248 -0.0730  0.1148 -0.4616
14966W        W34500  10.252  17.609  11.827  0.0493 -0.0034  0.2113
14967W        W34501   1.685   8.965   4.235 -0.2101  0.0249  0.0695
14968W        W34502  17.496   6.175   3.977 -0.1614 -0.1904  0.0612
14969W        W34503  14.229   7.959  12.085 -0.0179  0.2499  0.0465
14970W        W34504  15.957   5.381  14.815  0.1738  0.2289 -0.0612
14971W        W34505   4.430   8.384  15.806 -0.0678  0.2134  0.4558
14972W        W34506  11.354   5.622   1.657  0.1419 -0.0587  0.1949
14973W        W34507   8.014   8.276  13.446  0.0446 -0.0938 -0.0292
14974W        W34508  17.870  15.529   4.375  0.2368 -0.0606  0.2009
14975W        W34509   1.175  15.496  11.987 -0.1995 -0.0204  0.0386
14976W        W34510  13.116  10.647   0.050 -0.0546 -0.0376 -0.1233
14977W        W34511  10.447  12.000   0.471  0.3552  0.2676 -0.1412
14978W        W34512  17.296  18.019  13.174  0.0554  0.1358  0.0743
14979W        W34513  15.337   5.311   2.444 -0.0111  0.0920  0.1938
14980W        W34514   7.988   3.975  15.194 -0.0349 -0.2030 -0.1389
14981W        W34515  16.211   7.926   4.568  0.2710 -0.0531  0.2308
14982W        W34516   2.285   2.068  13.378  0.1430 -0.1338  0.0053
14983W        W34517   7.426   1.290  15.620 -0.0413 -0.0858  0.1474
14984W        W34518  10.347   6.819  13.695  0.0201  0.0910 -0.4002
14985W        W34519  11.262   6.254   3.297 -0.0423 -0.1405  0.1797
14986W        W34520   2.242  16.846  14.036 -0.0875 -0.1154 -0.0907
14987W        W34521   2.290  14.909  12.648 -0.0583 -0.1006  0.1135
14988W        W34522  14.866  16.981   2.057 -0.1646 -0.0905  0.1248
14989W        W34523   8.408   6.842   4.150 -0.2974 -0.3916 -0.2655
14990W        W34524   1.482   3.546  13.969 -0.0953 -0.0678  0.2486
14991W        W34525   0.676   5.958  12.099 -0.1897 -0.0729 -0.1663
14992W        W34526   5.993  17.147   1.222 -0.0931  0.2202  0.0520
14993W        W34527  13.496  12.194   2.128  0.3498 -0.4491  0.0725
14994W        W34528   8.746   8.530  12.614  0.0469 -0.1128 -0.0485
14995W        W34529  13.286  14.094   3.832  0.2268  0.1988 -0.1211
14996W        W34530   3.502  14.959   3.861  0.1116  0.0630 -0.4385
14997W        W34531  15.233  15.067  13.553 -0.2378 -0.2598 -0.0131
14998W        W34532  17.145   2.313   0.723 -0.5070 -0.0613  0.0780
14999W        W34533  12.508  16.575   0.279 -0.1860 -0.1520 -0.3255
15000W        W34534  14.220  11.752  12.245  0.1214  0.0905 -0.1060
15001W        W34535  12.967  16.426   0.624  0.0311 -0.1747 -0.2300
15002W        W34536   6.966  16.286  13.604 -0.0735  0.1401 -0.0508
15003W        W34537   6.444  16.723  14.092 -0.0109  0.0380  0.2438
15004W        W34538   8.115  16.698  12.320  0.0451  0.2711 -0.0804
15005W        W34539   4.291   2.608   1.044 -0.0009 -0.1291  0.0620
15006W        W34540  11.715   1.402  11.865 -0.0247 -0.0166  0.2786
15007W        W34541  14.970   0.587  11.542  0.0506  0.1070  0.3067
15008W        W34542  10.748  10.676  14.294  0.2715 -0.1150 -0.3113
15009W        W34543  11.690  12.749   0.821  0.0715  0.1019 -0.2354
15010W        W34544   9.878   6.831   0.114  0.1145 -0.0123 -0.0797
15011W        W34545   7.940  14.260   3.351 -0.2342 -0.2583 -0.0061
15012W        W34546   2.391   1.851   1.127 -0.0145  0.0927  0.2436
15013W        W34547   3.974  11.344   2.182 -0.1030  0.1871  0.1847
15014W        W34548   7.173   4.616  15.402  0.1097 -0.1929 -0.0854
15015W        W34549   6.951   6.244  16.033  0.2719 -0.2330 -0.1139
15016W        W34550  15.757  11.169  12.195  0.0126 -0.0713  0.0893
15017W        W34551   6.854  14.625   1.829  0.0726 -0.0885  0.0430
15018W        W34552   5.413  13.704  14.956  0.2480 -0.1930 -0.1459
15019W        W34553  10.752  15.979   0.193 -0.1277 -0.1587  0.0285
15020W        W34554  11.832  17.919  13.642  0.0907  0.2553 -0.0601
15021W        W34555  10.776   6.444   3.176  0.3097 -0.1229 -0.0689
15022W        W34556  13.148   5.437  15.463  0.0141 -0.0895 -0.1700
15023W        W34557   3.379   7.500   0.364  0.2872  0.0756 -0.2189
15024W        W34558   7.322  14.716  13.564 -0.1041 -0.0789 -0.1218
15025W        W34559   3.393  10.661   3.174 -0.0137  0.1780  0.0592
15026W        W34560   8.791   0.131   3.586 -0.0941  0.2203 -0.2402
15027W        W34561   9.131   9.120  14.463  0.2542  0.1226 -0.1271
15028W        W34562   0.765   2.917  11.736  0.2861  0.0200  0.2993
15029W        W34563   9.523   7.974  13.284 -0.0603 -0.1231 -0.0917
15030W        W34564  10.869   9.076  13.461 -0.0224 -0.0859 -0.1875
15031W        W34565  13.567   1.457  12.689 -0.0325  0.0090  0.2276
15032W        W34566  17.191   4.835  12.514  0.0337 -0.0424  0.2778
15033W        W34567  15.313   4.048  12.222 -0.1078  0.0436 -0.0809
15034W        W34568   5.171   3.624   1.150 -0.0016 -0.1188 -0.0373
15035W        W34569   0.413   0.644  13.666  0.1143  0.1238 -0.0933
15036W        W34570  12.723  14.199  11.629  0.1534 -0.1079 -0.1197
15037W        W34571  18.052  17.607   0.783  0.1818  0.1686 -0.3220
15038W        W34572   4.625  14.535   3.985 -0.0933 -0.2169  0.0616
15039W        W34573  17.869  15.034  12.227  0.0456  0.1125  0.2585
15040W        W34574  13.325   3.865   0.370 -0.0781  0.1819  0.3598
15041W        W34575   3.484   9.252   0.309  0.1010  0.2970  0.3424
15042W        W34576  17.522  15.380  12.374 -0.1699  0.1859  0.1132
15043W        W34577   5.790   6.992   1.874  0.0450 -0.0760  0.1514
15044W        W34578  12.027   7.417  14.173 -0.0146 -0.0574 -0.1162
15045W        W34579   0.689  10.149  13.396  0.0931 -0.1730  0.1226
15046W        W34580  13.428  11.780  14.052  0.0263  0.1872 -0.0189
15047W        W34581  18.076   5.244  15.384 -0.0924  0.0080 -0.0990
15048W        W34582   3.608  17.112   1.458 -0.1507 -0.0721  0.1685
15049W        W34583   7.275   1.378  12.993 -0.1528 -0.1833  0.2871
15050W        W34584   3.105  17.522   2.435 -0.1438 -0.3201 -0.1934
15051W        W34585  11.340  11.138  13.694  0.0657  0.0111 -0.1145
15052W        W34586   6.602   6.400   3.579  0.0812 -0.0334  0.0055
15053W        W34587   3.650   0.084  13.060 -0.0423  0.0761  0.1497
15054W        W34588  13.100  15.548   3.293 -0.0132  0.0147 -0.0020
15055W        W34589   8.424   1.359   5.434 -0.0719 -0.2176 -0.2491
15056W        W34590  12.665   3.270  12.226 -0.1782 -0.1529  0.0603
15057W        W34591  12.409  15.654  15.412  0.1149  0.3650  0.0436
15058W        W34592  13.015  13.372   2.506  0.1309 -0.1545 -0.1904
15059W        W34593  17.866   2.725   0.288  0.0163  0.0796  0.0651
15060W        W34594  11.110   1.161  13.861  0.1099 -0.0964  0.0021
15061W        W34595   5.927   1.627   0.761 -0.1405  0.0171  0.2920
15062W        W34596   8.089   6.558   2.031 -0.0037 -0.0477 -0.2414
15063W        W34597  15.254   8.655   2.701 -0.2922 -0.1506 -0.0850
15064W        W34598   7.549  10.935  12.974 -0.1884  0.0952 -0.1955
15065W        W34599  15.396  11.877  14.695 -0.1797 -0.2543 -0.0397
15066W        W34600  10.376  12.663   0.532 -0.0262  0.1860 -0.2275
15067W        W34601  10.520  14.444  14.693 -0.0865 -0.0943 -0.2949
15068W        W34602  16.254   0.273   4.203 -0.2246  0.3822  0.0160
15069W        W34603   9.848   7.862   0.136  0.2323 -0.0561  0.0262
15070W        W34604  12.093  12.197  11.877  0.0940  0.1408 -0.0709
15071W        W34605   1.063   2.372   0.168 -0.1045 -0.3842  0.2870
15072W        W34606   0.748   8.779  11.771  0.0004  0.1743  0.2641
15073W        W34607   0.307  16.301  11.973 -0.0666  0.2702  0.2473
15074W        W34608   8.581   2.902   2.222 -0.1944  0.1422 -0.2056
15075W        W34609  11.667   7.533   3.027 -0.0049 -0.1805  0.2210
15076W        W34610   0.958   2.310   3.021  0.0046  0.0846 -0.1993
15077W        W34611  15.163   0.211   3.383 -0.1409  0.1022  0.2619
15078W        W34612  10.344   8.648  14.914 -0.0110  0.0469 -0.0413
15079W        W34613  14.640   8.455   1.488  0.1893 -0.1243  0.1517
15080W        W34614  14.654   3.915   2.539  0.0262 -0.0273 -0.0964
15081W        W34615   1.488  16.746  14.986 -0.2371 -0.1656  0.0273
15082W        W34616  17.225   6.785  15.616 -0.0753  0.4746 -0.0854
15083W        W34617   1.189  11.696  12.095  0.0978 -0.1707  0.2066
15084W        W34618   8.856   9.671  12.467  0.0727  0.1537  0.0033
15085W        W34619   6.242  17.886  12.077 -0.3519  0.2519 -0.4329
15086W        W34620   2.695  16.355   4.208  0.0714 -0.2273  0.0022
15087W        W34621   2.764   4.450   3.274  0.0850  0.1737 -0.1049
15088W        W34622   4.775  17.627   3.428 -0.1365  0.1262  0.3500
15089W        W34623  15.203  14.867   0.809 -0.0502 -0.1855  0.0633
15090W        W34624   1.929  17.197  13.687  0.0475 -0.5605  0.0980
15091W        W34625  17.579   9.242  12.242  0.0014 -0.0750  0.0860
15092W        W34626  17.600   7.596  12.145  0.2120 -0.0796  0.2310
15093W        W34627  16.917   4.931  15.632 -0.0608 -0.3855 -0.2303
15094W        W34628  16.770   4.097   0.984  0.4370 -0.0251  0.3221
15095W        W34629   2.740  12.064   2.774 -0.2777  0.0663  0.0744
15096W        W34630   3.203   8.172   3.697  0.0135  0.0712 -0.0089
15097W        W34631  15.359  16.076   3.700 -0.2295  0.3705 -0.0743
15098W        W34632  11.067  11.678   0.182 -0.3395 -0.0330 -0.1113
15099W        W34633   1.522   1.830  15.123 -0.0161  0.1475  0.0078
15100W        W34634   8.348  14.978   3.131 -0.1022  0.0196 -0.1963
15101W        W34635  17.117  13.683   5.334 -0.0836 -0.1682  0.4090
15102W        W34636  13.954  13.038  12.156 -0.2518  0.3690  0.0518
15103W        W34637  13.532   0.286   3.326  0.0766  0.3109 -0.0792
15104W        W34638   0.556   6.567  12.422  0.0659 -0.0257  0.0913
15105W        W34639   3.385   5.681  14.583  0.1039  0.0449 -0.1804
15106W        W34640  18.094   6.057  11.405  0.2740 -0.0547 -0.4587
15107W        W34641  14.472   3.749   3.020 -0.2795  0.2081  0.1499
15108W        W34642   4.710  16.405  13.625 -0.3141  0.2160 -0.1344
15109W        W34643   6.955   5.512  12.858  0.0501  0.1279 -0.0423
15110W        W34644  14.897   4.365  12.181  0.1599  0.0298 -0.0303
15111W        W34645   5.489   5.216   4.385 -0.2218 -0.1198  0.2145
15112W        W34646  17.641  15.095  15.161  0.0688  0.2525  0.0940
15113W        W34647  14.954  16.748   5.081 -0.3856  0.1952 -0.1564
15114W        W34648  13.758   9.346  14.775  0.0034 -0.2964 -0.2156
15115W        W34649   3.077   1.370   2.775 -0.1179  0.1419 -0.1259
15116W        W34650   8.428   9.662  15.228  0.1260 -0.0497  0.0857
15117W        W34651   5.369  10.862   3.742  0.3083  0.2885 -0.2004
15118W        W34652  12.557   1.112   5.522  0.2995  0.2328 -0.0499
15119W        W34653   9.772  12.236   2.741  0.3660 -0.0075 -0.0320
15120W        W34654  14.741  15.365  14.804 -0.1221  0.4088  0.0813
15121W        W34655   3.218  15.728  13.681  0.0357  0.1720  0.0322
15122W        W34656  16.718  12.938   3.414 -0.2122  0.0618  0.4006
15123W        W34657  14.460  12.966   0.232  0.2229 -0.1949 -0.1304
15124W        W34658  13.412  14.228  12.236  0.0487 -0.0369 -0.0484
15125W        W34659  10.591  10.981   2.968  0.0308 -0.0119 -0.2272
15126W        W34660  14.715   6.584   1.679  0.1776  0.2510  0.1608
15127W        W34661   7.209   5.013   0.797 -0.2680  0.3105 -0.1265
15128W        W34662  12.046  12.506  16.025 -0.1172 -0.0334  0.1169
15129W        W34663   3.785   5.465   2.126  0.1522 -0.0849 -0.0818
15130W        W34664   8.452  11.954   5.085  0.1230 -0.0122 -0.2114
15131W        W34665   2.196  16.464  15.426  0.1451 -0.0579  0.0454
15132W        W34666   8.146  14.307  12.561  0.1329  0.0493 -0.1195
15133W        W34667  16.865  13.126  14.383 -0.1180 -0.1161 -0.1329
15134W        W34668  14.220  12.167  14.434  0.0603 -0.2719 -0.1968
15135W        W34669   0.604   1.528  11.709 -0.3691  0.0580  0.2670
15136W        W34670   5.310   6.941  10.571  0.0825  0.1213  0.0902
15137W        W34671  16.909   4.162   4.358  0.0915  0.3265  0.1262
15138W        W34672   4.681  12.139  13.093 -0.4142 -0.0463  0.2097
15139W        W34673   8.454  14.065  15.933  0.1776 -0.1015 -0.1594
15140W        W34674  16.964  14.073   1.862  0.1969 -0.2104 -0.0766
15141W        W34675  12.385   3.470   3.199 -0.3243  0.2953  0.1255
15142W        W34676  11.929  16.062  14.136 -0.0561  0.3648  0.2924
15143W        W34677   0.211   1.485   0.083  0.0129  0.1894 -0.1711
15144W        W34678  16.685  13.011   0.575 -0.0956 -0.0823 -0.0947
15145W        W34679   5.253   1.352   0.182 -0.0394  0.1714  0.0739
15146W        W34680  10.005   7.246  11.317  0.1185  0.2150 -0.2595
15147W        W34681  17.380  12.619   0.834  0.1173 -0.1445 -0.1495
15148W        W34682   7.911  13.132  12.007 -0.3012  0.1293  0.0436
15149W        W34683  13.562   3.313  11.975 -0.0001  0.0658 -0.1036
15150W        W34684  14.038  11.632  13.771  0.1039 -0.1539 -0.1177
15151W        W34685  15.927  12.620   3.681  0.0319  0.1232 -0.1467
15152W        W34686   0.282  16.325   0.223  0.0766  0.0985 -0.0760
15153W        W34687   5.895   4.469  13.904  0.0076  0.1878  0.1367
15154W        W34688   4.033   3.217   0.096  0.1238  0.0962 -0.0682
15155W        W34689  16.593  12.928  14.823  0.4455 -0.1993  0.0751
15156W        W34690   2.608   1.868  12.889  0.1940 -0.3795  0.2900
15157W        W34691   4.922   1.485  13.009  0.0979  0.1628  0.3027
15158W        W34692  14.252   9.263   1.045 -0.0782  0.2064  0.0506
15159W        W34693  13.744  14.379   1.411 -0.0937  0.2549  0.2867
15160W        W34694  11.067  16.937  14.153  0.1442  0.0095 -0.1032
15161W        W34695  10.983   4.009   4.576  0.2065  0.1287  0.3218
15162W        W34696   1.094  16.445  14.743  0.1140 -0.1563 -0.0690
15163W        W34697  14.060   8.281  14.654 -0.1108 -0.3889 -0.0313
15164W        W34698  12.479  12.590  11.102  0.0037 -0.1000  0.0484
15165W        W34699   2.581   4.491  15.120 -0.0111 -0.1444 -0.3083
15166W        W34700   4.390   6.822   0.389 -0.0852 -0.1321 -0.0095
15167W        W34701   7.524   5.686  12.987 -0.0955 -0.0806 -0.0787
15168W        W34702   9.024   6.539   0.120  0.3081 -0.0302 -0.0862
15169W        W34703   2.090   2.611   0.411  0.2292  0.1094 -0.2957
15170W        W34704  17.883  12.206  12.968 -0.3320 -0.0154 -0.0002
15171W        W34705   7.917  14.984   4.105  0.0357  0.0507  0.2402
15172W        W34706  16.818   5.240   4.792 -0.3040  0.0421 -0.1203
15173W        W34707   9.142   1.698   3.844 -0.1038 -0.0833  0.2484
15174W        W34708  15.687   3.048   1.374  0.0204 -0.0993  0.4476
15175W        W34709   0.858   7.627  11.856 -0.0348  0.0225  0.0353
15176W        W34710  15.640  12.191  14.119 -0.2753 -0.1072 -0.1589
15177W        W34711   3.187  13.613   0.772  0.0737  0.0224  0.0880
15178W        W34712   3.177   1.239  11.664 -0.0980  0.0726 -0.2345
15179W        W34713   1.392   3.674  15.317  0.2240 -0.0400 -0.3339
15180W        W34714  13.760   9.342   1.036  0.0120 -0.3003  0.2756
15181W        W34715   8.145  11.132  15.739 -0.0337  0.1090  0.0924
15182W        W34716   2.139   9.606   3.072 -0.2774 -0.1613  0.1092
15183W        W34717  16.332  10.651   2.121 -0.0034  0.1363 -0.1414
15184W        W34718   4.129  17.323   1.490  0.2109  0.2566  0.2196
15185W        W34719   2.547   5.522  14.965 -0.3272 -0.3596  0.0434
15186W        W34720   8.649  13.910   3.930  0.0785  0.0540  0.2551
15187W        W34721   1.254   2.998   0.403 -0.2018  0.1366 -0.0675
15188W        W34722  13.061   3.491   2.413 -0.2117 -0.2475 -0.3459
15189W        W34723   0.479   5.733  14.391 -0.0178  0.1090  0.1669
15190W        W34724   1.298   9.036  13.543 -0.2471  0.1012 -0.0769
15191W        W34725  17.249   1.317  16.036 -0.0707  0.2545  0.1161
15192W        W34726   7.938   2.173   3.461 -0.3571  0.3200 -0.2187
15193W        W34727   5.277   5.537  13.549 -0.1676  0.1357  0.0361
15194W        W34728   7.848  10.475  15.066 -0.0535  0.0785  0.2782
15195W        W34729  12.157  16.051  12.748  0.0970  0.0295  0.0191
15196W        W34730  10.487  12.753   4.125  0.2066  0.0062 -0.2245
15197W        W34731  16.166  11.304  11.398  0.0664  0.3636  0.2506
15198W        W34732   0.106   3.035   3.612 -0.0726  0.1751  0.1144
15199W        W34733   5.772   8.470  15.179 -0.0254  0.1255  0.0375
15200W        W34734   3.801  11.944  14.133  0.0410  0.0346 -0.1122
15201W        W34735  17.497  16.451  13.552 -0.1132  0.0071  0.0366
15202W        W34736  10.706  10.607   2.159 -0.0619 -0.0931  0.0370
15203W        W34737   6.903   8.335   3.679 -0.2946  0.0016 -0.0010
15204W        W34738   4.018  14.279  15.112  0.1136  0.1312  0.2180
15205W        W34739   7.713   9.630   0.925  0.0287  0.3796  0.0668
15206W        W34740  12.642   8.485  12.144  0.1575  0.0151  0.0686
15207W        W34741   1.566  13.993  13.516 -0.0062  0.0702 -0.4394
15208W        W34742   9.211   6.761  13.824  0.2881 -0.2375  0.0559
15209W        W34743  12.882   2.508  11.725  0.1886 -0.2670  0.1362
15210W        W34744   9.713   8.157   2.165  0.2679 -0.0513 -0.0447
15211W        W34745  10.714  17.785   4.208  0.0297 -0.1249 -0.2290
15212W        W34746  10.855   8.805  15.127 -0.0017 -0.0378 -0.1677
15213W        W34747  12.471   4.461   2.719  0.0789 -0.3238 -0.0911
15214W        W34748   9.511   5.756  14.547 -0.0409 -0.0045  0.2306
15215W        W34749   3.313  10.979  11.873 -0.2002 -0.0738 -0.0129
15216W        W34750   1.113   5.254   1.878 -0.0232 -0.0308  0.2393
15217W        W34751   7.240   0.776  13.700 -0.1248 -0.0282 -0.0167
15218W        W34752   0.412  11.459   1.764 -0.1047  0.0427  0.1362
15219W        W34753   4.977  14.350   1.626  0.0503 -0.1574 -0.0854
15220W        W34754   7.093   0.757   4.212 -0.2926  0.2058  0.0268
15221W        W34755   5.469  10.249  13.522  0.1159  0.2868 -0.0687
15222W        W34756  10.248   7.647   0.381 -0.0307 -0.2023 -0.0501
15223W        W34757   3.773  17.177  15.552 -0.0896 -0.1368 -0.2177
15224W        W34758   5.512   3.228   1.153 -0.0332  0.2625 -0.1816
15225W        W34759  15.370   4.138  14.965 -0.0972 -0.1202 -0.1819
15226W        W34760  10.311   5.142  13.512  0.0283  0.2545 -0.1445
15227W        W34761   5.800   9.722  14.110 -0.0930 -0.0135  0.3446
15228W        W34762   4.019   7.313   1.390 -0.1769 -0.3495  0.1552
15229W        W34763   2.266   3.404   0.415  0.2960  0.1267  0.0045
15230W        W34764  17.403   7.738   3.295  0.0057  0.0559 -0.1341
15231W        W34765  14.761  13.056   3.455 -0.1857  0.3529 -0.2493
15232W        W34766   9.054  12.007   4.647 -0.1720  0.0534 -0.0413
15233W        W34767   1.385  12.176   2.717 -0.0544  0.0434 -0.1067
15234W        W34768   6.521   1.041   1.109 -0.0425  0.6135  0.0965
15235W        W34769   6.449  16.339   1.984 -0.0590  0.1396 -0.0766
15236W        W34770  17.363   9.185   2.166  0.0832  0.0067  0.1306
15237W        W34771   5.542  16.250   4.120 -0.2205 -0.0897  0.1602
15238W        W34772  12.597  18.021   3.547  0.0626  0.1356  0.0718
15239W        W34773   8.635   7.259   2.473  0.2276  0.0788  0.1035
15240W        W34774   7.783  12.568   1.158  0.3911 -0.1512  0.0531
15241W        W34775  11.841  16.985  12.376 -0.2284  0.0380 -0.2347
15242W        W34776  17.034  17.652  12.873 -0.1731 -0.1038  0.0289
15243W        W34777   1.814   1.952  13.158  0.1577 -0.0828 -0.0227
15244W        W34778  13.858   0.794  12.192  0.0860 -0.2090  0.0943
15245W        W34779   1.879  15.376   4.096 -0.1050  0.1897 -0.1785
15246W        W34780  16.523   5.184  12.233 -0.0467 -0.0182 -0.0165
15247W        W34781   5.801   7.576   3.332  0.2460 -0.1386 -0.1499
15248W        W34782   0.297  10.776   1.773 -0.2287 -0.0679  0.1155
15249W        W34783   3.504   2.678  12.243 -0.2237 -0.1859 -0.0136
15250W        W34784   2.204   0.340  15.422 -0.3621  0.2132 -0.2031
15251W        W34785   1.744  16.399  13.860  0.4090  0.0749  0.2381
15252W        W34786  10.087   8.904   2.213  0.0596 -0.1662  0.0376
15253W        W34787  11.467   2.529  11.314  0.1433  0.1499  0.0770
15254W        W34788   2.004  17.124   1.245  0.1393  0.1649  0.0918
15255W        W34789  15.809   0.106  14.394  0.2744  0.2026  0.2259
15256W        W34790  18.136   6.701  15.965  0.0452  0.1008 -0.1314
15257W        W34791  10.490  15.662  10.460 -0.2017  0.2129  0.0311
15258W        W34792   4.902   6.448  15.597 -0.1199 -0.2143  0.0960
15259W        W34793   9.385  10.149   0.359  0.0365  0.2343 -0.1028
15260W        W34794  11.553   4.536   0.732 -0.2388 -0.1060 -0.1903
15261W        W34795   7.847   1.158   3.656 -0.1291 -0.0596  0.0868
15262W        W34796   4.171   5.760   2.533 -0.4244 -0.1252 -0.0427
15263W        W34797  13.758   7.297  11.610 -0.0755  0.0247 -0.0525
15264W        W34798   0.377  14.617   2.983  0.2722  0.2960  0.0975
15265W        W34799   8.565   8.143   0.893 -0.0763 -0.0487  0.3375
15266W        W34800  14.789  18.082   3.850 -0.0273 -0.0616 -0.0940
15267W        W34801   5.667   9.903   3.860  0.1940 -0.0710  0.0134
15268W        W34802   9.086   9.089   3.290 -0.1889  0.1293  0.2695
15269W        W34803   9.630   8.030  13.797  0.0260  0.1416  0.1355
15270W        W34804   8.209   5.765   1.964 -0.3206 -0.1188  0.1404
15271W        W34805  12.477   0.320  14.419  0.0854  0.2723 -0.0017
15272W        W34806   8.858   8.470  13.724 -0.1558  0.0009  0.0760
15273W        W34807  12.691  10.965   1.740  0.2219  0.1099 -0.1214
15274W        W34808  11.619   6.072   1.724 -0.1246 -0.2400 -0.0002
15275W        W34809   4.614  11.555   0.995  0.1201 -0.0895 -0.1220
15276W        W34810   2.649  14.489   0.694 -0.0059  0.0299  0.1781
15277W        W34811   4.094  15.283  13.791 -0.0503  0.2028 -0.0887
15278W        W34812  10.429  16.142   2.599 -0.1167  0.0540 -0.1791
15279W        W34813  11.760   2.177  15.325  0.0058 -0.3879 -0.1995
15280W        W34814  13.877   4.960   0.783 -0.1485 -0.2483  0.2743
15281W        W34815  16.050   7.883   1.163  0.2217  0.4156 -0.1507
15282W        W34816   0.919   8.376   2.355 -0.0708 -0.5789  0.1510
15283W        W34817   1.783  11.086   0.174 -0.2051  0.1251  0.2954
15284W        W34818   6.291  11.968   0.514 -0.1276 -0.2818  0.0737
15285W        W34819  11.059  15.953   1.518  0.2168  0.0756 -0.0128
15286W        W34820  16.884   9.281   2.619 -0.0525 -0.0229 -0.1234
15287W        W34821   0.981  14.410   2.379 -0.2157 -0.1077 -0.2347
15288W        W34822  10.962  13.440   3.063  0.2463  0.0863 -0.0106
15289W        W34823  16.168   5.700  13.528  0.1553  0.1044  0.1817
15290W        W34824  10.585  14.659  10.746  0.2940  0.2462 -0.3468
15291W        W34825  12.377  16.083   1.306  0.0533 -0.1761 -0.2757
15292W        W34826   0.604  16.413  14.599 -0.0751  0.0281 -0.2534
15293W        W34827   5.092  10.824  11.877  0.1241 -0.0758 -0.2701
15294W        W34828  17.610   7.157  14.425  0.1426  0.0837 -0.0646
15295W        W34829   2.644  10.889   1.730 -0.0923  0.0188 -0.0593
15296W        W34830   1.335   0.877   0.071 -0.1636 -0.0482 -0.0407
15297W        W34831   6.870  16.609   0.270 -0.0647  0.0596 -0.0252
15298W        W34832   5.704   8.572   2.191 -0.1912 -0.1585 -0.1292
15299W        W34833  13.412  15.579   3.728 -0.3153  0.1212 -0.0002
15300W        W34834   5.314   0.974  11.554  0.2396  0.1416  0.2259
15301W        W34835   6.355   4.356   2.317 -0.0839 -0.0153 -0.0417
15302W        W34836   3.319  17.844   2.113  0.2885  0.0132 -0.2323
15303W        W34837   2.085  12.750   1.194  0.0260  0.1434 -0.0671
15304W        W34838  15.578   4.887  15.226  0.1307  0.2980 -0.1695
15305W        W34839   6.779   8.518  12.141 -0.0597  0.1005 -0.0868
15306W        W34840   5.607   4.741   2.922 -0.3142 -0.3099  0.1692
15307W        W34841   2.676  11.198  14.677  0.0496 -0.0917  0.1039
15308W        W34842   0.993  12.687   3.275  0.0739 -0.0114 -0.2584
15309W        W34843   3.642  17.941  15.843  0.1863  0.1558 -0.2639
15310W        W34844  17.921   3.996   3.536  0.1002 -0.1005 -0.1515
15311W        W34845  11.546   5.418   4.666 -0.0328 -0.0461 -0.0695
15312W        W34846  11.799  13.248  14.111  0.0066 -0.1812  0.1765
15313W        W34847   9.199  16.315  13.257  0.0836  0.1770  0.0912
15314W        W34848   6.679  11.478  11.417 -0.0417 -0.3228 -0.0291
15315W        W34849  14.259  17.391  14.694  0.1580 -0.1821  0.0678
15316W        W34850  11.579   4.070  14.257  0.1410 -0.2427 -0.0471
15317W        W34851  11.409   7.365  15.759 -0.0246 -0.0144  0.2775
15318W        W34852   0.804   4.304  15.408 -0.1749  0.0729  0.0607
15319W        W34853   0.419   6.845  12.891  0.2723 -0.3959 -0.0954
15320W        W34854  16.915   9.195  13.616 -0.0964  0.2759 -0.1674
15321W        W34855  13.899  14.881   1.283 -0.0491 -0.0491 -0.0493
15322W        W34856  13.206  12.812  12.147  0.2082  0.0400  0.1306
15323W        W34857  14.322   8.533   0.322  0.0677 -0.0951 -0.0369
15324W        W34858   8.427   1.612   1.012 -0.1760 -0.2601 -0.0538
15325W        W34859  15.592  16.255   1.100  0.3363  0.1156  0.1808
15326W        W34860   3.410   7.568  14.270  0.1461  0.3050  0.2734
15327W        W34861  12.665   5.330  13.300 -0.0943  0.1187  0.1480
15328W        W34862  14.550  12.284  15.605 -0.2341  0.0347 -0.3131
15329W        W34863   9.032   4.695  14.711  0.2934 -0.0088  0.2187
15330W        W34864   2.811   6.526  15.701 -0.0175 -0.0453  0.0136
15331W        W34865   8.363  13.101  15.377  0.2147  0.1450  0.5684
15332W        W34866  10.538   0.604   2.789  0.0806  0.0001  0.1049
15333W        W34867  11.682  15.335  15.792 -0.2635 -0.2606  0.2286
15334W        W34868   2.508   9.271   0.133 -0.0411  0.1495 -0.3606
15335W        W34869   9.323  17.046  11.682 -0.0157 -0.0353 -0.1419
15336W        W34870  12.182   7.746   4.170 -0.3517  0.4060 -0.2136
15337W        W34871  17.343  10.940  14.605  0.0059 -0.1979 -0.1914
15338W        W34872  11.005   5.774   1.229 -0.1320 -0.2056  0.1698
15339W        W34873   7.994  12.068  13.490  0.0433 -0.1156  0.1162
15340W        W34874   5.817  13.448   1.964 -0.1035  0.3165 -0.0984
15341W        W34875   7.666   6.333  13.626 -0.2890  0.0732  0.1262
15342W        W34876   2.360  17.790  12.504  0.0640 -0.2498 -0.1641
15343W        W34877  12.165  15.240   1.220 -0.0267  0.2025 -0.1233
15344W        W34878   1.228   2.155   0.603 -0.1524 -0.4306 -0.0887
15345W        W34879   1.337   7.292   4.623  0.2353 -0.4246  0.0203
15346W        W34880  10.408  10.234  14.560  0.2735  0.1644  0.2704
15347W        W34881  12.525   7.723   2.580  0.1231  0.1757  0.0822
15348W        W34882   8.816   7.702   1.632  0.0379 -0.0587  0.1467
15349W        W34883   1.228  12.512   0.514 -0.1980  0.2956 -0.0889
15350W        W34884  14.835  14.383  15.068 -0.1558  0.1956  0.0214
15351W        W34885  13.899  15.210   3.657 -0.0170  0.2529  0.1247
15352W        W34886   7.058   6.572  14.530  0.4723  0.1337  0.0235
15353W        W34887  15.201  11.381   0.629  0.0676 -0.1345  0.0420
15354W        W34888   6.661   3.363   3.050 -0.1488 -0.0925 -0.0176
15355W        W34889   5.740   0.261  11.214 -0.1209  0.1105  0.1097
15356W        W34890  12.773  14.928   2.984 -0.0225  0.2722 -0.3515
15357W        W34891  17.680  11.893   0.490  0.2896 -0.2125  0.1758
15358W        W34892  11.653   8.394  11.905 -0.2935 -0.1106 -0.0834
15359W        W34893  14.815   6.853   4.670 -0.1037  0.3255  0.0468
15360W        W34894   5.195  11.678   3.555 -0.1618  0.1534  0.0699
15361W        W34895  11.496   7.842  13.111  0.1320  0.0104  0.1510
15362W        W34896   0.981  14.876  12.121 -0.2931 -0.1976  0.0020
15363W        W34897  16.147  16.095   1.853 -0.1273 -0.1402  0.1259
15364W        W34898  15.308  14.727   3.747 -0.3319 -0.0300  0.1963
15365W        W34899   1.084  11.217  15.247 -0.0424  0.0710  0.0311
15366W        W34900  12.192   8.043   1.168  0.0486 -0.1452 -0.0951
15367W        W34901  14.936   8.312   3.670  0.2766  0.0042 -0.2259
15368W        W34902   3.586   4.742  12.333 -0.0285  0.0563 -0.1236
15369W        W34903  16.162   8.221  14.554  0.1034 -0.0765 -0.0076
15370W        W34904  16.052  11.359   3.839  0.0864  0.1536  0.1259
15371W        W34905  11.510  10.929  12.261 -0.1689  0.2237  0.4030
15372W        W34906  14.555   9.547   1.377  0.2814  0.0275  0.2549
15373W        W34907  13.451  10.661   0.487 -0.0442 -0.3091  0.1028
15374W        W34908  13.219  15.007  11.992  0.1132  0.0296  0.1945
15375W        W34909  10.860  14.956   2.053  0.2881 -0.1571  0.0765
15376W        W34910  12.553  15.222  13.773  0.0563  0.3853  0.1205
15377W        W34911   9.985   4.913  14.523  0.1368 -0.1544  0.0100
15378W        W34912  14.993  12.457  12.087  0.2005 -0.1303 -0.3084
15379W        W34913   8.067  10.592  15.892  0.0297 -0.1564 -0.2094
15380W        W34914   6.994  12.801   2.502  0.1864  0.1988 -0.2291
15381W        W34915   4.610   2.925   1.267 -0.0701  0.2425 -0.2875
15382W        W34916  15.549  12.085   1.845  0.3523 -0.0850 -0.2178
15383W        W34917  15.273   5.859   3.902  0.0708 -0.1319 -0.1566
15384W        W34918   2.932  12.818  15.938 -0.2863  0.1595 -0.2842
15385W        W34919   9.469   9.889  13.258 -0.0723 -0.1948 -0.2513
15386W        W34920  11.988   6.341   3.859  0.0402  0.0158  0.0475
15387W        W34921   0.592  13.969   3.002 -0.1454  0.1398  0.1106
15388W        W34922   8.921   4.758  12.623 -0.0610 -0.0256 -0.1943
15389W        W34923  14.140   6.626   0.153  0.0055  0.0047  0.1110
15390W        W34924   4.893   4.286  12.009 -0.1101  0.0970  0.1905
15391W        W34925  12.084   9.649  15.857 -0.0613 -0.0118  0.1817
15392W        W34926   6.681   5.316  14.870 -0.0388 -0.2932  0.1502
15393W        W34927   9.152   5.051   0.643 -0.0128 -0.2308  0.2967
15394W        W34928   1.616  10.950   4.121 -0.0369  0.0188  0.1250
15395W        W34929   0.305  17.840   0.914  0.2241 -0.0445 -0.2988
15396W        W34930  12.994  14.807   5.339  0.1679  0.0752  0.1716
15397W        W34931  15.966  10.506   1.799 -0.3527  0.2495  0.1878
15398W        W34932   7.241   5.879   3.826  0.0460 -0.0817  0.0715
15399W        W34933   1.054  17.353  15.890 -0.1117  0.4617 -0.4286
15400W        W34934  14.379  17.878   5.273  0.0557 -0.3707 -0.1678
15401W        W34935   0.931  15.177  14.050  0.2815 -0.0775 -0.0948
15402W        W34936   5.144  15.103   3.352 -0.0830  0.2162 -0.1644
15403W        W34937  13.012   9.999   4.098 -0.2166 -0.0125  0.1090
15404W        W34938   7.392  13.017   3.532  0.5113 -0.0970 -0.2684
15405W        W34939  11.335  17.410  13.026 -0.1567 -0.2161 -0.0143
15406W        W34940   9.667  13.613   3.339 -0.2046 -0.1272  0.1054
15407W        W34941   2.218   9.355  12.962  0.0844 -0.1174 -0.0165
15408W        W34942   6.388  14.965  15.665  0.1015  0.0571  0.2414
15409W        W34943  11.088  16.529   4.630 -0.0349  0.0805 -0.0587
15410W        W34944   6.115  13.193   4.473 -0.0591 -0.0337 -0.0810
15411W        W34945   3.392  15.193   0.332  0.1081  0.1940  0.3175
15412W        W34946  13.141   9.324   1.558  0.0074  0.1166 -0.0616
15413W        W34947   2.242  18.013   4.031  0.1565 -0.3093 -0.0911
15414W        W34948  14.712  15.137   2.506  0.1827 -0.0733 -0.1618
15415W        W34949   1.144   0.599  13.140 -0.1260  0.3133  0.1632
15416W        W34950  14.228  17.277  13.354 -0.2074  0.2241  0.1712
15417W        W34951  18.191   9.006  13.257 -0.1770  0.3883  0.1086
15418W        W34952  13.224  16.844   3.119  0.1374 -0.0842  0.0224
15419W        W34953   3.877   5.022   3.017 -0.0197  0.1907 -0.2177
15420W        W34954  11.137   8.259  15.090 -0.0514 -0.0907 -0.1293
15421W        W34955   2.128   5.113   0.780 -0.1338  0.1248  0.0231
15422W        W34956  14.094   7.610  12.450 -0.1973  0.0346 -0.0570
15423W        W34957  10.467   4.668  13.465  0.4750  0.0827 -0.0520
15424W        W34958  10.792   2.413  14.666  0.2890  0.1450  0.3098
15425W        W34959  13.277  12.465   1.305 -0.2132  0.0973  0.1282
15426W        W34960   6.160   9.742   0.506 -0.2548  0.1544  0.0184
15427W        W34961   1.692   8.636  13.348 -0.0609  0.0471 -0.0610
15428W        W34962  17.303  15.380   2.660 -0.3999  0.1177 -0.4818
15429W        W34963  10.001   6.833   2.237 -0.0528  0.0208  0.0879
15430W        W34964   0.184   0.792   3.722  0.0082 -0.1832 -0.0689
15431W        W34965  16.806   8.782   0.416  0.0986 -0.1137 -0.1088
15432W        W34966   7.027   6.931   4.275  0.1021 -0.2276  0.0650
15433W        W34967   5.172  14.111   4.675  0.3259 -0.2379 -0.1468
15434W        W34968   2.520   3.958   3.024 -0.0978 -0.1146  0.0107
15435W        W34969   7.056   9.716   3.169 -0.0031 -0.1316 -0.1647
15436W        W34970   2.322  12.880  11.965  0.1660  0.0817  0.0481
15437W        W34971   7.340   5.044  13.588 -0.0330  0.1158 -0.0605
15438W        W34972   6.181   7.530  13.164 -0.1587 -0.1270 -0.1489
15439W        W34973   0.038   0.479   1.599  0.2789  0.0068  0.0265
15440W        W34974   8.896   1.733  11.289  0.2005 -0.0887  0.0648
15441W        W34975   1.293  12.477  15.252 -0.1670 -0.0894  0.1105
15442W        W34976  17.715   1.917  13.129  0.0469  0.0615  0.2373
15443W        W34977  11.250   4.088  11.521  0.0216  0.1390 -0.2544
15444W        W34978   4.415   3.507   2.161  0.0633 -0.2404  0.1891
15445W        W34979   6.445   9.039  15.062 -0.2210 -0.0582  0.1120
15446W        W34980  14.432   6.435   3.691  0.2191 -0.1008  0.0972
15447W        W34981   8.740  14.415   0.570 -0.1367  0.1178 -0.0010
15448W        W34982  10.791   9.629  13.532  0.0476 -0.1088 -0.1351
15449W        W34983   1.207   9.520   3.640  0.0402  0.3015 -0.1245
15450W        W34984   6.105  15.131   5.335 -0.0602 -0.1134  0.1426
15451W        W34985  12.290   0.643   1.637  0.2207  0.0926 -0.2599
15452W        W34986   9.614   9.099  12.879 -0.1071  0.1058  0.0186
15453W        W34987   3.097   5.019   0.617  0.2554  0.1190 -0.3091
15454W        W34988   4.069  11.549  12.903 -0.0950 -0.2192 -0.0868
15455W        W34989  14.551   4.306   1.356 -0.1420 -0.0866  0.0951
15456W        W34990   0.084   0.951  14.068 -0.2050  0.2825 -0.2046
15457W        W34991   2.328   2.726  12.926 -0.1649 -0.2379  0.0740
15458W        W34992   5.050  13.846   3.779  0.1542  0.0707  0.0018
15459W        W34993   1.055   2.410  11.651  0.1430 -0.1943  0.0616
15460W        W34994   4.342  15.114  15.977 -0.3226 -0.0397 -0.1458
15461W        W34995   8.968  14.052  13.572  0.0896  0.0711 -0.0371
15462W        W34996   2.853   8.242  15.102  0.1245 -0.0669 -0.0497
15463W        W34997  17.032   1.799  15.287 -0.0058 -0.2741  0.0207
15464W        W34998  17.125  15.062   6.316 -0.1761  0.2412 -0.0490
15465W        W34999  13.663  15.665  15.789 -0.2185  0.0275 -0.2545
15466W        W35000  15.451   8.888   1.408 -0.2374  0.1556 -0.1160
15467W        W35001   5.276   9.078  11.506  0.1324 -0.1346 -0.0329
15468W        W35002   8.544  14.967   0.421 -0.0309 -0.0753 -0.1400
15469W        W35003   3.329  12.961   3.567 -0.0101 -0.1085  0.1751
15470W        W35004  17.438   0.479   5.789  0.0470 -0.2758 -0.1381
15471W        W35005   9.999  10.668   1.031 -0.0162  0.1201 -0.3005
15472W        W35006  11.735  12.882   2.860 -0.1973 -0.3045 -0.2644
15473W        W35007   4.347   5.528  14.195 -0.0536  0.2468  0.2630
15474W        W35008   9.398   7.338  15.181 -0.0928  0.3681  0.0104
15475W        W35009  15.844  17.874   1.878  0.1391  0.0261  0.1781
15476W        W35010   5.140  14.446  11.760 -0.2466 -0.1853  0.0602
15477W        W35011   8.331   4.505   0.594 -0.2771  0.0399  0.0631
15478W        W35012  16.777   8.637  16.018  0.0667 -0.0039 -0.2439
15479W        W35013   8.696   4.342   2.632  0.1433  0.0305 -0.1285
15480W        W35014  11.953   3.351   0.237  0.1844  0.2413 -0.0028
15481W        W35015  10.652  10.751  15.460  0.1646  0.2700 -0.1932
15482W        W35016  14.845  10.759  14.779 -0.0408 -0.1425  0.0649
15483W        W35017   4.328  13.173   4.417 -0.0425 -0.0585  0.1383
15484W        W35018  14.697  14.019  12.459  0.1196  0.2835 -0.0120
15485W        W35019   6.967   9.794   0.322  0.0526  0.4513 -0.1300
15486W        W35020   2.055  15.651   2.443 -0.0518 -0.0760  0.1982
15487W        W35021  10.222  17.443   4.024 -0.0891 -0.2394  0.2555
15488W        W35022   3.188  11.160   0.083 -0.0416  0.1509  0.2586
15489W        W35023  14.861   7.163   0.967 -0.1768 -0.3023  0.1864
15490W        W35024  15.831  14.056   0.919  0.0288  0.0528  0.0385
15491W        W35025   3.775  13.949   4.263 -0.0674 -0.1672 -0.4086
15492W        W35026  12.746  10.317   2.267  0.0036  0.1764  0.0783
15493W        W35027  11.109   6.232  15.701 -0.3196 -0.2668  0.0130
15494W        W35028  13.806  17.775  15.274 -0.0017  0.1043  0.1937
15495W        W35029  16.210   6.228   4.094 -0.1641 -0.1576  0.0627
15496W        W35030  11.580   1.575  13.523  0.2201  0.0042  0.3301
15497W        W35031   0.036   7.852  12.862  0.2561 -0.0786  0.0085
15498W        W35032   4.509  17.282  15.185 -0.3234 -0.2091  0.1653
15499W        W35033  10.841   0.343   1.068  0.1962 -0.2132  0.3277
15500W        W35034  12.849  15.795  13.133  0.1623 -0.3251  0.0156
15501W        W35035  10.520   3.440  11.585 -0.0335  0.0081 -0.2557
15502W        W35036  16.733  17.845   1.675  0.0273 -0.1060 -0.0774
15503W        W35037   0.359   7.237  14.877 -0.0387 -0.1167 -0.1000
15504W        W35038   5.245  12.350  14.592  0.1180  0.0133 -0.2309
15505W        W35039  10.962   0.614  13.433  0.2386  0.1912  0.1388
15506W        W35040   3.226   4.451   3.469  0.3668  0.2560 -0.1890
15507W        W35041   4.009  17.470  12.494 -0.0835  0.1340  0.2409
15508W        W35042  11.886   7.692  13.789  0.2843 -0.0894 -0.1223
15509W        W35043   5.504   9.036   0.228  0.0314  0.0009  0.1319
15510W        W35044  17.390   0.075  15.725 -0.2127  0.2928  0.2650
15511W        W35045   3.043  10.423   3.935  0.1239  0.1238  0.3557
15512W        W35046   2.446   4.700   0.326  0.0218 -0.0762  0.0710
15513W        W35047   5.704  15.777  14.793  0.0641 -0.0245 -0.1403
15514W        W35048   5.042  16.529  14.080  0.0557  0.2884  0.3019
15515W        W35049   6.821  14.188   0.614  0.0380  0.0528 -0.1003
15516W        W35050   3.065  17.124  10.870 -0.1986  0.1408 -0.0622
15517W        W35051   1.867   9.415  15.396  0.0021 -0.0282 -0.1271
15518W        W35052  13.349  17.511   3.915  0.2131  0.0611  0.1096
15519W        W35053   2.481   0.899  11.033  0.0817  0.0495 -0.0754
15520W        W35054  13.121  11.182   1.246 -0.1407  0.0396 -0.0816
15521W        W35055   9.639   3.982  15.503 -0.3747 -0.1995  0.0130
15522W        W35056   7.837   5.437   1.879 -0.0723 -0.0515  0.0122
15523W        W35057  13.469   5.345   2.509  0.0593  0.0323  0.1762
15524W        W35058   8.283   0.555  12.223 -0.0667  0.0838  0.0122
15525W        W35059  11.044   1.607  15.581  0.0858 -0.0300  0.1970
15526W        W35060  15.633   7.598  14.261  0.2373  0.2095 -0.1813
15527W        W35061   4.338  13.890  13.765  0.2188  0.2243 -0.1692
15528W        W35062  13.371   3.268   1.199 -0.0208  0.5483  0.2812
15529W        W35063   4.294   7.640   3.164  0.0000  0.1048  0.3038
15530W        W35064   7.855   3.753  15.619 -0.2718  0.0782 -0.1177
15531W        W35065  14.290   0.912   3.078 -0.3010 -0.0432 -0.0114
15532W        W35066   3.878   8.088   5.555  0.0442  0.1499  0.1316
15533W        W35067  17.961   0.527  14.668 -0.0230  0.1615  0.0393
15534W        W35068   9.855   5.609  12.811  0.2304 -0.0189  0.0244
15535W        W35069   4.553   8.638  10.956  0.1958 -0.0799 -0.0464
15536W        W35070  14.034   2.399  12.999  0.1709 -0.3167  0.0126
15537W        W35071   8.052  13.238   3.227  0.1834 -0.3100  0.2701
15538W        W35072  14.348   9.219  14.718  0.2084 -0.5388  0.2845
15539W        W35073  16.530   4.197  13.206 -0.1022  0.1647  0.1925
15540W        W35074  17.332   2.347  13.243 -0.3231  0.0827 -0.0142
15541W        W35075  14.098  13.501   1.590  0.0114 -0.0997 -0.0594
15542W        W35076   5.612   0.835   0.254 -0.0987  0.0532  0.0016
15543W        W35077   4.029   3.920   2.553 -0.2869  0.1373  0.1692
15544W        W35078  16.244  12.682   0.539 -0.0744  0.1692  0.3089
15545W        W35079  15.361   5.244  11.823 -0.4556  0.2137  0.0208
15546W        W35080   6.802   6.850   3.831  0.1500  0.3322  0.1966
15547W        W35081   1.002  13.212  11.806 -0.2561 -0.2148  0.1442
15548W        W35082  12.286  11.726  15.710  0.1683 -0.1133  0.2743
15549W        W35083   7.272  10.091   2.126  0.3425 -0.0339 -0.0411
15550W        W35084   0.288   8.835  13.904 -0.0454  0.3444  0.0657
15551W        W35085   8.817   4.867   3.374 -0.1939  0.1339 -0.0575
15552W        W35086   6.677  15.429  13.691  0.1953 -0.0963  0.2933
15553W        W35087   2.531   0.942   0.577 -0.2198  0.1487 -0.0370
15554W        W35088  16.568   8.179   1.636  0.0731  0.2265 -0.1213
15555W        W35089   1.474  15.392  15.345  0.2046 -0.0285  0.0015
15556W        W35090   4.926   1.406  13.595  0.1111 -0.1598 -0.2363
15557W        W35091  14.063  16.988  13.746  0.0722  0.1412 -0.3232
15558W        W35092   5.891  16.162  15.122 -0.2860 -0.1471 -0.0432
15559W        W35093   2.235  15.090  14.740 -0.2197 -0.2183  0.1488
15560W        W35094   9.285   1.490  14.430 -0.2007 -0.0034  0.1999
15561W        W35095  18.183   0.806  15.507 -0.1453 -0.2012  0.0054
15562W        W35096   9.690  16.467   0.578  0.4674  0.1866  0.1051
15563W        W35097  14.656   3.383   4.118 -0.3025 -0.2698  0.1914
15564W        W35098  16.478   1.331  14.612 -0.3186 -0.0451  0.1048
15565W        W35099   0.927  17.275  15.371  0.0025 -0.1001 -0.0913
15566W        W35100  10.352  13.675   1.227 -0.1654  0.2626 -0.4060
15567W        W35101   2.318   2.932  13.944 -0.0907  0.3524 -0.3680
15568W        W35102   6.223  14.872  14.847  0.0987  0.1979 -0.3519
15569W        W35103  15.282  17.151  13.083  0.1376  0.3247  0.2256
15570W        W35104   9.946   5.238   3.109 -0.1662  0.4446 -0.1677
15571W        W35105   8.100   7.452  13.211 -0.0689  0.2425  0.0364
15572W        W35106  16.142  15.254  14.563 -0.0434 -0.1177 -0.2904
15573W        W35107   2.974  11.175  15.606 -0.1653 -0.2761  0.0266
15574W        W35108   1.438   7.891   1.058  0.1222 -0.1833 -0.1737
15575W        W35109   5.983   3.363   0.062 -0.2257  0.3099  0.0861
15576W        W35110  16.566  10.519   1.143 -0.2396  0.2322 -0.1473
15577W        W35111   4.774  15.423   3.161  0.0070 -0.2263  0.1772
15578W        W35112  10.203  14.084  14.071  0.1693 -0.0493  0.1426
15579W        W35113   2.016  11.006   2.878 -0.3056  0.1509 -0.2280
15580W        W35114   1.346   5.763   3.767  0.2282  0.0454 -0.0058
15581W        W35115  18.072   5.265  15.866  0.0541  0.0213 -0.1224
15582W        W35116   3.462  14.206  15.080 -0.4205  0.1613  0.1273
15583W        W35117   0.644  11.971   4.560 -0.1317 -0.0492 -0.0365
15584W        W35118   0.542   3.517   0.955 -0.0774  0.0318  0.1919
15585W        W35119  14.462   8.912  12.843 -0.1512 -0.2329  0.1511
15586W        W35120   9.350  12.451  12.540  0.2819 -0.1417 -0.0895
15587W        W35121   3.323  17.325   3.232 -0.0015 -0.1756  0.3067
15588W        W35122  13.481  13.238   2.650 -0.2006 -0.2418  0.2779
15589W        W35123   0.304   8.569  14.381  0.0131  0.0008  0.1876
15590W        W35124  11.695  14.908  14.460 -0.2890 -0.1276  0.2642
15591W        W35125  12.473  12.915   1.531 -0.2652 -0.0196  0.1000
15592W        W35126   3.495   1.483   3.188 -0.3697 -0.5117  0.2217
15593W        W35127   4.238  17.027  13.108 -0.2560 -0.1419 -0.0976
15594W        W35128   0.542   6.078  15.765  0.1853  0.0754 -0.0758
15595W        W35129   9.517   0.284   0.145 -0.2680 -0.0218 -0.0778
15596W        W35130   9.338  14.045   0.347  0.0422  0.0193 -0.0449
15597W        W35131   9.625  17.585  12.488  0.1855  0.1896 -0.0920
15598W        W35132  15.815   2.176  14.716 -0.2043 -0.1842 -0.2004
15599W        W35133   2.395  13.108  14.191 -0.1931  0.1407 -0.0571
15600W        W35134  11.648   3.663  15.038 -0.2366  0.1644 -0.0406
15601W        W35135   0.077   1.543  14.408 -0.2623  0.1745  0.1364
15602W        W35136   2.041   6.850  15.970  0.2985  0.2697  0.1832
15603W        W35137   9.503   8.061  15.877 -0.0583  0.1127  0.1570
15604W        W35138  10.018  16.790  15.412 -0.2024  0.0922  0.0577
15605W        W35139  16.914   3.904   3.830  0.2658 -0.4367  0.0618
15606W        W35140  14.008  17.543   0.821 -0.1352  0.1679 -0.0955
15607W        W35141  11.863   5.708  15.630  0.2785  0.0540  0.0867
15608W        W35142  12.693  15.186   4.350 -0.1343 -0.0775 -0.2795
15609W        W35143   8.112  11.062   4.347  0.3770 -0.3069  0.1812
15610W        W35144   1.735   7.967  11.512 -0.2947 -0.1315 -0.0148
15611W        W35145  14.850  16.414   0.918  0.2249  0.2122 -0.1811
15612W        W35146  10.398   0.293   1.277  0.0077  0.0195 -0.0830
15613W        W35147  13.102   1.708  12.897 -0.2098 -0.2173  0.1959
15614W        W35148   7.760   5.938   1.806 -0.2236 -0.0416  0.1299
15615W        W35149  15.564  10.298   4.940 -0.0959  0.1922 -0.1324
15616W        W35150   5.704  12.602   0.748  0.1038 -0.2612 -0.1784
15617W        W35151  11.402   1.755  12.067 -0.3607 -0.0965  0.2427
15618W        W35152   9.034   4.191   2.220  0.2545  0.1977 -0.1510
15619W        W35153   3.581  14.632   2.632  0.0964  0.1084  0.0539
15620W        W35154   5.461   4.354  14.709  0.1281  0.1240 -0.0901
15621W        W35155   7.023   1.735  14.897  0.0020 -0.1928  0.2948
15622W        W35156  14.481  16.000  15.349 -0.1609  0.0367 -0.1614
15623W        W35157   1.319   4.796   1.705  0.0168  0.2082  0.0378
15624W        W35158   2.217   1.078  12.278  0.2172 -0.0162  0.0202
15625W        W35159  16.475   8.677  14.638 -0.0086  0.3957  0.1253
15626W        W35160   1.314  12.187  16.038  0.3815  0.0089 -0.0787
15627W        W35161   1.946   9.833  12.129  0.1753  0.0101 -0.0843
15628W        W35162  13.075  11.725   1.283  0.1102 -0.2821 -0.1525
15629W        W35163   4.708  11.657  14.480  0.1634 -0.0927  0.2519
15630W        W35164   3.873   2.791  14.831 -0.0019 -0.1377 -0.0684
15631W        W35165  16.648   8.704  15.081 -0.2885 -0.2163 -0.0340
15632W        W35166   3.516  16.633   2.128  0.1455 -0.0516 -0.0818
15633W        W35167   3.850  11.704   3.220 -0.3564 -0.0418  0.1501
15634W        W35168  17.681   1.215   3.475 -0.0735 -0.2003 -0.0896
15635W        W35169   2.009  12.196  13.687  0.0882  0.3327 -0.1485
15636W        W35170  15.061   5.168   3.594 -0.2928  0.0868  0.0420
15637W        W35171   9.902   4.372  15.784 -0.1657  0.0710 -0.0198
15638W        W35172  17.406   1.054  14.265  0.0220  0.0600 -0.0120
15639W        W35173  17.124   5.036  15.126 -0.2329 -0.1850  0.1501
15640W        W35174   0.889   8.569   3.314  0.0440  0.0588  0.2388
15641W        W35175   9.402  16.137   1.775 -0.0116  0.2794  0.0168
15642W        W35176  15.013  16.730  13.014  0.1450  0.0663 -0.2351
15643W        W35177  11.628   2.552   0.860 -0.1604 -0.2863  0.3171
15644W        W35178   4.384   7.059  13.445  0.0249  0.0616 -0.0567
15645W        W35179   1.017   5.371  13.903  0.1580 -0.1256  0.0236
15646W        W35180   6.447   5.606  13.176 -0.1404 -0.1812 -0.2669
15647W        W35181   6.159  16.973  11.618  0.1100 -0.1187  0.0024
15648W        W35182   9.602  16.300  15.746  0.0886  0.0780  0.1764
15649W        W35183  14.341  15.934   1.846 -0.1204 -0.0907  0.0815
15650W        W35184   5.826  12.933  12.729  0.1087  0.2150 -0.1066
15651W        W35185   1.912  15.726  12.708 -0.0087 -0.1803  0.3930
15652W        W35186  12.045   0.834  15.175 -0.1441 -0.2046 -0.0840
15653W        W35187  15.041  12.713   3.806  0.0166 -0.0320  0.0168
15654W        W35188   0.436   0.742  11.274 -0.0004  0.1489 -0.0811
15655W        W35189   4.693  13.374   0.319  0.0718  0.2082  0.0956
15656W        W35190   8.212   5.567   3.769 -0.1565 -0.1011 -0.0275
15657W        W35191   4.654   1.578  12.560 -0.1410  0.0629  0.0191
15658W        W35192   0.792  14.678   3.977 -0.2332 -0.0394 -0.0278
15659W        W35193   1.478  18.064  13.558  0.0788 -0.0573  0.2936
15660W        W35194   5.215   2.023  14.838 -0.3169 -0.0162  0.3854
15661W        W35195   9.067  16.145  15.586  0.4930  0.0046 -0.0689
15662W        W35196   2.238  14.958  14.127  0.0622  0.0928  0.1133
15663W        W35197  11.278  15.117  12.450 -0.1234 -0.0735 -0.0206
15664W        W35198   2.707  10.686  13.797  0.0259  0.1110  0.1380
15665W        W35199   4.754  14.268   2.042  0.3312  0.2980 -0.0404
15666W        W35200   5.359   0.583   2.972 -0.1300  0.1982  0.0211
15667W        W35201   6.543  16.454   2.480  0.3963  0.1997 -0.1693
15668W        W35202   2.987   6.606   3.854 -0.1920 -0.0006 -0.0073
15669W        W35203   1.042   9.275   4.713  0.0267  0.2292  0.0033
15670W        W35204  12.443   6.472  15.919  0.0022 -0.1148 -0.0548
15671W        W35205  10.531  17.571   1.302 -0.1048 -0.0668 -0.0381
15672W        W35206   5.053  11.046   0.498 -0.0060  0.0595 -0.0515
15673W        W35207  13.879   7.428   2.392  0.0144 -0.0760  0.0747
15674W        W35208   2.147   9.251  11.685 -0.2978  0.3290  0.2899
15675W        W35209   0.585   3.371  15.121  0.1321  0.0502  0.0084
15676W        W35210   8.764  16.141   1.175 -0.0741  0.0545  0.1400
15677W        W35211   9.051   6.482   2.719  0.0405 -0.0945  0.1926
15678W        W35212   1.602  15.718   1.180  0.1030  0.0473  0.1323
15679W        W35213  15.129  12.900  15.695  0.2715 -0.0322  0.1766
15680W        W35214   2.859  10.870   4.087  0.1850  0.0366  0.0086
15681W        W35215  10.668   5.690  11.575  0.0401  0.0356 -0.2832
15682W        W35216   8.761   3.629  15.794 -0.0884 -0.0502 -0.0903
15683W        W35217  12.140   1.268  14.110  0.0614 -0.2356 -0.1286
15684W        W35218   8.228  17.745   3.212 -0.1529  0.1004 -0.0032
15685W        W35219  12.700  17.374   0.029  0.3518 -0.0252  0.1871
15686W        W35220   8.436  17.346   1.927 -0.3160 -0.0333  0.0277
15687W        W35221  16.785   9.419  11.790  0.1155 -0.1326 -0.2179
15688W        W35222   1.353   3.809  12.579 -0.0283  0.1175  0.1759
15689W        W35223   9.654  15.405   0.019  0.1214  0.2073 -0.1774
15690W        W35224   9.449   3.336  13.006  0.2303  0.1454  0.2505
15691W        W35225   9.613   6.493  12.034 -0.0766  0.2736  0.0290
15692W        W35226   9.574   9.319   1.645  0.0011  0.0363  0.0596
15693W        W35227   5.660   3.586  14.670  0.0010  0.0625  0.0836
15694W        W35228  13.435  14.427   0.161  0.2053  0.0330  0.1224
15695W        W35229   7.326   5.504   3.371 -0.0691 -0.4059  0.0195
15696W        W35230   8.352  14.689  13.663  0.0495  0.0944  0.0605
15697W        W35231   5.113   0.268  13.328 -0.2811 -0.3949  0.2040
15698W        W35232   8.093   1.737  12.975  0.0409  0.2311 -0.1002
15699W        W35233  15.103   0.432   4.664  0.2038  0.1615 -0.2214
15700W        W35234   8.289   7.833  16.013 -0.1702 -0.3147 -0.2614
15701W        W35235  15.064  11.949  15.547 -0.0220 -0.1143  0.1783
15702W        W35236  17.715   7.756  13.478  0.2104 -0.0213  0.1447
15703W        W35237   6.395  12.345  13.081 -0.1287  0.0768  0.2052
15704W        W35238   6.244   4.148  13.602  0.0014 -0.5445  0.2946
15705W        W35239  10.320   1.282   1.067 -0.1206 -0.0836  0.1941
15706W        W35240   2.944   6.357   2.979  0.2630  0.0561 -0.4129
15707W        W35241  17.324  15.502   1.199 -0.1674  0.1624  0.4442
15708W        W35242  12.538  16.004   5.022  0.0300 -0.1007 -0.0202
15709W        W35243   2.609  16.483  12.814  0.0666  0.1307 -0.1825
15710W        W35244  10.136   6.675   0.659  0.0830  0.0921  0.2157
15711W        W35245   8.920   5.598  15.941 -0.0318 -0.1258 -0.1143
15712W        W35246  10.407   0.151   3.107 -0.4120  0.0236 -0.0395
15713W        W35247   2.691  10.339   1.179 -0.1015  0.1692 -0.5130
15714W        W35248   5.189  13.216   0.988 -0.1150 -0.1946 -0.1450
15715W        W35249  17.265  10.276   3.154  0.0600  0.2938  0.1167
15716W        W35250  11.132   9.182  16.051 -0.0274  0.1344 -0.2543
15717W        W35251   9.600  12.750   2.553  0.0547 -0.2267  0.0063
15718W        W35252   3.602   8.875  11.927 -0.2489 -0.1570  0.1734
15719W        W35253   7.958   0.078  11.450 -0.2284 -0.0744  0.2641
15720W        W35254   9.450  16.938   1.505 -0.1211  0.0946  0.0264
15721W        W35255   2.507   7.109  14.548  0.1455 -0.0351  0.0860
15722W        W35256   8.134   7.997  11.368 -0.2208 -0.0015  0.1641
15723W        W35257   0.482  13.419   2.849 -0.2225  0.1031  0.4222
15724W        W35258  14.475   2.158  13.793  0.0087 -0.0243 -0.0263
15725W        W35259   5.287   0.579   3.668 -0.1003  0.0395 -0.0006
15726W        W35260   2.884   8.398   4.001  0.1364 -0.0898  0.0486
15727W        W35261   0.675   9.956  15.908  0.3668  0.1520 -0.0056
15728W        W35262   1.624   3.825  12.159  0.0929 -0.1972 -0.3809
15729W        W35263   5.201  14.386   3.880 -0.1980  0.2994  0.0060
15730W        W35264   4.857  10.360   1.276 -0.2531  0.0589  0.3622
15731W        W35265  15.885  13.647   1.703 -0.0410 -0.1939  0.0634
15732W        W35266   9.808   0.478  13.197 -0.1500  0.0450 -0.1220
15733W        W35267  11.944   8.896  13.251 -0.0629 -0.1606 -0.2930
15734W        W35268  12.561  13.262   2.058 -0.4089 -0.2075 -0.0604
15735W        W35269   4.032  16.102  15.680  0.1627 -0.1023 -0.0635
15736W        W35270   8.710  15.833  12.804  0.1376  0.0581 -0.0867
15737W        W35271   0.347   1.942  13.032  0.2656 -0.0275 -0.1354
15738W        W35272  17.363  13.741  11.672 -0.2631 -0.0339  0.0428
15739W        W35273  15.684  12.330  13.152  0.1501 -0.1738 -0.0078
15740W        W35274   0.232   9.166  15.473  0.3348  0.0227  0.0327
15741W        W35275   4.303  17.045  14.378 -0.1041  0.0318 -0.2516
15742W        W35276   9.292   9.377   0.674  0.2868 -0.0595  0.0810
15743W        W35277  16.630   6.364   3.279  0.1510  0.1073  0.0509
15744W        W35278   0.396  18.060  14.413 -0.0852  0.0259 -0.2113
15745W        W35279   5.715   9.433   1.677  0.1131 -0.0587  0.2850
15746W        W35280   1.730   6.948   0.929 -0.1891  0.0614 -0.2530
15747W        W35281  18.119  15.631   1.412 -0.0413  0.3381  0.1430
15748W        W35282   5.831   7.580   5.646  0.2992  0.1270  0.1504
15749W        W35283   2.113  13.140   3.544  0.1616 -0.1351 -0.0593
15750W        W35284  15.387   2.795   5.792 -0.1716  0.0999  0.0778
15751W        W35285  17.090   3.903   2.740 -0.1363 -0.2211 -0.0386
15752W        W35286  16.838  18.000   3.237  0.1424  0.1450 -0.0375
15753W        W35287   3.103   3.331  13.778  0.3481 -0.1848 -0.0962
15754W        W35288   6.156  14.985  12.730 -0.2198  0.0750  0.1759
15755W        W35289  15.397   4.399  11.009 -0.1362  0.2339 -0.0111
15756W        W35290  15.325  14.083   0.839  0.0540  0.2130 -0.1130
15757W        W35291   4.391   2.469   1.892  0.0565 -0.0665  0.1752
15758W        W35292  15.943   5.133  15.797  0.0789  0.2346  0.0348
15759W        W35293  17.522  11.141  12.350 -0.3175 -0.1036 -0.3117
15760W        W35294  12.903  15.830  12.070 -0.1095  0.1559  0.1023
15761W        W35295  14.168   3.832   1.081  0.2279 -0.0780 -0.0181
15762W        W35296   9.399  10.146   5.675 -0.1937 -0.1479  0.0742
15763W        W35297  10.965  17.458   2.690  0.0918  0.0876  0.2535
15764W        W35298   8.551  17.793  14.205  0.2961  0.1982  0.1817
15765W        W35299   0.387   4.150  14.489 -0.0921  0.2123 -0.0969
15766W        W35300  15.815   2.654  14.512  0.2777 -0.1718  0.2214
15767W        W35301   2.318  15.260   0.853  0.0281  0.2336 -0.1942
15768W        W35302  14.537   4.701  11.569 -0.0613 -0.0164  0.1272
15769W        W35303  12.764   1.107   1.585  0.2505 -0.1831 -0.1069
15770W        W35304   7.221   4.129   2.414  0.0255  0.1999 -0.1557
15771W        W35305   6.428   6.207   2.659  0.3157  0.1575  0.3251
15772W        W35306   9.301   7.668  13.718  0.1580  0.4131 -0.2373
15773W        W35307  16.730   4.642  12.128 -0.2422 -0.1198  0.0479
15774W        W35308  12.133   7.239   0.393 -0.2626 -0.0772  0.0774
15775W        W35309  15.507   6.493   1.364 -0.1875  0.0229 -0.1789
15776W        W35310  15.942  14.229   6.219 -0.1831 -0.1220  0.4487
15777W        W35311   7.330   4.734  14.975  0.0796 -0.1553  0.1338
15778W        W35312  15.723  17.809   1.407  0.1167 -0.0698 -0.0451
15779W        W35313  16.955  14.740  13.874  0.2241 -0.1732 -0.0718
15780W        W35314   7.814  14.356  12.987  0.0422  0.1418 -0.1273
15781W        W35315   1.253  14.888   1.595 -0.0566  0.1809 -0.0960
15782W        W35316  15.524  15.164  12.000  0.0460  0.0751  0.1927
15783W        W35317   3.046   4.370   1.849 -0.0132  0.1444 -0.1480
15784W        W35318  18.000   5.434   0.291 -0.1871  0.1797  0.2107
15785W        W35319   0.482   1.350  14.126  0.2009  0.0724 -0.1989
15786W        W35320  16.466   1.912   0.081  0.0016 -0.2555 -0.2281
15787W        W35321  12.992   0.876   3.681 -0.3074 -0.2349 -0.0719
15788W        W35322  15.713  14.316   0.471  0.1387 -0.0172 -0.0862
15789W        W35323   5.873  10.312   1.210 -0.0447  0.1960  0.2417
15790W        W35324   7.247  13.035  14.859 -0.2926  0.0005 -0.2977
15791W        W35325   9.026  16.879   3.740  0.2310 -0.0007 -0.0490
15792W        W35326   0.970   0.777  11.309 -0.0449  0.0495  0.1815
15793W        W35327   8.646   1.172  15.630 -0.1766  0.1397  0.1481
15794W        W35328   8.120   0.375   4.209  0.1790 -0.2599  0.2279
15795W        W35329   3.012  16.337  11.775 -0.1566  0.1178  0.0450
15796W        W35330  12.883  13.424  15.150 -0.0346 -0.0108  0.1307
15797W        W35331   8.908  16.089   1.642 -0.1019  0.0616  0.0275
15798W        W35332  16.449   2.265   3.482 -0.1696  0.1440  0.1696
15799W        W35333  17.723  14.210   6.017 -0.3438 -0.1580 -0.0572
15800W        W35334   6.035   6.428   3.628  0.1152  0.1838  0.0357
15801W        W35335  16.128  11.074  14.294 -0.1590 -0.1636  0.0334
15802W        W35336  11.211  15.118  15.920 -0.0016  0.2186  0.1848
15803W        W35337   8.971   7.807   4.189  0.0600 -0.0334  0.2611
15804W        W35338  12.151  16.422  14.406  0.1324  0.2082  0.1382
15805W        W35339   0.949  11.669  12.878 -0.1970 -0.3916  0.2144
15806W        W35340  16.543  14.941   0.883  0.1224 -0.1713  0.1122
15807W        W35341  15.927   8.381  15.515  0.3537  0.2272 -0.0411
15808W        W35342   9.071  11.876   1.375 -0.0490 -0.1508 -0.1068
15809W        W35343   6.797   6.881  12.353  0.1210 -0.1317  0.1348
15810W        W35344  11.341  11.202   4.114 -0.3771  0.1178  0.1235
15811W        W35345  11.643  16.542  13.529  0.2230 -0.1109 -0.1847
15812W        W35346  12.074  12.039   3.589 -0.0215  0.2344  0.1114
15813W        W35347  14.906   2.692   0.010  0.2110 -0.0429  0.0295
15814W        W35348   2.683  12.157  12.642 -0.1311  0.2178 -0.0616
15815W        W35349   2.684  11.932  14.955 -0.0173 -0.2698 -0.2654
15816W        W35350  13.707   8.558  13.437 -0.0831  0.0644  0.1090
15817W        W35351   8.446  16.045   0.080  0.1711  0.0331 -0.0214
15818W        W35352   1.185   8.477  14.814 -0.0902  0.1600 -0.2372
15819W        W35353   4.533   9.246  15.204  0.0918 -0.0645  0.0503
15820W        W35354   1.659   2.489  11.118 -0.1633 -0.4195  0.0248
15821W        W35355   7.257  15.214  15.785  0.3988  0.0674 -0.0262
15822W        W35356  11.403  17.993  14.936  0.1072 -0.0730  0.1953
15823W        W35357   1.440   8.036  15.055  0.0795 -0.1119  0.2176
15824W        W35358  12.611  10.283  12.774 -0.0363 -0.2772  0.0712
15825W        W35359  11.267  13.164   0.130  0.1579 -0.1046  0.0194
15826W        W35360  13.904  18.129   4.104 -0.3362 -0.1557 -0.2554
15827W        W35361   9.091  11.009   1.373  0.2276 -0.0370  0.1844
15828W        W35362   1.021   2.495  13.691  0.0827 -0.0123  0.1206
15829W        W35363  10.185  13.925  15.971  0.1249  0.0272 -0.2558
15830W        W35364   8.295   7.103  11.348  0.2351  0.0582  0.0379
15831W        W35365  16.732  10.952  15.823  0.2740  0.1285 -0.2214
15832W        W35366   7.031  13.743  14.299 -0.1212 -0.2247  0.1497
15833W        W35367  12.027  10.104   1.702  0.1063 -0.3150 -0.0043
15834W        W35368   4.052   0.803  12.153  0.1668  0.3768  0.1869
15835W        W35369  10.196   3.994   1.933 -0.1171  0.1310  0.1189
15836W        W35370   9.114  11.615   4.264 -0.1155 -0.0568  0.3585
15837W        W35371  17.256   7.908  13.434 -0.1657  0.0590 -0.3791
15838W        W35372   2.405  11.029   0.450  0.0803  0.1905 -0.1915
15839W        W35373  14.875   0.632  14.737 -0.3460 -0.1431  0.1273
15840W        W35374  10.950  12.610  15.009  0.0617 -0.2955  0.0681
15841W        W35375   2.180  16.274   4.243 -0.0685  0.3365 -0.2072
15842W        W35376   0.074   1.469   2.557 -0.0224  0.1803 -0.0909
15843W        W35377   8.654  15.362  13.320  0.3201  0.0391 -0.1742
15844W        W35378   3.336  14.006  12.505  0.3175 -0.1086  0.0228
15845W        W35379  17.447   2.296   0.199  0.0912 -0.1799 -0.0457
15846W        W35380   7.061   9.824   1.753  0.1552  0.1927 -0.0646
15847W        W35381  15.466  11.071   2.508 -0.1656  0.0723 -0.1455
15848W        W35382  15.075   5.252   0.289  0.0920 -0.2111 -0.6452
15849W        W35383  17.992   4.167  11.968 -0.2304  0.0417 -0.0166
15850W        W35384  16.560   6.238  14.042 -0.0226  0.0010 -0.1764
15851W        W35385  10.701   0.065   3.620  0.1461  0.4297 -0.4021
15852W        W35386  16.238   1.064  13.522  0.0611  0.1048 -0.1764
15853W        W35387   4.346   3.658  12.518 -0.0324  0.0807  0.0033
15854W        W35388   5.259   5.758  14.404 -0.3074 -0.3135  0.1546
15855W        W35389  16.090  15.054   3.680 -0.0006 -0.1804  0.0383
15856W        W35390   8.944   4.746   2.825 -0.0689 -0.1728  0.4828
15857W        W35391   0.963   6.953   4.776  0.2537  0.1679 -0.0379
15858W        W35392   9.170  17.499  12.610  0.1004 -0.0459  0.1015
15859W        W35393  14.171  15.431  14.185 -0.0014  0.0886  0.0464
15860W        W35394  15.737  11.566  15.415 -0.0986  0.0406  0.0014
15861W        W35395   7.911   3.415   1.447  0.1019 -0.1307  0.0308
15862W        W35396   8.696  10.153  14.660 -0.2270  0.2769  0.3842
15863W        W35397  11.294   9.984  12.166  0.0790  0.0786 -0.3622
15864W        W35398   4.926   6.392  13.746  0.5675  0.1838 -0.0633
15865W        W35399   0.962  16.815   0.481 -0.2989  0.0274  0.2258
15866W        W35400   0.692   7.610  13.974 -0.2685  0.1700  0.0668
15867W        W35401   6.635   8.921   4.803  0.0060 -0.2658 -0.2439
15868W        W35402  16.580   6.865  12.827 -0.1787 -0.0850  0.1782
15869W        W35403   3.771  13.567   3.597 -0.1446 -0.0382  0.1062
15870W        W35404   9.788  13.041   1.761  0.0292 -0.0002  0.2148
15871W        W35405  12.974  14.051  13.410 -0.0573 -0.0272  0.1453
15872W        W35406   7.884   8.841   4.574 -0.1071  0.0398 -0.0365
15873W        W35407   2.347   3.877  11.726 -0.0096 -0.2614 -0.1131
15874W        W35408   4.660   9.527  11.386 -0.2255 -0.0043  0.0717
15875W        W35409  16.699  13.608  14.060  0.0355  0.2032 -0.0153
15876W        W35410  10.799  10.362   0.557  0.0138 -0.0204  0.0566
15877W        W35411  17.313   7.983   2.840 -0.1474 -0.2892  0.0481
15878W        W35412  15.757   9.360   1.373  0.0298  0.2044 -0.4129
15879W        W35413   6.083  11.231   2.705  0.0691  0.0139 -0.0481
15880W        W35414  11.989  14.354  14.799  0.1816  0.1571 -0.0786
15881W        W35415   2.094  11.636   3.406  0.1210 -0.0061 -0.0858
15882W        W35416  12.122   2.501  12.686  0.0932 -0.1734 -0.0950
15883W        W35417  17.142  17.459  12.437 -0.1674 -0.2004  0.0293
15884W        W35418   1.261  10.495   1.870  0.1260 -0.0997 -0.0061
15885W        W35419   6.989  13.450  14.714  0.1321 -0.1233 -0.0516
15886W        W35420   4.220  10.255  15.885 -0.0769 -0.3420 -0.2060
15887W        W35421  11.442   6.902   1.895 -0.0399  0.1474 -0.1785
15888W        W35422   1.093  10.010   1.616  0.0247 -0.3223  0.1206
15889W        W35423   3.232  13.008  13.047  0.1650 -0.1300  0.1338
15890W        W35424   1.579   8.528  15.162  0.1584 -0.1199  0.1962
15891W        W35425  12.742  10.677   0.404 -0.3664 -0.1084 -0.0715
15892W        W35426   5.625  16.823  15.707  0.0323  0.0102 -0.3141
15893W        W35427   8.238  17.817  11.446 -0.2464  0.2378  0.0336
15894W        W35428   0.861  14.151  15.584 -0.1002 -0.2157  0.1487
15895W        W35429   0.694   3.688   0.489  0.1068 -0.1146  0.0101
15896W        W35430  10.758   3.343  15.110 -0.3766  0.0986 -0.0493
15897W        W35431   5.250  15.598  12.133 -0.0395  0.1733 -0.1392
15898W        W35432  16.627   7.429  14.876  0.1598  0.0429 -0.1149
15899W        W35433   9.610  16.843   3.825  0.0490  0.1863  0.1037
15900W        W35434  17.068  17.171  15.221 -0.0085  0.0943  0.1733
15901W        W35435  12.257  17.586  15.399  0.1332 -0.0310 -0.3226
15902W        W35436  15.235   9.175  11.696 -0.1015 -0.1150  0.3078
15903W        W35437  15.040  10.711   2.520  0.0325 -0.0815  0.1513
15904W        W35438   6.092   3.041  15.654  0.0718 -0.0062  0.1789
15905W        W35439  13.535   3.499  10.944 -0.4139  0.0483 -0.0581
15906W        W35440   5.662  17.142  11.743 -0.0896 -0.0278  0.0356
15907W        W35441   7.841  10.016  11.808  0.0106  0.1722 -0.5521
15908W        W35442   1.657   8.829   1.634 -0.1521  0.1131  0.1058
15909W        W35443   5.410  12.695   1.951 -0.0161  0.2229  0.0399
15910W        W35444  16.284  14.096  13.962 -0.0863 -0.1236 -0.1008
15911W        W35445   9.472   0.289  12.721  0.1032  0.2014  0.1223
15912W        W35446  15.442   9.754   1.638  0.1075 -0.1184 -0.2726
15913W        W35447   1.869   4.982   4.385  0.0903 -0.1233 -0.4165
15914W        W35448  12.966   7.907  11.300  0.1330  0.1640  0.2085
15915W        W35449  12.385   5.644  11.334 -0.0355 -0.2743  0.0215
15916W        W35450  11.010   4.967  12.603  0.0437  0.1664  0.1159
15917W        W35451  17.744   1.441  10.321 -0.0826  0.1520 -0.3261
15918W        W35452   0.035   2.545   3.853  0.3162 -0.1985 -0.0310
15919W        W35453   7.054  11.676   1.425  0.0734  0.1047 -0.0597
15920W        W35454   4.344   3.415   1.412  0.2356  0.1095  0.0354
15921W        W35455  12.065   8.545  12.333  0.3974  0.0924  0.2107
15922W        W35456  17.327   4.928   5.441 -0.2118 -0.0582 -0.0494
15923W        W35457   7.523   3.089   3.558 -0.0837 -0.1919  0.0813
15924W        W35458  17.703   9.371   4.916  0.1516 -0.1860  0.0083
15925W        W35459   5.253   1.097  11.073 -0.0314  0.1407  0.2162
15926W        W35460  17.459  14.979   0.874 -0.1056 -0.0998 -0.1454
15927W        W35461   8.372   1.901  13.888  0.2342 -0.0217 -0.1271
15928W        W35462  11.380   2.883   4.290 -0.0195 -0.0078  0.1104
15929W        W35463   9.292  12.895   4.613  0.2789 -0.3497 -0.0189
15930W        W35464  10.006  11.230  13.577  0.0083 -0.3644  0.2360
15931W        W35465  14.974  16.771  15.030  0.0581  0.1253  0.0124
15932W        W35466  17.947   6.289  14.018  0.3176  0.4621  0.0514
15933W        W35467   1.649   4.626  13.595  0.1302 -0.3041 -0.1495
15934W        W35468   2.105  16.298   3.630  0.1316 -0.1517  0.1178
15935W        W35469  14.578   8.588   4.373 -0.0601 -0.1799 -0.2058
15936W        W35470   4.553   1.649   0.440 -0.1056  0.1109 -0.0781
15937W        W35471  17.509   9.697  12.479  0.0736  0.0707 -0.0944
15938W        W35472   7.532   5.797   3.076  0.3596  0.1166 -0.0508
15939W        W35473  14.247  17.127  14.261 -0.0028  0.1755  0.1239
15940W        W35474  16.194  13.578  13.959  0.1668 -0.0260  0.0141
15941W        W35475  14.398   0.989   0.768  0.0990  0.1102 -0.0709
15942W        W35476   5.700  10.171   0.639 -0.2556  0.4140  0.0399
15943W        W35477   8.823   2.108   3.886  0.1047  0.1837 -0.1287
15944W        W35478   1.445  14.848   0.150 -0.3607  0.1170 -0.1171
15945W        W35479  16.228   2.599  15.849 -0.1287  0.1117  0.1599
15946W        W35480   2.639  15.897  12.620  0.0357  0.1217 -0.2275
15947W        W35481   8.745   5.490  12.084  0.0066  0.1743 -0.0466
15948W        W35482  17.936  16.480   5.512  0.1093  0.0388 -0.1463
15949W        W35483   6.601  11.095   0.191 -0.1782  0.2885 -0.2722
15950W        W35484   3.599  14.899   0.007 -0.0166 -0.0551  0.1060
15951W        W35485  17.725  10.942   2.120 -0.2537 -0.0940  0.0856
15952W        W35486  16.203   4.776  11.461 -0.0565  0.2337 -0.1805
15953W        W35487   1.690   2.949  15.869 -0.0437  0.1021  0.2318
15954W        W35488  14.015   9.167  15.188 -0.1126  0.2764  0.4633
15955W        W35489   0.295  12.949  12.645  0.3069  0.1253  0.0313
15956W        W35490   0.598   2.004   3.709  0.0224  0.0789  0.2396
15957W        W35491  10.999   1.576   1.564 -0.0942 -0.0603 -0.2287
15958W        W35492  12.844   5.116   0.459 -0.0368  0.2489 -0.0740
15959W        W35493   0.492   7.404  12.859 -0.2521  0.1617  0.1051
15960W        W35494  10.392  15.641  14.033 -0.2812 -0.2218  0.0100
15961W        W35495   2.457  15.540   0.328 -0.0943 -0.0703 -0.0774
15962W        W35496  10.893  11.497  12.072  0.3029 -0.0279  0.3037
15963W        W35497   9.435  13.535   2.837 -0.0088  0.0937  0.0985
15964W        W35498  12.597   5.862   4.679 -0.1740 -0.1745 -0.1787
15965W        W35499   0.215  12.846   4.417  0.2289 -0.0721 -0.2643
15966W        W35500   4.564  13.416   2.849 -0.2255  0.0040  0.3833
15967W        W35501   9.746   5.757   2.922  0.0679 -0.0121 -0.2224
15968W        W35502  15.912   5.467   0.515 -0.0725  0.0571 -0.0934
15969W        W35503   0.867   5.476   2.703 -0.1314  0.0015 -0.1051
15970W        W35504   7.037  11.348  14.323  0.1449  0.4027 -0.1658
15971W        W35505   0.224  13.562  11.336 -0.0941  0.0032  0.1156
15972W        W35506  15.046   3.088  15.096 -0.0366  0.0296  0.0789
15973W        W35507   6.600  16.043  14.867  0.0520  0.2310 -0.0143
15974W        W35508  10.632  16.576  11.482  0.2463 -0.3117  0.2102
15975W        W35509   1.455  16.997  15.821  0.1998  0.0116 -0.0019
15976W        W35510   2.321   0.295   3.861 -0.1572 -0.1778 -0.0816
15977W        W35511   7.306  13.725  13.847  0.0176  0.2075 -0.0243
15978W        W35512   6.127  13.604  14.488 -0.0658  0.0837  0.2964
15979W        W35513   8.987   3.453  12.831  0.2436  0.0263  0.1075
15980W        W35514  13.342  14.010   1.368 -0.3500 -0.1696 -0.0883
15981W        W35515   0.126   4.518  11.593  0.0088  0.0718  0.2675
15982W        W35516  17.882   7.601  14.721  0.0516 -0.1562  0.0498
15983W        W35517  13.478  11.330  15.067  0.1486 -0.1950  0.2779
15984W        W35518   5.073  12.079  15.245  0.1492 -0.2337 -0.2868
15985W        W35519   4.777   5.284   2.840 -0.0504 -0.1985 -0.1140
15986W        W35520   9.146   5.866  11.374 -0.0214  0.0227  0.0713
15987W        W35521   9.841   4.600   0.244 -0.1244 -0.3503  0.1097
15988W        W35522   0.703   2.295   9.795  0.1192 -0.2475  0.1305
15989W        W35523  18.035   9.945  12.755  0.0047 -0.0070  0.0619
15990W        W35524  10.214  10.690  14.254 -0.1062  0.0246  0.0612
15991W        W35525  14.374  13.154  11.931  0.2128 -0.1803  0.2075
15992W        W35526  16.889  14.242   3.222  0.0581 -0.2075  0.1719
15993W        W35527   6.958  18.151   4.031  0.2203 -0.0447 -0.2183
15994W        W35528   0.943  18.113  13.745  0.2883 -0.1273 -0.1191
15995W        W35529   0.464   9.909   1.252  0.0251 -0.0870  0.1160
15996W        W35530  10.780  14.061  15.001 -0.0231  0.0104  0.1302
15997W        W35531  16.854   6.374  14.765 -0.0187  0.0456  0.0540
15998W        W35532   7.875   3.442  14.099  0.3208 -0.0606  0.3420
15999W        W35533   9.228   9.142   4.765 -0.2683  0.1732 -0.0608
16000W        W35534  16.519   2.766   5.878  0.3291  0.1148  0.3444
16001W        W35535   3.028   9.945   2.656 -0.0949  0.2253  0.2512
16002W        W35536  15.990  12.006  13.347  0.1846 -0.1279  0.0693
16003W        W35537   3.592  15.164   1.682  0.3209  0.1036  0.0267
16004W        W35538   5.566  15.888   3.684 -0.0628 -0.1565  0.1912
16005W        W35539   8.853  10.969   0.001  0.3531 -0.1797 -0.1180
16006W        W35540   7.125   1.159  12.504  0.1003  0.1842  0.1384
16007W        W35541   4.337   6.498  14.684  0.2067 -0.1422 -0.3703
16008W        W35542  17.383  10.893   0.465  0.1913  0.1283 -0.2237
16009W        W35543  12.315   5.656  13.002  0.1659 -0.1033  0.2336
16010W        W35544  16.183   2.056  13.327 -0.2623  0.0195  0.1021
16011W        W35545   8.843  13.570  12.706 -0.3661 -0.0387 -0.3789
16012W        W35546   6.141   0.393  15.300  0.0722 -0.2490 -0.2319
16013W        W35547   7.550  14.078   3.059  0.0901 -0.1282  0.1651
16014W        W35548  12.951   6.782   1.510  0.0961 -0.0067 -0.1742
16015W        W35549  11.537  11.622   1.858 -0.0760 -0.1645 -0.1442
16016W        W35550  13.777   0.633  11.695  0.1602  0.0323  0.2653
16017W        W35551   2.020  11.344   0.595 -0.1182  0.3479 -0.3244
16018W        W35552  15.580  10.736   0.215 -0.1460  0.0292  0.0312
16019W        W35553  17.687   7.457   2.036 -0.0730 -0.2487 -0.2236
16020W        W35554   1.466  12.740   3.656 -0.0404 -0.2542 -0.1561
16021W        W35555  16.747   9.823  15.990  0.3507 -0.0887  0.1788
16022W        W35556   1.713   6.516   0.568  0.4826  0.0556  0.1516
16023W        W35557   1.715   8.599   3.940 -0.1284  0.0352 -0.2085
16024W        W35558  12.146   3.942  14.237 -0.4539  0.1472 -0.0849
16025W        W35559   0.983  13.884  14.401  0.0673  0.0434  0.1125
16026W        W35560  11.463   9.318   1.696  0.0085 -0.2089 -0.1546
16027W        W35561   1.054  10.071   2.746  0.0443  0.2870  0.1434
16028W        W35562   7.664   4.819  13.164 -0.0075  0.2040  0.1412
16029W        W35563  14.522  12.768  15.714  0.1545 -0.0830  0.1310
16030W        W35564   0.646  13.647  14.028 -0.3210 -0.1842 -0.1122
16031W        W35565  11.871   8.140  13.974  0.0304  0.0293 -0.0587
16032W        W35566   4.719   9.802  10.223 -0.1532  0.1915 -0.1997
16033W        W35567   0.714   6.106  13.629 -0.3049  0.3346  0.0289
16034W        W35568  13.288   6.475  15.887 -0.1818 -0.0212 -0.1268
16035W        W35569  12.810  15.390   2.849 -0.1219 -0.0335  0.1074
16036W        W35570   0.930   4.250  12.118 -0.0279  0.0376 -0.1732
16037W        W35571  12.734   7.092  12.524 -0.0055  0.3563 -0.0566
16038W        W35572   0.625  10.661  11.537  0.1315 -0.0881 -0.1454
16039W        W35573  15.528  10.344  13.830 -0.0512  0.1585 -0.1066
16040W        W35574   0.926   8.860  16.050 -0.2782  0.2485 -0.0996
16041W        W35575   8.672   4.612  15.587  0.2596  0.1413 -0.1995
16042W        W35576   4.870  10.352   3.598 -0.3289 -0.2478 -0.1565
16043W        W35577   7.712  16.912   2.123 -0.0764  0.0711  0.0961
16044W        W35578  14.277   2.744   0.252 -0.0230 -0.1160 -0.0528
16045W        W35579  15.654  10.944  14.610 -0.5066 -0.2136  0.0839
16046W        W35580   7.291   1.754  15.349 -0.3127 -0.0939 -0.1340
16047W        W35581   3.412  14.756  11.113 -0.1933 -0.1974 -0.1493
16048W        W35582  12.258  12.538   4.958 -0.0753 -0.1588  0.1973
16049W        W35583  11.636  14.458   3.546  0.0180 -0.4990  0.0224
16050W        W35584  12.812  12.522  12.488 -0.0005 -0.0360  0.0679
16051W        W35585  15.543   4.825   5.198 -0.0627 -0.0535  0.2000
16052W        W35586   1.569   6.332   2.121 -0.0321 -0.1468  0.1187
16053W        W35587   5.500   7.293  15.057 -0.2871  0.2162  0.1448
16054W        W35588   8.431   7.983   1.369 -0.3379  0.3371 -0.1601
16055W        W35589   9.013  16.644  13.971 -0.0367 -0.1189  0.1827
16056W        W35590   4.831   8.396   2.601  0.2238 -0.0273 -0.1653
16057W        W35591   2.543  17.776   1.747 -0.1136  0.0304  0.1590
16058W        W35592  14.561   2.938   0.871 -0.2015 -0.1808  0.1286
16059W        W35593  15.846  11.992  12.461  0.0950  0.0864  0.1597
16060W        W35594   6.574   7.907  13.269  0.1043  0.1020 -0.0715
16061W        W35595  13.132   8.420   0.356 -0.3134  0.2532 -0.1194
16062W        W35596  11.031   8.920  11.381 -0.2964  0.0530 -0.1112
16063W        W35597  14.550  13.508   3.348 -0.1500  0.2111  0.0477
16064W        W35598   4.620   8.072  12.680  0.1461 -0.0843 -0.4134
16065W        W35599  13.138   1.854  11.974  0.1469 -0.0061  0.2505
16066W        W35600  12.863   3.065  12.661 -0.1334  0.1876  0.0162
16067W        W35601  16.204   1.735  11.594  0.0931 -0.2084  0.1031
16068W        W35602   4.705   7.227  13.027 -0.0140  0.2942 -0.0563
16069W        W35603  17.929  14.799  14.684 -0.0804  0.0128 -0.0670
16070W        W35604   6.834   0.560  13.843  0.1377  0.1157  0.2701
16071W        W35605  18.123   2.950  14.403 -0.2472  0.1057 -0.1126
16072W        W35606  18.110  17.218   0.453 -0.1119  0.0804 -0.0189
16073W        W35607   0.793  11.035  14.031  0.0443  0.0479 -0.3445
16074W        W35608   1.044   0.555   4.615  0.2580 -0.0464 -0.1214
16075W        W35609   6.022  14.266   4.304  0.1767 -0.5381 -0.2407
16076W        W35610  11.530  11.147   2.670  0.1357 -0.2280  0.2016
16077W        W35611   8.507  16.591  14.917  0.0506 -0.3448  0.1716
16078W        W35612   8.050  11.669  13.069  0.1203  0.1132 -0.0679
16079W        W35613   7.532   8.428   4.047  0.1244 -0.2515  0.1111
16080W        W35614  17.074   3.851  14.488 -0.2846  0.0733 -0.1645
16081W        W35615   7.307  14.236  14.192 -0.1131  0.2304  0.0402
16082W        W35616   6.026  10.949   3.957 -0.2933 -0.0838 -0.1153
16083W        W35617   2.995   8.829  12.679  0.0285  0.1847 -0.1373
16084W        W35618   0.714  11.162   4.313  0.2176 -0.0538  0.2478
16085W        W35619  17.547  11.200   3.202 -0.0169  0.3579  0.2081
16086W        W35620   4.892  17.303  12.498  0.1142  0.2501  0.1066
16087W        W35621   8.592  12.979  12.111 -0.2385  0.0526  0.0459
16088W        W35622   9.272  11.040   0.857 -0.1917 -0.2498 -0.1705
16089W        W35623   1.372   1.584   3.087  0.3910  0.0367 -0.0174
16090W        W35624   3.119   6.948  13.060 -0.0457 -0.2097 -0.2231
16091W        W35625   0.364   3.325  11.869 -0.0410  0.1624 -0.4315
16092W        W35626  16.616  13.985   4.121 -0.0345 -0.0985  0.0510
16093W        W35627   1.570   2.127   5.391 -0.2757  0.0139  0.1190
16094W        W35628   4.741   6.774  13.285  0.0711 -0.2407  0.0389
16095W        W35629   8.123   2.429   0.709  0.2940  0.0631  0.0907
16096W        W35630   2.160  10.617   3.197 -0.1240  0.0324  0.2490
16097W        W35631   6.895  12.443  12.107 -0.0297  0.1441  0.1425
16098W        W35632  14.446   6.637  14.141 -0.0394  0.1272  0.0603
16099W        W35633  16.546   6.109  13.565 -0.1501 -0.2484 -0.1064
16100W        W35634   4.692  13.517  13.716  0.0861  0.2355  0.1955
16101W        W35635   1.796  16.179  12.901  0.1930  0.1404 -0.1745
16102W        W35636   2.111   2.893  15.097  0.0736 -0.0819 -0.1544
16103W        W35637   8.179  10.868  11.876 -0.2996 -0.1647 -0.0459
16104W        W35638  12.393   9.185   0.215  0.1569  0.0465  0.1341
16105W        W35639  16.599  12.252   4.836 -0.4320 -0.0831  0.0492
16106W        W35640   5.389   7.616   4.005  0.1714 -0.2583 -0.1959
16107W        W35641   5.739  10.904  11.604 -0.0343  0.0509 -0.0606
16108W        W35642  17.587  17.569   4.086 -0.0568  0.0150 -0.3271
16109W        W35643   7.372   8.181   2.042 -0.0288 -0.2967 -0.3154
16110W        W35644   3.078   7.677  11.737  0.0774 -0.0679 -0.0717
16111W        W35645   2.506   5.470  15.636 -0.1265  0.0248  0.3260
16112W        W35646   9.602   6.473   3.931 -0.1622 -0.2112 -0.1662
16113W        W35647   2.487  12.752   1.568 -0.3105  0.1018 -0.1011
16114W        W35648  18.069   3.454  15.619  0.3007  0.1438 -0.0544
16115W        W35649  13.616   7.912   0.794 -0.2788  0.2443 -0.1826
16116W        W35650  13.115  16.226   3.841  0.0346  0.1011  0.1564
16117W        W35651   4.382   5.536   2.954 -0.0279 -0.3089  0.1450
16118W        W35652  11.513  16.558   3.753  0.2126 -0.2577  0.0822
16119W        W35653   6.385  13.445  13.608  0.0355  0.1677 -0.2959
16120W        W35654   4.641   4.464   2.190 -0.0629  0.2196  0.2376
16121W        W35655  10.784   4.472   4.709  0.1121 -0.0749 -0.2245
16122W        W35656  17.275  13.858   3.902  0.0424 -0.2278 -0.3243
16123W        W35657   5.161   0.860   0.142 -0.1717  0.2809 -0.1743
16124W        W35658  13.387   6.234  13.285 -0.0198 -0.0101  0.0836
16125W        W35659  17.299   9.343  13.290 -0.0261  0.0696 -0.5424
16126W        W35660   9.478   6.168  11.595 -0.1924 -0.0675 -0.1102
16127W        W35661  13.596   7.749   2.038  0.0975  0.1930  0.0240
16128W        W35662   7.680   2.538   3.100  0.1534  0.3056 -0.1899
16129W        W35663   0.834   9.700   2.499 -0.1355  0.0913 -0.3852
16130W        W35664  10.931   5.592  13.102  0.2434 -0.1702 -0.2257
16131W        W35665  14.758   6.039  13.599 -0.0331  0.0111 -0.1439
16132W        W35666   7.215  17.333   0.718 -0.1659  0.0294 -0.0202
16133W        W35667   2.717   2.675  10.985  0.1150  0.0203 -0.1857
16134W        W35668   0.791  16.748  15.024  0.3375  0.1511 -0.1730
16135W        W35669   4.384   0.910   2.756  0.0303 -0.0262  0.1213
16136W        W35670   9.417  14.613  13.651  0.1841  0.1862  0.0083
16137W        W35671  15.827   1.419   3.525 -0.1958 -0.1374 -0.0904
16138W        W35672   9.429  11.044   2.142  0.0044 -0.0279 -0.0609
16139W        W35673   5.078   5.106  12.389 -0.0166 -0.0875 -0.2694
16140W        W35674  10.170   9.784  15.000 -0.1375  0.4940 -0.0952
16141W        W35675   7.166  12.384   4.084  0.0364 -0.1569  0.0771
16142W        W35676   7.869  14.458   3.777  0.1733 -0.2680  0.2199
16143W        W35677   2.503   2.382   1.132 -0.2543  0.0698  0.0716
16144W        W35678   8.779  13.265  15.774  0.0990  0.1254 -0.1752
16145W        W35679   5.621  16.600  13.253  0.0929  0.3574  0.0558
16146W        W35680   0.027   6.498  12.888 -0.2387  0.1525 -0.0610
16147W        W35681  12.784   3.293  13.118  0.3171  0.0735 -0.1169
16148W        W35682  12.071  11.848  14.004 -0.1599 -0.2048  0.3309
16149W        W35683   6.547  12.388  10.410  0.1263 -0.0109 -0.1566
16150W        W35684   3.974   3.205   1.806 -0.3147  0.1177 -0.0327
16151W        W35685   4.930   1.237  12.357 -0.2913  0.0000 -0.1664
16152W        W35686   4.132   3.147   2.900  0.0737 -0.0480 -0.2554
16153W        W35687  12.987  12.129  13.030  0.0768  0.0052  0.0693
16154W        W35688  12.372  13.262  11.508  0.1222  0.0992 -0.0652
16155W        W35689  10.404   3.562  15.419 -0.0057  0.0277 -0.0658
16156W        W35690   1.377  17.925  14.505  0.2311  0.0282  0.0660
16157W        W35691   0.399  15.453   2.485 -0.0578  0.2640 -0.0705
16158W        W35692   8.218   1.777   1.386  0.2368  0.0761  0.0104
16159W        W35693   9.738  12.352  12.220 -0.0815  0.3119  0.0823
16160W        W35694  14.403   8.978   4.620 -0.2444  0.1585 -0.3088
16161W        W35695   0.172   7.323   3.488  0.2971 -0.2185  0.0927
16162W        W35696   3.507   7.016   0.181 -0.0030  0.2610  0.0379
16163W        W35697  14.080   5.646   0.280 -0.0252 -0.0034  0.2088
16164W        W35698  17.263   4.324   2.228 -0.1251  0.0928  0.0867
16165W        W35699  14.228   7.883  13.657 -0.3252  0.1451  0.2015
16166W        W35700   2.580  12.821   0.901 -0.2117  0.2139 -0.1955
16167W        W35701  15.696   7.610   1.399  0.1645 -0.2626  0.0324
16168W        W35702   0.560   0.212   4.553 -0.0215 -0.0312  0.0475
16169W        W35703   9.024  10.603  11.979 -0.1499 -0.1906  0.3471
16170W        W35704   2.080  16.980  13.204  0.0421 -0.0120 -0.0538
16171W        W35705   5.723  12.069   5.465  0.1106  0.0753 -0.0956
16172W        W35706   1.095   4.619   0.248  0.1494  0.0924 -0.1797
16173W        W35707  10.579   3.887  15.808  0.0385  0.1962 -0.0906
16174W        W35708   7.496  12.128  12.352 -0.0666  0.2685  0.2536
16175W        W35709   6.565  14.665  14.518 -0.1083 -0.2072 -0.0176
16176W        W35710   6.437   0.042  11.675  0.0125 -0.2293  0.3306
16177W        W35711  10.775  16.847  13.696  0.0855 -0.0994  0.2811
16178W        W35712   1.113  17.800  13.367  0.0360  0.0605  0.0555
16179W        W35713   5.867   5.569   3.834 -0.1679 -0.0202  0.1214
16180W        W35714  12.242  12.914  14.178 -0.0538  0.4354 -0.1777
16181W        W35715  13.198  12.903  15.300 -0.4102 -0.3168  0.0525
16182W        W35716  17.179  15.319  15.424 -0.1887  0.4079 -0.3737
16183W        W35717  17.618  13.759  12.085  0.0947 -0.1481  0.2525
16184W        W35718  18.071  16.508  11.854  0.0160 -0.0891 -0.2379
16185W        W35719   1.236  17.247   0.784  0.0830 -0.0295  0.1943
16186W        W35720   6.485   3.005  13.688  0.0332 -0.1112 -0.1254
16187W        W35721   2.306   9.545  12.461 -0.1761  0.0264 -0.1697
16188W        W35722   9.279   8.439   2.170  0.1185  0.2078  0.1547
16189W        W35723   5.224  12.350   0.092  0.0097 -0.1775 -0.1845
16190W        W35724   1.638  12.876   0.999 -0.1981  0.0254  0.2077
16191W        W35725  17.129  14.425  14.685  0.2190  0.2231 -0.1398
16192W        W35726  12.823  17.699  15.232  0.2050  0.0707  0.0311
16193W        W35727  17.875  10.476  12.584  0.2205 -0.1084  0.0264
16194W        W35728  14.808   9.244   0.954  0.0565 -0.0315  0.0017
16195W        W35729   3.395  15.226   2.134 -0.1850 -0.1082 -0.2819
16196W        W35730   9.173   9.752  12.100  0.0140  0.1735 -0.1789
16197W        W35731  16.959  15.783   5.104 -0.1660  0.0192 -0.1137
16198W        W35732   4.877  15.686   3.525 -0.0174  0.0417  0.0223
16199W        W35733   8.365  14.315  11.679 -0.0348 -0.0147 -0.2058
16200W        W35734  11.698  15.953   0.304  0.3269  0.2680  0.3639
16201W        W35735   6.472   6.626  12.910 -0.0308 -0.3376 -0.2140
16202W        W35736  12.294   2.937   0.399  0.2962 -0.3126 -0.0530
16203W        W35737  15.620   9.090   2.720 -0.3096  0.1720  0.1127
16204W        W35738   6.659  17.784  15.049 -0.0859  0.2989 -0.0072
16205W        W35739  17.710   2.025  15.493 -0.0008 -0.3493  0.1815
16206W        W35740   3.256   5.231  13.200 -0.1649  0.3024  0.0766
16207W        W35741   0.411  10.589  15.824  0.1527 -0.0119  0.1658
16208W        W35742   5.559  15.293   2.972  0.0129 -0.0597 -0.0186
16209W        W35743  17.279   3.381   2.418  0.0178  0.0613 -0.0058
16210W        W35744  10.706   6.940  12.824  0.0272 -0.3112  0.2636
16211W        W35745   2.133   6.760  14.591 -0.0413 -0.1816  0.2421
16212W        W35746   1.056  10.747  12.467 -0.1981  0.1496  0.1214
16213W        W35747  15.488  15.135   0.380  0.0569 -0.1220  0.2746
16214W        W35748  14.484   3.012  15.281  0.1681  0.0365 -0.2138
16215W        W35749  13.472   7.891  15.264  0.3876 -0.0777  0.2441
16216W        W35750   1.115   2.860   4.664 -0.1435 -0.0912 -0.0855
16217W        W35751   9.395   1.162   0.157 -0.3078 -0.1053 -0.1689
16218W        W35752   6.104   7.897  11.871 -0.2378  0.1087 -0.3619
16219W        W35753  12.248  14.721   1.750  0.0946 -0.2398  0.0864
16220W        W35754   0.500   9.392   2.351  0.1165  0.1027 -0.0669
16221W        W35755   9.942   8.105  14.176 -0.1073  0.0481  0.1263
16222W        W35756   1.897  11.739  11.023  0.1405  0.3821 -0.2147
16223W        W35757   1.828  15.212   0.343 -0.0581  0.2917  0.0345
16224W        W35758  16.366   1.728  14.954  0.0057  0.1833 -0.0652
16225W        W35759  15.669  14.352   3.921  0.0282  0.1936 -0.0583
16226W        W35760   1.205   0.327  13.595 -0.1568 -0.2691 -0.2522
16227W        W35761   6.949   7.297  12.655  0.4327  0.1636  0.2388
16228W        W35762  10.992   7.864   0.989  0.0187  0.1477 -0.1952
16229W        W35763  18.165  10.368  12.988 -0.0337 -0.2713 -0.1133
16230W        W35764   1.517   9.588   2.047 -0.0372 -0.2265 -0.2711
16231W        W35765   3.088   4.715  13.073  0.2000 -0.1442  0.1423
16232W        W35766   1.466   0.514   4.963 -0.0059  0.1164  0.0719
16233W        W35767  17.775  18.035   3.184  0.2546 -0.1203  0.3025
16234W        W35768  17.824   0.748   0.813  0.0389  0.0208  0.0174
16235W        W35769  16.712   1.744  14.608  0.1816 -0.2288 -0.2055
16236W        W35770   3.139  15.326   3.781 -0.3236  0.1598  0.2468
16237W        W35771   6.604   7.368  11.001  0.4149 -0.1458 -0.0523
16238W        W35772   7.861  12.659  11.599  0.1520  0.2792 -0.1947
16239W        W35773   6.041  10.937  11.140  0.2004 -0.0501 -0.0073
16240W        W35774   0.116   4.111   2.041  0.3657  0.0114  0.0497
16241W        W35775   6.771   4.170  14.636  0.2774  0.1340  0.2173
16242W        W35776   3.510  13.571   2.117  0.0916  0.0147  0.2113
16243W        W35777   7.787   1.898  13.856 -0.2993  0.1997  0.0204
16244W        W35778   2.265  10.516   0.851 -0.0982  0.0378 -0.2487
16245W        W35779   9.747   8.471   4.309 -0.0244 -0.3265  0.0713
16246W        W35780  13.460   4.689  14.835 -0.0466 -0.0543 -0.0245
16247W        W35781   7.896   9.772  12.295  0.0759 -0.3706  0.1647
16248W        W35782  15.170   3.382   1.261  0.0975 -0.1159 -0.1326
16249W        W35783  15.862   1.026   0.937  0.0065 -0.1546  0.3514
16250W        W35784   4.661   3.771   1.222 -0.2952  0.0457  0.2216
16251W        W35785  10.598  15.331  15.410  0.1053  0.2290 -0.1383
16252W        W35786  15.814  10.834   2.184  0.0057  0.1109 -0.0312
16253W        W35787   6.929   5.826  11.632  0.2431 -0.1026  0.0542
16254W        W35788   9.444   4.525   5.757 -0.2187  0.0403 -0.0738
16255W        W35789  10.352   1.865   4.271 -0.2000  0.0782 -0.0455
16256W        W35790   8.155  17.884  13.147 -0.2510  0.0745  0.0421
16257W        W35791  15.820  16.926   0.459  0.0230  0.0692  0.3680
16258W        W35792  17.296  14.437  12.620 -0.1739 -0.1621  0.2239
16259W        W35793  16.844   0.123  15.954 -0.1194  0.0021  0.2416
16260W        W35794   5.082  11.516   0.674  0.0237 -0.0054  0.0707
16261W        W35795   9.205  14.351   3.054  0.0125  0.3397  0.0815
16262W        W35796   8.686  14.979   1.776 -0.1600  0.2054  0.1188
16263W        W35797   4.522   2.143  13.321 -0.1388  0.0524 -0.0032
16264W        W35798   3.607   6.156   0.257 -0.2154  0.0754 -0.1087
16265W        W35799   8.826   8.704  14.666  0.0254 -0.1426 -0.3908
16266W        W35800  14.131  11.786  11.617 -0.1049  0.0989 -0.1504
16267W        W35801  12.792   9.836   2.945  0.1822 -0.0958  0.1061
16268W        W35802   6.875   4.930  11.597 -0.1314 -0.0550  0.3962
16269W        W35803  16.918  11.211   0.217  0.1809  0.0426  0.0949
16270W        W35804  11.667  12.038  12.748 -0.1139  0.3114  0.1129
16271W        W35805  15.209  12.921   2.908  0.1173  0.1602  0.0848
16272W        W35806   5.845  17.458  14.563  0.1479 -0.0024  0.1381
16273W        W35807  11.029   8.690  12.288  0.1104  0.0002 -0.1174
16274W        W35808  16.101  17.730  15.635 -0.2628  0.2947 -0.1790
16275W        W35809   9.922  12.521  14.287  0.1219 -0.1235 -0.2097
16276W        W35810   3.954  15.584  11.906 -0.0535 -0.1732  0.1964
16277W        W35811  17.932  16.267  12.644  0.2736 -0.1100 -0.0841
16278W        W35812  12.715  13.245  11.914 -0.0511  0.0969 -0.0328
16279W        W35813  10.304  11.630   1.379 -0.0843 -0.0257 -0.1610
16280W        W35814   8.681   8.984  12.948 -0.0617 -0.0776  0.1831
16281W        W35815   2.257   1.603   3.266  0.1200  0.2183 -0.1461
16282W        W35816  13.235  10.557   2.902 -0.1582  0.0111  0.0232
16283W        W35817   3.268  10.285  13.026  0.1398  0.1589 -0.4949
16284W        W35818  13.485  14.241  14.780 -0.0320 -0.1322  0.2109
16285W        W35819  12.834  16.776   2.735 -0.0039  0.1783 -0.0413
16286W        W35820   6.863  14.618  12.659  0.0078  0.2022  0.0246
16287W        W35821  10.678  12.482   2.751 -0.0241  0.0297  0.0666
16288W        W35822  18.085  15.234  13.430  0.0560 -0.0293 -0.1980
16289W        W35823   0.871  18.130  15.834  0.4503  0.0952 -0.0845
16290W        W35824  13.273   9.832   4.477  0.2555 -0.1653 -0.0698
16291W        W35825  14.088   6.709   4.971 -0.1573  0.0654  0.1262
16292W        W35826   3.033   0.300  15.909  0.2487 -0.2345 -0.1761
16293W        W35827  14.177  11.215   3.435 -0.1302 -0.0314  0.0700
16294W        W35828   7.498   3.731   1.698  0.0123  0.2508  0.2034
16295W        W35829  16.697  11.960   2.754 -0.2600 -0.2959  0.1780
16296W        W35830  13.259   4.204  15.564 -0.2875 -0.0696 -0.0101
16297W        W35831  13.978   5.751  12.988  0.0351  0.1621  0.0234
16298W        W35832   6.986   1.712   0.918 -0.1038  0.0617 -0.0630
16299W        W35833  10.751   9.622   5.789 -0.3359 -0.1109 -0.0089
16300W        W35834   0.260   5.094  14.998  0.1884 -0.3460 -0.2552
16301W        W35835  11.009  17.931   2.543 -0.0960  0.1750 -0.2307
16302W        W35836   1.173  14.791   2.676 -0.0831  0.5749  0.0392
16303W        W35837   6.892  18.122  13.049 -0.2480 -0.1073  0.0966
16304W        W35838  11.666  11.065  15.029 -0.1443  0.0353  0.1077
16305W        W35839   4.837  15.550   5.657  0.1304  0.1901  0.2834
16306W        W35840   4.654   1.609  15.977  0.1515  0.0370 -0.2907
16307W        W35841  10.992   8.888  12.748 -0.1505 -0.1701 -0.1011
16308W        W35842   8.210   9.597   3.561  0.0336  0.1598 -0.0670
16309W        W35843  11.431  14.116   3.241  0.2790  0.0118 -0.0959
16310W        W35844   8.915   1.017   1.690  0.0511 -0.1567  0.0346
16311W        W35845  15.270   7.702   1.670 -0.0718  0.0327  0.1514
16312W        W35846   7.698  12.901  13.104  0.2987  0.2309 -0.2048
16313W        W35847  14.516   9.120   2.332  0.0279 -0.1441 -0.0408
16314W        W35848   3.005   3.496  15.984  0.2372  0.0790  0.0617
16315W        W35849  14.435  11.948  13.966  0.0084  0.2335 -0.1160
16316W        W35850   7.823   0.543  14.394  0.0546  0.0364  0.3232
16317W        W35851  13.477   4.219  12.316  0.1690 -0.0147  0.2425
16318W        W35852  17.474   7.928   2.019 -0.1496  0.1307 -0.1142
16319W        W35853   7.221   6.285  12.356 -0.0789  0.0812 -0.0598
16320W        W35854  15.163   2.986   0.941  0.0313 -0.1071 -0.0278
16321W        W35855  16.003  13.455   0.067 -0.2119  0.0527 -0.1079
16322W        W35856   0.186   7.571  12.486  0.2796  0.0172  0.1210
16323W        W35857   1.204  16.341  15.212  0.1983  0.2932 -0.3525
16324W        W35858  11.103  14.381  12.309  0.1022  0.0259 -0.0730
16325W        W35859   5.568  14.448  14.163 -0.4009  0.4117 -0.1642
16326W        W35860   8.656   2.672   1.754 -0.0587  0.0351 -0.3608
16327W        W35861   0.175   7.479  13.244  0.0142  0.0894 -0.0641
16328W        W35862   5.971  12.206  13.867  0.1953  0.2444 -0.2454
16329W        W35863   3.901   7.480   0.010 -0.0730 -0.0009  0.0559
16330W        W35864   5.727   5.039   3.310  0.0057 -0.3488  0.0148
16331W        W35865  17.183   9.529  15.865  0.3688  0.0995 -0.2376
16332W        W35866  15.127   1.370  15.852 -0.3973 -0.0226  0.3748
16333W        W35867   6.722   6.289  11.439  0.0313  0.1777  0.1476
16334W        W35868  15.321   7.566  12.905  0.0939  0.2907 -0.0663
16335W        W35869  15.662   2.173   4.960 -0.0253  0.1347 -0.0958
16336W        W35870  15.400  10.268   0.374  0.0535 -0.0405 -0.2310
16337W        W35871   2.716   5.724  12.412 -0.0099  0.0148 -0.1031
16338W        W35872  13.667   6.417   0.814  0.1768  0.1792  0.0125
16339W        W35873   7.977   5.480   0.950 -0.1458 -0.0137  0.0002
16340W        W35874   4.916   0.065  14.735  0.0335 -0.5230 -0.2027
16341W        W35875  12.368  10.831  10.376 -0.2324  0.1225 -0.1249
16342W        W35876   6.958   0.610   3.749  0.0009 -0.2279 -0.0859
16343W        W35877  17.867   4.560  13.679 -0.0705  0.0895  0.1097
16344W        W35878   6.631   7.359  13.243 -0.3006 -0.1194  0.4322
16345W        W35879  10.985   6.211   4.693 -0.1328 -0.3569  0.1134
16346W        W35880   0.047  17.438   3.100 -0.0098 -0.2407 -0.0312
16347W        W35881   9.050   8.026  13.355  0.0207  0.1572 -0.1808
16348W        W35882   7.512  15.551   1.123 -0.0985 -0.0293 -0.1234
16349W        W35883   4.875  12.988   0.621  0.3457 -0.1789 -0.0217
16350W        W35884   1.221   4.562  15.237  0.0971  0.1290  0.0614
16351W        W35885   1.890   8.171   4.128  0.1698 -0.1228 -0.1418
16352W        W35886  14.888  16.580   3.918 -0.1201 -0.3356  0.1222
16353W        W35887   5.061  14.865   0.640 -0.3177 -0.1218 -0.1702
16354W        W35888   1.092  11.140  11.972  0.0472  0.0710 -0.0499
16355W        W35889   0.593   2.130  15.891  0.0806 -0.1145  0.2736
16356W        W35890   0.727  16.036  11.948  0.0698  0.0513  0.1477
16357W        W35891   4.733   9.855  11.879 -0.2107  0.1601 -0.0308
16358W        W35892   2.269  15.252  12.061 -0.3096  0.2443 -0.0633
16359W        W35893   9.715  11.049  14.292 -0.2139  0.2092 -0.1600
16360W        W35894   3.057  13.463  13.331 -0.0044 -0.2924  0.1248
16361W        W35895   4.974  16.976   2.105  0.6367 -0.2211  0.2452
16362W        W35896   8.632   2.475  14.496  0.1510 -0.0172  0.2914
16363W        W35897   1.745   1.284   0.431  0.0246  0.2062  0.4159
16364W        W35898   3.961   5.238   3.486  0.1992  0.0028 -0.0909
16365W        W35899  11.776  10.826   3.001  0.3458 -0.0556  0.0513
16366W        W35900  14.163   3.563   3.370 -0.3315  0.0501 -0.0158
16367W        W35901  15.218  14.185   4.162 -0.0333  0.1588 -0.1957
16368W        W35902   4.855   6.350   3.582 -0.0707  0.0689 -0.0116
16369W        W35903  13.982  11.869  15.962 -0.0514  0.0257  0.0858
16370W        W35904  15.626   1.384  12.121 -0.0545  0.0178 -0.1624
16371W        W35905  13.334  15.527  12.017  0.1624  0.1212 -0.1548
16372W        W35906  13.349   5.338   0.551 -0.1307 -0.1286  0.0628
16373W        W35907  17.143  15.539  13.312 -0.0471 -0.1149  0.0253
16374W        W35908   1.543   7.559   4.032  0.1321 -0.0433 -0.0633
16375W        W35909  17.560   6.911  15.281  0.3394 -0.4273 -0.0398
16376W        W35910  14.750  12.557   0.987 -0.0158  0.2332 -0.0309
16377W        W35911   5.101  17.362   3.734 -0.3342 -0.1175  0.2298
16378W        W35912  12.746   6.037   3.828  0.0217 -0.2143  0.0404
16379W        W35913   1.949   6.627  12.250 -0.1162 -0.3196 -0.1520
16380W        W35914   6.139  16.134   2.863  0.0452  0.1339  0.3923
16381W        W35915   0.178  11.141   4.150  0.3353  0.0132  0.0328
16382W        W35916  16.836   0.122  13.157  0.1661  0.3166  0.2402
16383W        W35917   4.274  11.842  14.214  0.0299  0.1008  0.0272
16384W        W35918  10.171   3.707  12.115 -0.3305  0.2211 -0.1767
16385W        W35919   1.832   8.237  14.190 -0.1073 -0.0233 -0.0712
16386W        W35920  10.641  13.339   3.789  0.1255 -0.1564  0.2912
16387W        W35921   1.523  11.430   5.536 -0.1082 -0.0222 -0.1165
16388W        W35922   6.467  16.470  14.660 -0.3238 -0.1002  0.1053
16389W        W35923  16.434  17.205  13.539  0.0340 -0.2445 -0.1303
16390W        W35924  15.769  14.252  14.297  0.0800 -0.0125  0.0007
16391W        W35925   3.069   0.666  11.498  0.0245  0.1148  0.0822
16392W        W35926  14.796   2.094  12.719 -0.0359  0.0843 -0.1761
16393W        W35927   3.768  10.098   0.194  0.0607 -0.0565 -0.0227
16394W        W35928   5.283   6.056   3.410  0.1817  0.4391  0.1588
16395W        W35929   8.391  16.665   0.804  0.0116 -0.3424  0.3383
16396W        W35930   6.930   4.404   1.554 -0.2618 -0.1884  0.0442
16397W        W35931  17.709   3.197  12.183 -0.0369  0.1906  0.1510
16398W        W35932  14.703  13.630   2.260  0.0236 -0.1708  0.2695
16399W        W35933   1.913  15.417   4.678  0.0723  0.0302  0.0208
16400W        W35934  15.099  16.164   1.237  0.0659 -0.1710  0.2332
16401W        W35935   0.001  13.101  13.377  0.0635  0.1520 -0.1130
16402W        W35936   0.878   0.765  11.852  0.1514 -0.3106 -0.1243
16403W        W35937   5.132  17.805  13.476 -0.2458  0.1288  0.0156
16404W        W35938   2.201   7.112   3.129 -0.1918  0.1162 -0.3546
16405W        W35939  14.244  15.947  14.362 -0.1285 -0.0647 -0.3450
16406W        W35940  14.337  16.554  13.900  0.0286  0.0169 -0.0040
16407W        W35941  14.018   1.437  12.051  0.0155  0.4079 -0.0571
16408W        W35942   9.411   4.962   1.583 -0.2159 -0.1537  0.1043
16409W        W35943  18.065   0.710  13.728  0.0500  0.1674  0.2646
16410W        W35944   9.863   5.268  11.613  0.0118  0.0947 -0.1052
16411W        W35945   5.782   2.429   0.029  0.1220 -0.0484  0.2501
16412W        W35946  15.684  17.916  12.734 -0.1240  0.1503 -0.0432
16413W        W35947  11.438  11.844   0.636  0.0668  0.1594  0.0035
16414W        W35948   0.730  11.991   1.744  0.0521  0.1453 -0.1724
16415W        W35949  16.435  15.589   4.973  0.0369 -0.0617  0.1194
16416W        W35950  15.171  11.545   4.347  0.1234  0.0479 -0.4710
16417W        W35951  10.195   6.238   4.402 -0.2985 -0.1394  0.3793
16418W        W35952   7.681  13.548  12.464  0.1589  0.1757  0.0558
16419W        W35953  10.507   7.851  13.702  0.0198 -0.1108  0.2103
16420W        W35954  11.224   8.882   4.758 -0.2858 -0.0078 -0.0752
16421W        W35955  13.754  14.074   2.601 -0.1874 -0.1211 -0.0925
16422W        W35956  16.412  14.110  15.643  0.1383  0.3047 -0.0708
16423W        W35957   0.686   0.820  15.540 -0.0919  0.0229 -0.0216
16424W        W35958  18.051   3.839   0.796 -0.0965 -0.0065  0.3044
16425W        W35959   5.653   1.650  15.857  0.0285 -0.0751  0.1738
16426W        W35960  10.287   7.036  13.190 -0.1925  0.1691  0.0793
16427W        W35961  16.829  11.154   4.309 -0.0213 -0.1021 -0.1759
16428W        W35962  16.222   8.965  14.934 -0.0156 -0.0139 -0.1088
16429W        W35963   7.736   0.430  11.142  0.0997 -0.0508  0.1109
16430W        W35964  16.060   6.032   0.101  0.1120  0.3959 -0.3117
16431W        W35965   1.116  14.185  12.626 -0.0775  0.0673  0.0040
16432W        W35966   8.887   6.438  14.097 -0.0693 -0.2466 -0.0817
16433W        W35967  15.612  10.312   1.487 -0.1708 -0.4264  0.0147
16434W        W35968   3.323  10.522  15.379 -0.0685 -0.0993 -0.0904
16435W        W35969  17.768  12.182  11.700 -0.2016 -0.1427 -0.0243
16436W        W35970  13.442  11.695  15.993  0.1134  0.1076  0.0443
16437W        W35971   4.618  17.548  10.076  0.0146 -0.1420  0.1553
16438W        W35972   8.669  15.803   0.738  0.0839 -0.2053  0.2688
16439W        W35973   4.049  14.820   0.210 -0.0939  0.1970 -0.1316
16440W        W35974  11.541   6.050  15.447 -0.2468  0.2604 -0.2357
16441W        W35975   8.970  12.458  14.578 -0.1814  0.1789 -0.1817
16442W        W35976  17.689  16.341   1.588 -0.2282  0.0519  0.1571
16443W        W35977   6.411  11.049   4.986 -0.1767  0.0359  0.0793
16444W        W35978   0.780   9.676  15.013  0.0427 -0.1822 -0.0082
16445W        W35979   0.689   8.946  15.641 -0.2521  0.0270 -0.1082
16446W        W35980   2.846   5.682  15.298 -0.1067  0.1023  0.2343
16447W        W35981  16.774   3.830   1.826  0.1117  0.0314  0.0464
16448W        W35982   7.959   4.102   3.834 -0.1007 -0.0621 -0.0998
16449W        W35983  10.069   1.772  12.415  0.4139 -0.0314  0.1370
16450W        W35984  16.527   2.968  14.738 -0.4098  0.0916 -0.1130
16451W        W35985   1.429   9.565  15.418 -0.2245  0.0603 -0.0883
16452W        W35986   6.545  11.254  12.388  0.1575  0.0212 -0.0636
16453W        W35987  15.943   2.989  12.670  0.1985  0.1328 -0.0700
16454W        W35988   9.788  13.702  15.761  0.1595 -0.1392  0.0817
16455W        W35989  14.065  11.657   2.934 -0.1192  0.1964  0.1508
16456W        W35990  13.155  12.501   0.355 -0.0205 -0.2201 -0.1486
16457W        W35991   0.326   1.171  15.736 -0.2973 -0.1782 -0.1525
16458W        W35992  15.627  14.916  13.803  0.0271 -0.0115  0.1540
16459W        W35993   4.370  10.517   1.415 -0.4043 -0.1902  0.1357
16460W        W35994  11.627  15.188   0.174 -0.0103 -0.0029 -0.4897
16461W        W35995   5.092   8.720   2.847  0.0522 -0.0581 -0.0368
16462W        W35996  11.836   5.011   3.504  0.1317 -0.1075 -0.2591
16463W        W35997   2.187  11.172  12.835  0.1310  0.3964 -0.1936
16464W        W35998   8.080   1.030  13.957  0.2657 -0.0706  0.0538
16465W        W35999  13.569   4.101   2.303 -0.0540  0.0665  0.0513
16466W        W36000   6.628   1.461  14.213  0.2759  0.1131 -0.0062
16467W        W36001   9.713  11.225   3.408 -0.2657  0.1210 -0.0340
16468W        W36002   5.054   2.594  13.518 -0.0521  0.1542 -0.0041
16469W        W36003   6.181  10.514   3.152  0.0443  0.0638 -0.1574
16470W        W36004   9.630  17.156   1.921  0.1076  0.3367  0.2435
16471W        W36005  12.805   4.002   5.972  0.1188  0.0444  0.0356
16472W        W36006   8.806  15.518  11.674 -0.0079 -0.2370 -0.1291
16473W        W36007  14.112   1.836  13.218 -0.0122  0.1323 -0.4112
16474W        W36008  13.196  18.142  15.865  0.1548 -0.1102 -0.1496
16475W        W36009   7.952  17.627  15.381  0.2993  0.0884  0.0638
16476W        W36010   0.213   2.033  12.096 -0.3289 -0.0761  0.2035
16477W        W36011   2.300  16.991  15.608  0.0148  0.1047 -0.2575
16478W        W36012   7.125  13.292   1.742  0.1105 -0.0948 -0.0384
16479W        W36013   0.438   8.398   3.273 -0.1935  0.1011  0.2488
16480W        W36014   9.230  10.237   2.548 -0.1961 -0.0678  0.1668
16481W        W36015   6.545   0.811   0.048  0.2010 -0.3021 -0.3514
16482W        W36016   1.909   6.930  13.036 -0.0460 -0.1266 -0.0665
16483W        W36017  17.038   1.590  12.434  0.2568 -0.2773  0.0111
16484W        W36018   6.280   5.866   2.130  0.2793 -0.2344 -0.3365
16485W        W36019  14.485  13.423   3.890  0.1056  0.1011  0.2084
16486W        W36020   3.226   9.696   1.206 -0.1763 -0.1856 -0.1031
16487W        W36021   6.670  11.122  14.052  0.1059 -0.1382  0.0031
16488W        W36022  11.745  11.096  11.864 -0.0861  0.0501  0.0532
16489W        W36023   9.332   8.359  13.592 -0.2536 -0.0226 -0.3123
16490W        W36024   4.793   6.133  16.001  0.2654  0.0658  0.0154
16491W        W36025  10.377   9.023  13.439  0.1412  0.2580 -0.2152
16492W        W36026   1.946  15.855  14.677 -0.2099  0.4862 -0.0863
16493W        W36027   9.024  11.540  12.347  0.0955  0.1024 -0.1627
16494W        W36028   4.445   0.450   1.144  0.0791 -0.1098 -0.0035
16495W        W36029  14.968   5.716  12.156  0.1687 -0.2279  0.1645
16496W        W36030  14.178  16.148  14.848 -0.0075 -0.0107  0.0655
16497W        W36031  14.678  10.798   2.904 -0.1280  0.0797  0.1113
16498W        W36032  11.809   7.211  11.954 -0.1275  0.0961  0.1603
16499W        W36033   5.755   9.072  14.487  0.1961 -0.2608  0.2441
16500W        W36034  15.172   8.488   1.617 -0.0867 -0.5396 -0.1736
16501W        W36035  15.021  13.691   0.054 -0.1324  0.1366 -0.1570
16502W        W36036   2.137   7.002  15.445  0.0010 -0.1207  0.0394
16503W        W36037  17.049   2.001  13.856 -0.0437  0.0418  0.0468
16504W        W36038  12.148   2.766  13.998  0.0486  0.3551  0.0613
16505W        W36039   7.859  11.875  14.042 -0.2379 -0.0112  0.2288
16506W        W36040   3.717  17.475  16.052  0.0782  0.2818 -0.0579
16507W        W36041  18.001  10.786   1.545  0.0428 -0.1590  0.0191
16508W        W36042  14.556  10.937   3.660  0.1073  0.3645 -0.1514
16509W        W36043   8.238  14.657   2.761  0.0741 -0.0246 -0.0954
16510W        W36044   9.083   5.482   2.290  0.2443  0.0921  0.1563
16511W        W36045  11.186  17.481  11.649 -0.0229 -0.0211  0.0249
16512W        W36046   4.594   5.307  10.495  0.2629  0.2202 -0.1638
16513W        W36047   0.607  15.724   4.322 -0.2441  0.2113  0.0979
16514W        W36048   9.143  11.261   2.475  0.0643 -0.1103 -0.0685
16515W        W36049   3.858  13.161  13.513  0.1675 -0.2011 -0.1066
16516W        W36050   7.647  12.472   4.328  0.0780 -0.0179 -0.0619
16517W        W36051  13.816   1.080  15.629 -0.0557  0.2104  0.3679
16518W        W36052  13.676  13.326   3.474 -0.0352  0.0596  0.0606
16519W        W36053  17.865  15.351   3.880 -0.3407  0.3550  0.2531
16520W        W36054   0.177   7.115  15.356 -0.3427  0.4433 -0.1668
16521W        W36055  14.845  14.468   3.197  0.3060  0.2236 -0.0051
16522W        W36056   1.549  16.609   2.848  0.0685  0.1741 -0.1391
16523W        W36057   3.155   7.887  15.684 -0.1961  0.0300 -0.1040
16524W        W36058  16.132   7.617  15.735 -0.0468  0.0994 -0.0957
16525W        W36059   2.023   3.807   3.624 -0.2048  0.0224 -0.3980
16526W        W36060   5.898   7.204  13.538  0.0623 -0.0831 -0.1336
16527W        W36061   5.725  10.409   3.908  0.2599 -0.1070 -0.0212
16528W        W36062   7.147   8.543  15.421  0.1696 -0.1065  0.0362
16529W        W36063   7.635   3.035  12.411  0.2007 -0.0021 -0.1552
16530W        W36064   2.605   8.354   4.526 -0.0067  0.2314 -0.1746
16531W        W36065   4.767  10.352   1.781 -0.1192 -0.3179  0.1209
16532W        W36066   0.929  15.083  14.740 -0.1201  0.2725  0.3208
16533W        W36067   9.734   3.302   0.567  0.0246  0.4361 -0.0349
16534W        W36068   2.755   9.239  14.660 -0.0405  0.2326 -0.0989
16535W        W36069  10.452  10.907   4.968  0.1041  0.2380 -0.2132
16536W        W36070   5.239   7.886  15.885  0.1640 -0.1227  0.1479
16537W        W36071   8.323  17.579   0.495  0.0983 -0.0524  0.0220
16538W        W36072  14.165   7.128   1.521  0.1015  0.0795  0.0017
16539W        W36073  11.992  10.425   3.357  0.2922 -0.2989 -0.0097
16540W        W36074   0.407   2.409   0.297 -0.0061  0.4703  0.2734
16541W        W36075  14.757  11.167   4.294 -0.0613 -0.1195 -0.0653
16542W        W36076  17.899  16.204  14.383  0.0627  0.0112 -0.2492
16543W        W36077   4.407   7.430  15.715 -0.3290 -0.1076  0.4153
16544W        W36078   4.949   9.097   0.122 -0.1639  0.1538 -0.0854
16545W        W36079   7.751   2.728   0.357 -0.3423  0.0586 -0.0325
16546W        W36080  17.179  10.501  13.895  0.1537 -0.0202 -0.0708
16547W        W36081   4.888   0.023  11.858 -0.1236  0.2100  0.2097
16548W        W36082  15.888  16.059  15.947  0.2242 -0.1931 -0.2203
16549W        W36083  13.476   2.149   0.764  0.1651 -0.0335  0.0099
16550W        W36084  17.270  12.166   0.660 -0.0287  0.1240  0.1073
16551W        W36085  10.792   2.502   0.677 -0.0414  0.0916  0.4619
16552W        W36086  12.240   9.411   4.243  0.0423  0.1828 -0.1934
16553W        W36087  12.683  13.391   1.537 -0.0718  0.0700 -0.0279
16554W        W36088   7.378   1.165   2.319 -0.0045  0.1096  0.1727
16555W        W36089   5.366  10.321   0.104 -0.4206  0.3477 -0.1944
16556W        W36090   4.775   6.635   0.621  0.1086  0.0383  0.0060
16557W        W36091   5.028   3.779  11.844  0.2373  0.0209 -0.0491
16558W        W36092   7.363   8.784  12.998 -0.1901 -0.2381  0.0290
16559W        W36093  11.344   0.497  12.721 -0.0750 -0.4294  0.1093
16560W        W36094   8.310   7.127  14.331  0.1465 -0.0675  0.1338
16561W        W36095   0.877   0.688  13.714 -0.0485  0.0449 -0.0333
16562W        W36096   5.516   4.745   2.401  0.0705 -0.0763  0.2314
16563W        W36097  10.743   1.455  13.051  0.0074 -0.2049 -0.3086
16564W        W36098   9.741   3.850   1.035 -0.0318 -0.1920 -0.1120
16565W        W36099  17.396   5.211   3.193  0.0986  0.2572 -0.1229
16566W        W36100   6.533   5.438  15.324  0.3411  0.1683 -0.2261
16567W        W36101   6.630   8.617  15.469  0.2361  0.2718 -0.1691
16568W        W36102  15.894  12.495  12.500  0.0778  0.0947 -0.0839
16569W        W36103   3.200  11.816   2.627 -0.5063  0.0084 -0.0295
16570W        W36104  10.000  17.575   4.483 -0.2010  0.0525 -0.1439
16571W        W36105  16.585  17.818   2.425 -0.1962 -0.0185 -0.0454
16572W        W36106   6.065  16.591  14.937  0.1685 -0.3645  0.0115
16573W        W36107   5.078   2.328   0.343 -0.0711  0.2333  0.1870
16574W        W36108   8.272  10.045   3.734 -0.0004  0.1127  0.1575
16575W        W36109   5.565   4.917  14.001 -0.0756  0.0267 -0.0176
16576W        W36110  13.678   3.445   5.261  0.3072  0.1051  0.2990
16577W        W36111  10.799   5.715  12.071  0.2302 -0.1279  0.2438
16578W        W36112   3.971  10.202   1.311 -0.0411 -0.2160 -0.1405
16579W        W36113   1.078   7.738  12.674 -0.2722  0.3472 -0.0252
16580W        W36114   1.753  14.716  10.429 -0.2904  0.1695 -0.1153
16581W        W36115   5.348   1.932   0.618 -0.3536 -0.1629  0.1421
16582W        W36116  15.892  15.562  11.882  0.0201  0.1865 -0.2877
16583W        W36117  15.242   1.625   2.333  0.0044  0.0002 -0.0151
16584W        W36118   4.285   7.996  14.176  0.2259  0.1082 -0.0236
16585W        W36119  15.262  17.788   2.130 -0.0982  0.0734 -0.0929
16586W        W36120   8.426  14.545   0.044  0.0778 -0.0308 -0.0441
16587W        W36121   3.474  13.206  11.274 -0.1112  0.0034 -0.0228
16588W        W36122   9.955  12.230  14.787 -0.1815 -0.0213 -0.0487
16589W        W36123  14.786  12.789   1.717 -0.3209 -0.0541 -0.0158
16590W        W36124   6.891   6.380   1.150  0.1181  0.0500  0.0029
16591W        W36125  13.425  17.067  14.181 -0.1420 -0.0595 -0.0084
16592W        W36126   1.115   5.712   0.988  0.1300 -0.0547 -0.1318
16593W        W36127   2.556   9.451  11.410 -0.2055  0.1115  0.1479
16594W        W36128  10.660   3.008  13.899  0.1629  0.4213 -0.0652
16595W        W36129  17.515   4.546  12.249 -0.2051 -0.0689 -0.1109
16596W        W36130  13.206   2.152   1.146 -0.2306  0.1593 -0.3025
16597W        W36131  17.502   3.759   0.032 -0.2040  0.0963 -0.1063
16598W        W36132   1.105   3.973  14.597  0.4352  0.1905 -0.2485
16599W        W36133   0.760  11.994   1.208 -0.1655  0.4666 -0.1165
16600W        W36134   5.119  11.671  14.069  0.3698  0.1721 -0.2962
16601W        W36135   1.653  14.733  15.702 -0.2062  0.2974  0.1760
16602W        W36136  10.078   2.081   3.932  0.0135 -0.0587  0.0356
16603W        W36137  17.111   6.252  14.206  0.2214  0.2297  0.0476
16604W        W36138   9.032   7.109   3.415  0.4249 -0.1391 -0.0478
16605W        W36139   8.913  14.997  11.573 -0.1941  0.0682 -0.2683
16606W        W36140   1.302  15.191  14.436  0.2705 -0.2714  0.2253
16607W        W36141   2.577  11.340  15.209 -0.2471  0.0604 -0.1528
16608W        W36142   3.098  17.384  15.069 -0.3029 -0.1493 -0.0778
16609W        W36143   5.378   8.382   4.400 -0.3233 -0.1956  0.0521
16610W        W36144  10.487   1.691  11.624  0.2069 -0.1532 -0.1793
16611W        W36145   9.644  15.747   3.118 -0.0185  0.2244  0.2992
16612W        W36146  18.146  12.033  15.122 -0.0587 -0.1181  0.2607
16613W        W36147   2.907  11.621   0.888  0.0021  0.3223  0.0584
16614W        W36148   9.299   1.977   0.564  0.1129  0.0217 -0.1407
16615W        W36149   4.953   5.154  14.780 -0.1307  0.0581 -0.3213
16616W        W36150   4.991   1.207  14.660 -0.3105 -0.0435 -0.2424
16617W        W36151   7.783  16.227   4.278  0.1149 -0.0149  0.1249
16618W        W36152  14.474  15.225   4.484  0.0259 -0.2966 -0.2913
16619W        W36153  12.237   3.290   4.087 -0.0210  0.0558 -0.1896
16620W        W36154   0.319   6.883   0.275 -0.0967 -0.3321 -0.0035
16621W        W36155   4.394  12.842   3.589  0.2302 -0.0254 -0.2974
16622W        W36156   6.400  13.316   0.723  0.0939  0.2998  0.0087
16623W        W36157   6.643   1.354  16.050  0.2257 -0.2229  0.0347
16624W        W36158  16.750  16.745  14.995 -0.1070 -0.2067  0.0324
16625W        W36159   9.363   6.441   3.505  0.0690 -0.1005  0.1398
16626W        W36160  16.590   0.472   3.898  0.1520 -0.2110  0.0485
16627W        W36161  16.183  17.098   0.112  0.1446 -0.1133  0.0876
16628W        W36162  16.847  12.239  14.056 -0.1549  0.1862 -0.1808
16629W        W36163  12.288   9.405  11.037  0.0847 -0.0409 -0.2457
16630W        W36164   5.501   9.211   4.107 -0.3757  0.0172  0.1244
16631W        W36165  12.872   5.730  15.788  0.2505 -0.0161 -0.2954
16632W        W36166   6.007   3.836  15.787  0.0913 -0.0658  0.0170
16633W        W36167  11.815   1.701  12.970  0.1505  0.1911 -0.2258
16634W        W36168  14.613  12.779  13.342  0.3419  0.4014  0.1157
16635W        W36169   8.455  10.440   0.879  0.0854 -0.0341  0.0819
16636W        W36170   5.702  17.862  13.623 -0.0704  0.0630  0.0164
16637W        W36171   8.457  10.198  15.089  0.0957 -0.0555  0.2217
16638W        W36172  17.229   2.060   1.985 -0.0221 -0.2085  0.0759
16639W        W36173   6.230  17.461  12.444  0.1765  0.3129  0.0353
16640W        W36174  14.475   2.500  15.230  0.1849  0.0893 -0.0851
16641W        W36175  16.170  10.166  15.339 -0.2039 -0.0066  0.0591
16642W        W36176   2.570  11.876   1.209  0.0698 -0.0884  0.0372
16643W        W36177   2.092   5.353  13.570 -0.1481 -0.0291 -0.0860
16644W        W36178   3.618  11.552  13.019 -0.1823 -0.0519 -0.3525
16645W        W36179  13.616   1.110   2.098  0.1944 -0.0534 -0.4647
16646W        W36180  17.682   4.488   3.807 -0.0042 -0.3628  0.1016
16647W        W36181   7.575   4.033  16.018  0.0431  0.0436  0.1094
16648W        W36182   5.858   7.544   4.140 -0.1854 -0.1904 -0.3164
16649W        W36183   6.521   0.520   0.989 -0.0657  0.1584  0.0320
16650W        W36184   2.659   8.079   3.624 -0.0407 -0.0838 -0.0522
16651W        W36185   4.578  11.405   3.795 -0.1887  0.0876 -0.0647
16652W        W36186  16.609   8.241   2.213  0.5427  0.3139  0.1683
16653W        W36187   9.130   0.399   2.327 -0.1689  0.0023  0.0814
16654W        W36188  10.580   1.679   1.297 -0.2495  0.2563  0.2661
16655W        W36189  15.881  16.253   3.983 -0.0804  0.0298  0.0297
16656W        W36190   4.513  13.529  11.899 -0.0283  0.2721  0.1422
16657W        W36191  10.309   9.606  13.431 -0.1142  0.0123 -0.0197
16658W        W36192   9.064   2.667   2.109 -0.2397 -0.2733  0.0708
16659W        W36193  16.870  10.503   2.815 -0.0415 -0.0018 -0.0295
16660W        W36194  16.181  14.389  16.007  0.1269  0.2661  0.1492
16661W        W36195   9.110   5.736   0.526 -0.2007  0.0210  0.0252
16662W        W36196   0.025   0.245  13.713 -0.0987 -0.3901  0.0783
16663W        W36197  12.454   2.138  12.565 -0.1813 -0.2010 -0.4153
16664W        W36198  16.872   1.547   3.764 -0.1198  0.1554  0.0602
16665W        W36199  10.332   4.411   5.745 -0.1651 -0.0666  0.0203
16666W        W36200   4.350  14.810  13.726  0.2400  0.0031  0.1646
16667W        W36201   9.282   6.783  12.333 -0.0929  0.3267  0.5326
16668W        W36202  14.713  14.642  12.541  0.0761 -0.1554  0.1666
16669W        W36203   4.571   2.480  15.489  0.1865 -0.1036 -0.0739
16670W        W36204   7.783  10.641   4.303  0.0521 -0.1582  0.1645
16671W        W36205  11.130  11.824  14.901  0.1695  0.0745 -0.1944
16672W        W36206   7.467   2.854  13.570 -0.0550 -0.0419 -0.0879
16673W        W36207   8.409  15.676   4.471 -0.0730  0.1461  0.3047
16674W        W36208   1.837  10.318  12.647  0.1344 -0.1857 -0.0349
16675W        W36209  18.031  15.150  15.454 -0.2229 -0.3561  0.1374
16676W        W36210  12.617   7.197   0.873  0.0040 -0.2477 -0.1062
16677W        W36211  16.048   3.073  11.607  0.3508 -0.0679  0.2658
16678W        W36212   6.943   5.988   0.408 -0.0445 -0.0683 -0.0421
16679W        W36213  15.514   0.473  15.503  0.0498  0.2893  0.1231
16680W        W36214  16.572   2.488  13.973 -0.1091 -0.0656  0.0396
16681W        W36215  13.751  13.857  12.095  0.1143  0.0851  0.0916
16682W        W36216  17.111  17.081   0.418 -0.0013 -0.1397 -0.2748
16683W        W36217  18.167   6.332  12.409  0.2314 -0.0198  0.1836
16684W        W36218   6.244   9.094   0.022  0.0854  0.1175  0.0305
16685W        W36219   0.760   2.016  14.912 -0.0171  0.4127 -0.0626
16686W        W36220  17.037   0.619  13.462 -0.1530  0.0498 -0.2026
16687W        W36221   1.241   7.869   2.935 -0.0697 -0.1589 -0.0236
16688W        W36222   1.896   3.063  12.126 -0.2139 -0.0086 -0.1621
16689W        W36223   3.262   0.281  11.799 -0.3602  0.0127  0.1879
16690W        W36224   8.485  14.201   3.450 -0.3108 -0.0076  0.0324
16691W        W36225  15.736  12.718  11.712  0.1300  0.1826 -0.1190
16692W        W36226   6.934   4.912   1.498  0.0274  0.2310 -0.1922
16693W        W36227   1.177  17.257   1.837 -0.1051  0.1201 -0.0820
16694W        W36228  17.992   1.824   1.315 -0.2794  0.0507 -0.1762
16695W        W36229  11.597  12.364  13.829 -0.1705 -0.3076 -0.0403
16696W        W36230   2.602   5.603   2.807  0.0602 -0.0749  0.0241
16697W        W36231  14.374   3.964  12.411 -0.2545 -0.3595 -0.3157
16698W        W36232  10.540  15.889  13.563 -0.0710 -0.1318  0.4450
16699W        W36233  17.354   4.467   5.195 -0.2191  0.0707  0.0528
16700W        W36234  13.878   1.992  13.815 -0.0850 -0.3872  0.0763
16701W        W36235  12.871  12.755  13.262  0.0743 -0.3324 -0.2209
16702W        W36236  12.068   7.274   3.889 -0.1024 -0.0679  0.3287
16703W        W36237   8.692  17.652  11.380  0.2673  0.3487  0.0161
16704W        W36238  12.506  14.379   0.350 -0.0674  0.2296 -0.0936
16705W        W36239   2.651  11.187   4.486  0.3007  0.0282 -0.0108
16706W        W36240   5.406   5.666  15.770 -0.0357 -0.0409  0.0511
16707W        W36241   4.336  14.641  15.379 -0.0015  0.0547 -0.0674
16708W        W36242   6.655  18.045   2.417  0.0545 -0.2828  0.0577
16709W        W36243   1.930   0.942   4.672 -0.0833 -0.2516  0.3432
16710W        W36244   0.309   5.335  11.694  0.0851 -0.4810 -0.3627
16711W        W36245   3.393   5.673   2.481 -0.2135 -0.0123  0.1964
16712W        W36246  14.149  12.844   2.688  0.0580  0.1855  0.0226
16713W        W36247   1.640   2.693  11.607 -0.0649  0.2409 -0.1513
16714W        W36248  14.618   2.925   1.833  0.1318  0.0883  0.1314
16715W        W36249  14.316  17.053   4.143 -0.2172 -0.0113 -0.1804
16716W        W36250  14.556   4.033   4.670  0.1898 -0.2548  0.1786
16717W        W36251   6.420  16.152   1.505 -0.0357 -0.1412  0.0343
16718W        W36252  13.290   1.149   1.534 -0.0230 -0.1944 -0.2508
16719W        W36253  14.217   8.935  13.760 -0.1281  0.0699  0.1084
16720W        W36254   9.855  17.239   3.612  0.0861 -0.0194  0.0504
16721W        W36255  11.984   1.901   1.594  0.0266  0.2134  0.1297
16722W        W36256   6.311   2.917   0.892 -0.0291 -0.1907 -0.2307
16723W        W36257  14.783  13.835   4.230 -0.0410 -0.1331 -0.0767
16724W        W36258   9.773   2.668  16.051 -0.0412 -0.0053  0.3366
16725W        W36259   2.127   9.086   1.725 -0.0232 -0.4387 -0.1228
16726W        W36260  14.760   6.227  16.031 -0.0440 -0.1555 -0.5108
16727W        W36261  11.891  12.648   0.399 -0.1745  0.3217 -0.0726
16728W        W36262  16.894   5.656   0.212  0.0508 -0.0918 -0.0685
16729W        W36263  11.264  12.145   3.866 -0.0692  0.0186 -0.0270
16730W        W36264  17.763   8.951  10.941 -0.0292 -0.1231  0.0942
16731W        W36265   2.659   2.820   1.767 -0.2008 -0.1180  0.3334
16732W        W36266   0.934   2.636  14.706  0.1752 -0.0320 -0.1239
16733W        W36267  16.650  11.205  14.528  0.1389  0.0264  0.0313
16734W        W36268   4.745  16.946   2.935  0.0782 -0.0963 -0.1951
16735W        W36269  15.668  14.282   2.540 -0.1723 -0.2182 -0.1252
16736W        W36270  16.797   0.267   3.037 -0.1324  0.0173  0.0027
16737W        W36271   0.612  16.454  13.462  0.0882  0.2558  0.0062
16738W        W36272   1.796   9.112   2.570 -0.0677  0.1131 -0.0623
16739W        W36273   7.753   9.166   2.253 -0.1633  0.0405 -0.0098
16740W        W36274   2.018   7.382   4.024  0.0902 -0.0772  0.0518
16741W        W36275   3.781  12.193   0.932  0.1920 -0.0015 -0.1614
16742W        W36276  11.454   4.238  12.806 -0.5134 -0.3936 -0.1404
16743W        W36277   0.691   1.848   1.638 -0.0056  0.3194  0.2035
16744W        W36278   4.509   6.332  12.933 -0.0343  0.2055 -0.1388
16745W        W36279   7.702   1.470  13.231  0.0264 -0.1062 -0.2077
16746W        W36280   1.656   6.337  15.149  0.4743 -0.3549  0.3850
16747W        W36281   6.663   4.415  11.535  0.0112  0.1151  0.0535
16748W        W36282   5.540   6.325   3.698 -0.0374 -0.1935 -0.3013
16749W        W36283   2.830   1.132   0.947  0.0295 -0.0816  0.3066
16750W        W36284  17.512   4.218   2.645 -0.4271 -0.1300 -0.0356
16751W        W36285  12.254   4.379  11.757 -0.0334 -0.0345  0.1146
16752W        W36286  16.343  14.648   3.402 -0.1173 -0.1067  0.0414
16753W        W36287   6.029  14.598  14.461 -0.1416 -0.2240  0.1023
16754W        W36288   2.204   8.409   3.779  0.3732 -0.0659  0.1558
16755W        W36289   7.030   6.924  14.079  0.1279  0.0043 -0.1026
16756W        W36290   3.757  13.141   1.358 -0.0322  0.1218  0.1627
16757W        W36291   9.633  10.321   1.784  0.4733  0.1821  0.0578
16758W        W36292  18.021  17.653   3.602 -0.4692  0.1247 -0.0058
16759W        W36293   5.261  13.076   1.564  0.1201 -0.2032  0.1808
16760W        W36294   1.157   9.508   1.484 -0.1660  0.0293 -0.3138
16761W        W36295  11.951  14.813   2.733 -0.3216 -0.1406  0.0199
16762W        W36296  14.063   2.638  14.565  0.0995  0.2439 -0.0665
16763W        W36297   4.581   8.753  15.051 -0.1750 -0.2557 -0.1126
16764W        W36298  15.098  14.942   2.216  0.4400  0.1356 -0.0470
16765W        W36299   8.042  11.855   3.962  0.2572 -0.1359 -0.2202
16766W        W36300  10.977   9.673   2.678  0.0002 -0.0297  0.1697
16767W        W36301   4.870  12.977  15.302 -0.0252 -0.0708  0.0714
16768W        W36302  17.883  13.786   0.505  0.1665  0.0787 -0.1601
16769W        W36303  18.129   8.616   1.467 -0.1872  0.1886  0.1810
16770W        W36304  16.001  14.958  12.449 -0.1390  0.1119 -0.0957
16771W        W36305  17.159   3.640  12.999 -0.1537  0.1765 -0.2085
16772W        W36306   5.158   6.317   1.463  0.1467 -0.3286  0.1776
16773W        W36307   7.263  11.664   5.773 -0.1783 -0.1097 -0.0703
16774W        W36308  15.855  16.299  12.073  0.2342  0.1066 -0.1591
16775W        W36309  12.066   0.796  14.232 -0.0100 -0.2232  0.4717
16776W        W36310  13.027   2.894   1.344  0.0306 -0.0089  0.1770
16777W        W36311  12.986  13.927   1.668 -0.2263 -0.2385 -0.0107
16778W        W36312  12.009   2.293   4.214 -0.4823 -0.1114  0.2495
16779W        W36313   9.477  10.326  14.823  0.0928 -0.0216 -0.1094
16780W        W36314   6.807   0.778  15.432  0.0514  0.0630 -0.1001
16781W        W36315   9.279  12.998  15.623  0.3261  0.0092  0.0843
16782W        W36316  16.346   1.140   0.804  0.2560  0.0149  0.0116
16783W        W36317  15.493   4.778   5.747  0.2439  0.3544 -0.0493
16784W        W36318  15.444  11.772  13.113  0.1033  0.1209  0.0894
16785W        W36319   7.479  16.020  13.484  0.4506  0.2212 -0.2364
16786W        W36320  14.570   4.916   2.334 -0.0299  0.1018 -0.2078
16787W        W36321  11.657  13.864   2.415  0.2881  0.0832  0.0331
16788W        W36322   6.449  16.359  13.715  0.0813  0.0920  0.2398
16789W        W36323   5.737  15.222   2.343  0.1188  0.0439  0.3417
16790W        W36324   1.935  15.362   3.167  0.1156 -0.0927  0.0261
16791W        W36325   1.961  14.227  15.007 -0.1633  0.2424  0.1741
16792W        W36326   0.779  15.345   3.333 -0.0423  0.0200 -0.0931
16793W        W36327   1.610  13.617   4.379 -0.3296 -0.1215  0.0852
16794W        W36328  18.085   2.517  11.047  0.0262 -0.1272 -0.0282
16795W        W36329  13.737  10.223   1.802 -0.0559  0.1421 -0.1327
16796W        W36330   7.357  15.407  15.341  0.0524 -0.3419 -0.3163
16797W        W36331  12.020   5.489   3.516  0.1285  0.0657 -0.1318
16798W        W36332  10.511   0.201  11.777  0.0842 -0.3187  0.1303
16799W        W36333  11.102   8.163   4.088 -0.1498 -0.0509 -0.2579
16800W        W36334   1.879  14.617  14.026 -0.1811 -0.0364  0.3187
16801W        W36335   9.904  16.186   2.033 -0.3383 -0.0207  0.0686
16802W        W36336   8.264  13.307   2.715 -0.0341 -0.1347 -0.2451
16803W        W36337   9.763   9.727   1.808 -0.0815 -0.2663  0.0822
16804W        W36338   4.857  10.317  11.608 -0.1303  0.0679  0.2091
16805W        W36339   1.067   4.384   1.766 -0.3106 -0.2226 -0.0282
16806W        W36340  13.394  15.295   1.776 -0.0474 -0.0015 -0.0727
16807W        W36341   0.931   0.292   3.199  0.1169 -0.1620  0.1206
16808W        W36342  14.415  13.866   1.872  0.0762 -0.0138 -0.1239
16809W        W36343  12.614   6.186   3.290  0.0077  0.2711  0.1889
16810W        W36344  16.007  16.153   3.488 -0.0893  0.1034  0.0792
16811W        W36345  17.002  13.455  15.592  0.0901  0.0613  0.2073
16812W        W36346  12.815   4.164  15.577  0.1081 -0.1307 -0.2443
16813W        W36347  14.150   2.923   4.815  0.1648  0.0445 -0.2162
16814W        W36348   7.170   9.212  11.898  0.2559 -0.1788  0.0810
16815W        W36349   1.869   7.333   0.071  0.0068  0.2541 -0.2794
16816W        W36350   0.371   0.420  12.575 -0.1118 -0.3173 -0.0758
16817W        W36351  12.287   0.104   2.359 -0.2753 -0.0604 -0.2265
16818W        W36352   8.456  14.316  14.954  0.2412 -0.2007  0.1824
16819W        W36353   2.081   7.806   4.879 -0.1408 -0.0810  0.0509
16820W        W36354  15.691  12.908   3.055 -0.2674 -0.3128 -0.0710
16821W        W36355  11.532   2.307   3.337 -0.1040  0.0756  0.1716
16822W        W36356   7.894  13.779   3.198  0.2411  0.2789 -0.3140
16823W        W36357  14.395   0.995  12.105  0.1471  0.2931  0.0255
16824W        W36358   6.087  12.365   1.102 -0.0678 -0.1209 -0.2529
16825W        W36359   2.897   3.968   3.408  0.1517  0.0244 -0.0496
16826W        W36360  10.213   7.085   2.585 -0.1366  0.1723 -0.0549
16827W        W36361   4.352  11.825  13.396 -0.0247 -0.0754 -0.0518
16828W        W36362   2.307   2.793   4.091 -0.1274 -0.0067  0.2159
16829W        W36363  15.852   0.357  15.811 -0.0771 -0.0436  0.0248
16830W        W36364   1.218  11.870   1.790 -0.3695  0.2347 -0.0002
16831W        W36365   2.435   3.072   4.506 -0.0200  0.1618 -0.5016
16832W        W36366  17.708  16.113   2.123 -0.2145  0.2205 -0.1032
16833W        W36367   5.753  10.516  11.262  0.0144 -0.3083 -0.0289
16834W        W36368   7.742  16.301  11.638 -0.3270 -0.1007  0.0776
16835W        W36369   2.795  17.702  12.253 -0.0420 -0.1235  0.2484
16836W        W36370   1.834   5.530  14.931 -0.0391  0.2788 -0.1882
16837W        W36371   8.365   8.273  13.966  0.2146  0.2701  0.0867
16838W        W36372   0.759   5.037  11.729  0.1086 -0.4906  0.0409
16839W        W36373   8.172  10.005   2.123  0.5052  0.0430 -0.1063
16840W        W36374  12.086   1.179  14.724 -0.1754  0.1040 -0.0899
16841W        W36375   9.760   4.199   3.815 -0.0706 -0.1001  0.0602
16842W        W36376   5.680   9.675   4.327 -0.0550  0.2222 -0.1104
16843W        W36377   8.301   9.278   1.493  0.0428  0.1548 -0.0304
16844W        W36378  13.817  12.427   3.983 -0.0763  0.0307  0.0017
16845W        W36379   4.860   1.570   1.467  0.0392  0.0591 -0.1346
16846W        W36380   0.549   3.641  12.193 -0.0090 -0.2883 -0.1224
16847W        W36381  12.435  18.101  15.250 -0.0137 -0.4019 -0.1281
16848W        W36382   0.228  15.038  13.001 -0.1869  0.2342 -0.0068
16849W        W36383   5.469  15.559   0.740 -0.0492 -0.1030  0.1801
16850W        W36384   1.047  16.587  13.353  0.0959 -0.1822 -0.1492
16851W        W36385  12.404   4.339   0.256 -0.3352  0.0426  0.0502
16852W        W36386   8.523   4.069   0.798 -0.1886  0.1692 -0.1904
16853W        W36387  10.155   0.727   2.314 -0.1115  0.0122 -0.0744
16854W        W36388  15.902   5.629   3.134  0.3106  0.0795  0.1189
16855W        W36389  16.135   6.081   1.393 -0.1468  0.1927  0.1225
16856W        W36390   7.508   7.806  14.231 -0.0164 -0.1285 -0.1159
16857W        W36391   1.385   6.492  15.533  0.0617 -0.0623 -0.0345
16858W        W36392  10.590   7.550  14.615  0.2215  0.0522  0.2674
16859W        W36393  18.125  16.896  15.936 -0.2862  0.0003  0.1697
16860W        W36394  11.679   6.588  15.584  0.0620 -0.3169 -0.1741
16861W        W36395   2.615  16.563   1.219 -0.1449  0.1627 -0.0719
16862W        W36396   0.411  11.851   0.859 -0.1110  0.1162  0.1826
16863W        W36397  14.655   1.146  15.599  0.3350 -0.0133 -0.0901
16864W        W36398  17.645  15.926  12.356  0.1277 -0.2526  0.1539
16865W        W36399  16.104   0.479  11.653 -0.2353 -0.3104  0.1280
16866W        W36400   3.198  12.908  11.691 -0.0444 -0.1564 -0.0971
16867W        W36401  16.325  13.902   1.836  0.2849  0.1584  0.0519
16868W        W36402   0.676   7.805   1.516 -0.0928  0.0200 -0.1234
16869W        W36403   6.003   8.598   2.620 -0.2697 -0.0473 -0.2389
16870W        W36404  17.152   1.133   2.027  0.3526 -0.1437  0.0924
16871W        W36405  18.030   7.311  13.607  0.2341  0.2825  0.0408
16872W        W36406  17.925   7.303  12.437 -0.0109 -0.3529 -0.1110
16873W        W36407   0.259   6.018  15.324 -0.2743 -0.0909 -0.0348
16874W        W36408  10.453   9.234  14.347  0.1553  0.1293  0.3172
16875W        W36409   7.642   6.890   1.287 -0.0920 -0.3368  0.3024
16876W        W36410   3.715   2.025   1.663  0.0862 -0.2640 -0.1395
16877W        W36411   1.958   3.953   0.668 -0.3033  0.0182 -0.2466
16878W        W36412   2.666   8.289   1.987  0.2437 -0.0495 -0.0288
16879W        W36413  15.967   3.008   0.100 -0.3224 -0.0468  0.0056
16880W        W36414  12.062  14.498  12.991  0.1481  0.0827  0.1437
16881W        W36415   0.817  15.716  14.012  0.0908 -0.2199  0.3063
16882W        W36416  14.113   2.417  13.505 -0.1455  0.0149 -0.0604
16883W        W36417  11.335  12.409   4.810  0.0557  0.2778  0.0043
16884W        W36418   8.468   2.138   0.277  0.0057 -0.2008  0.1308
16885W        W36419   2.013  10.322  11.388 -0.0807 -0.0254  0.0339
16886W        W36420   2.707  13.646  11.880 -0.0488 -0.1883  0.1169
16887W        W36421   0.234  15.624  11.336 -0.3473  0.0793 -0.3055
16888W        W36422   0.210  12.342   2.822 -0.1529 -0.0755 -0.0742
16889W        W36423   9.311   4.917   3.491  0.1798 -0.1102 -0.0338
16890W        W36424  13.081   4.317  14.093 -0.0051  0.3457  0.1504
16891W        W36425   8.513  17.316  14.141  0.1048 -0.0007 -0.0380
16892W        W36426   5.459   0.893  15.328 -0.1197 -0.2129 -0.2888
16893W        W36427   5.592   9.165   0.840  0.1421 -0.1071 -0.0714
16894W        W36428   9.541   2.942   3.346 -0.0171 -0.0867 -0.1187
16895W        W36429   0.767   3.203  12.978  0.5101 -0.0204 -0.0578
16896W        W36430   4.148   3.061   1.084  0.2344 -0.0570 -0.0842
16897W        W36431  14.889  11.837  14.357 -0.0069  0.0539  0.3670
16898W        W36432   3.436  17.931   3.416  0.3007 -0.0958 -0.3024
16899W        W36433  12.376   2.642   4.200  0.2932  0.3598 -0.0115
16900W        W36434   6.647  17.799   0.801 -0.0017  0.2024  0.2286
16901W        W36435   0.631   5.288   4.214  0.0471  0.2187  0.1095
16902W        W36436   2.217   0.050  14.414  0.1087  0.0117  0.0742
16903W        W36437   1.200   3.541   1.592 -0.0291 -0.4364  0.3432
16904W        W36438  17.411  12.367  12.589 -0.0253  0.2908 -0.0918
16905W        W36439   6.946   5.307   0.127  0.0766  0.1573  0.2803
16906W        W36440   1.920   0.776  11.889  0.0281  0.3155 -0.1992
16907W        W36441  11.927  12.988  13.290 -0.0672  0.2054  0.1065
16908W        W36442  17.860   3.854  14.473  0.0856  0.1937  0.0663
16909W        W36443   3.454  17.407   1.838  0.0823 -0.0675  0.1285
16910W        W36444  17.388  16.668  14.287  0.0747 -0.2273  0.0521
16911W        W36445   6.387   7.893   0.501  0.3559  0.3222  0.0387
16912W        W36446   4.477  15.550  14.030  0.1633  0.0126  0.0342
16913W        W36447  11.487   6.034   4.738 -0.0591  0.2572  0.3184
16914W        W36448  12.774   1.659   3.988 -0.1522 -0.0721  0.1900
16915W        W36449  14.034   3.145   2.498  0.1193  0.2637  0.0075
16916W        W36450   4.579   6.548   1.292  0.2674  0.2170 -0.6418
16917W        W36451  15.685   6.798   1.802 -0.0254 -0.2104  0.3533
16918W        W36452  10.572   1.117  12.728 -0.0146  0.1341  0.0530
16919W        W36453   6.465   8.903   5.281  0.2717 -0.0192 -0.1455
16920W        W36454   9.270  14.810   2.935 -0.1816  0.1405 -0.4211
16921W        W36455   7.471   3.840  15.211 -0.1081 -0.0070  0.2032
16922W        W36456  12.884   8.594   3.540 -0.1111  0.1621  0.0101
16923W        W36457  11.433   3.014   2.241 -0.3129 -0.0969  0.4657
16924W        W36458  15.071   5.113  13.990 -0.0253  0.3973 -0.0487
16925W        W36459   1.269   8.211  11.562 -0.3226  0.0519  0.0667
16926W        W36460  12.782  12.164  15.100 -0.1099  0.5018 -0.1431
16927W        W36461  14.258   3.645   0.143  0.3307 -0.0595  0.0182
16928W        W36462  15.475  13.538   3.400 -0.1851 -0.1296  0.0233
16929W        W36463   9.550   9.534   2.563  0.0297 -0.2633  0.0322
16930W        W36464  16.519   7.521  12.052 -0.0524 -0.1117 -0.0970
16931W        W36465   5.333  18.090   2.033  0.0755 -0.1689  0.0734
16932W        W36466  11.328   9.291   2.606  0.0037 -0.2582 -0.2851
16933W        W36467   2.184   6.664   0.781  0.1793  0.0727 -0.1606
16934W        W36468   2.802   2.997  11.709 -0.0251  0.1613  0.1534
16935W        W36469  17.950   0.208  12.441  0.0617  0.0491 -0.1061
16936W        W36470   3.272  15.490  15.398  0.0906  0.4541 -0.0482
16937W        W36471   1.205   9.764  11.489 -0.1094  0.2711  0.1301
16938W        W36472  11.199   5.339   4.317  0.2560 -0.0951  0.3656
16939W        W36473  17.915   4.775  12.457  0.1884  0.2257  0.0735
16940W        W36474  14.654  16.839  14.353  0.0741  0.0223 -0.1552
16941W        W36475  16.107  16.218  14.515 -0.1612 -0.0978 -0.1926
16942W        W36476   2.255  17.013   0.555 -0.1072  0.1743 -0.1304
16943W        W36477   8.052   2.890   2.380 -0.0338 -0.2306  0.1981
16944W        W36478   1.391  13.041   4.448  0.0380  0.3391  0.2986
16945W        W36479  10.412  10.981  13.658  0.2539 -0.1849 -0.2052
16946W        W36480  12.107  13.673   5.715 -0.2075  0.2208 -0.1770
16947W        W36481   5.836   3.149  10.835  0.0791  0.1124 -0.0051
16948W        W36482  10.533  17.903   2.740  0.0772 -0.1003 -0.0487
16949W        W36483   6.748   6.982  14.496  0.1736 -0.0528 -0.0206
16950W        W36484  16.201   1.843  12.818 -0.3858 -0.2355 -0.1705
16951W        W36485   1.098  11.488  11.633 -0.0557  0.0619 -0.1266
16952W        W36486   6.651  18.108   3.339 -0.2856 -0.1392  0.2256
16953W        W36487   9.344  17.029  13.828  0.3006  0.1257  0.1272
16954W        W36488   5.202   5.458  15.245 -0.3147  0.1163  0.1466
16955W        W36489   0.416   6.098  12.477 -0.2562 -0.1035 -0.2128
16956W        W36490   1.598  15.042  13.259  0.0756 -0.0070 -0.1708
16957W        W36491   4.122   6.415  11.920  0.0423 -0.1961  0.1180
16958W        W36492  14.805   2.843   1.337  0.1590  0.0836 -0.1473
16959W        W36493   7.440   4.206  14.301 -0.3009 -0.2219  0.4199
16960W        W36494  11.011  10.665   3.703 -0.0529  0.0878 -0.3411
16961W        W36495   5.791   3.525   2.460 -0.1261 -0.1991 -0.1066
16962W        W36496   4.380   9.422   0.095 -0.3180 -0.1992 -0.2409
16963W        W36497   9.338   5.503   0.138  0.1191 -0.0160  0.1699
16964W        W36498   3.494  16.112   4.226 -0.1140 -0.2510  0.2942
16965W        W36499   8.786   0.770   5.002 -0.0809  0.1070 -0.0822
16966W        W36500   6.377   9.243   2.233  0.1924  0.1915 -0.2436
16967W        W36501   1.476   0.912  13.200  0.1025  0.3630 -0.0771
16968W        W36502  15.871   8.824  15.707  0.1558  0.0251 -0.1950
16969W        W36503   5.225  10.333  12.471  0.1556  0.2103  0.2568
16970W        W36504   1.368  14.222   1.031 -0.2487  0.3231 -0.5167
16971W        W36505  16.521  11.045  15.214  0.1750  0.0515  0.3002
16972W        W36506  16.233  13.236   1.075 -0.0643 -0.2082  0.0689
16973W        W36507   6.984   1.639   3.466  0.0501  0.4947 -0.1143
16974W        W36508   8.987  15.944  11.875 -0.2512  0.1596 -0.1069
16975W        W36509  16.709  10.496  13.304  0.0680 -0.0484  0.1076
16976W        W36510  15.985   6.598   1.450 -0.0915  0.1179  0.1364
16977W        W36511   1.152   7.400  11.500  0.0510  0.0590 -0.0768
16978W        W36512   7.247   5.531  14.190 -0.1262  0.2461 -0.0765
16979W        W36513  12.330  15.364  12.252  0.1214  0.1861 -0.0548
16980W        W36514  17.753   1.918  11.555 -0.1400  0.3700 -0.3745
16981W        W36515  14.495  15.111  14.362  0.1191 -0.3308  0.0179
16982W        W36516   3.771  11.214  12.028 -0.4861  0.1053  0.0605
16983W        W36517   7.633   9.045  13.970  0.0530  0.1989  0.1945
16984W        W36518   9.362  11.693  15.077 -0.1752 -0.1304 -0.1000
16985W        W36519   1.916   1.469  15.447 -0.2461 -0.1385 -0.1467
16986W        W36520  14.656  13.887   0.472  0.0584  0.1981 -0.2546
16987W        W36521   3.691  16.406  14.102 -0.2551  0.0878 -0.0011
16988W        W36522  10.561  14.008  11.886 -0.1004 -0.1087  0.0818
16989W        W36523   7.424  17.342  13.409  0.5152  0.0365 -0.0053
16990W        W36524  12.360   8.271  15.261  0.2325 -0.2052 -0.2906
16991W        W36525   4.015  12.848   2.146  0.0913 -0.1679 -0.0171
16992W        W36526  13.076  14.043  13.945 -0.2576  0.0585  0.3594
16993W        W36527   0.950   2.442   4.885 -0.1076 -0.2109  0.1162
16994W        W36528  11.157  15.300   4.175 -0.0272  0.0475 -0.2486
16995W        W36529  18.112   1.679  13.378 -0.0852 -0.1242 -0.0614
16996W        W36530   1.489   8.122  12.022 -0.2153 -0.2516  0.1389
16997W        W36531  15.505   5.719   2.775 -0.0622  0.2830  0.2136
16998W        W36532   5.205  18.130  12.246  0.2138  0.0955 -0.0091
16999W        W36533  11.892   5.863  13.742  0.2510  0.0682 -0.0513
17000W        W36534   6.590  10.696   2.179  0.0319 -0.1838  0.0766
17001W        W36535   0.467   9.446   3.917 -0.2263  0.0974 -0.0483
17002W        W36536   0.452   7.121  14.329  0.3503  0.0402 -0.1828
17003W        W36537   1.541   4.198  15.339 -0.3491  0.1201 -0.2711
17004W        W36538   4.732   6.707  15.194 -0.0276  0.0134  0.0631
17005W        W36539  17.194   8.186  14.309  0.3352 -0.1167  0.3008
17006W        W36540   4.804   0.430   0.792 -0.0776  0.0526 -0.1047
17007W        W36541  14.797  16.434  14.731  0.1998 -0.0766 -0.0212
17008W        W36542  12.744   5.501  12.736  0.0821 -0.0320 -0.0172
17009W        W36543   8.056  11.032  15.221  0.1622  0.2364 -0.0433
17010W        W36544   8.303   7.357   0.359 -0.2078 -0.0590  0.0235
17011W        W36545   1.701   2.593   1.215 -0.0366 -0.0695 -0.0788
17012W        W36546  17.129  14.922   5.316 -0.3240  0.0773 -0.1628
17013W        W36547  16.023   0.932  13.981  0.1387  0.0696 -0.2141
17014W        W36548   3.336   8.624   3.881  0.1780  0.0977 -0.0004
17015W        W36549  17.832  13.846  15.040 -0.1105  0.0728  0.2043
17016W        W36550   6.849  10.341  15.053  0.1637  0.1687 -0.0913
17017W        W36551  14.966  14.298  12.896 -0.0359  0.1379 -0.0693
17018W        W36552   9.812   4.778   3.312 -0.0298  0.0810  0.0543
17019W        W36553  10.512  15.863   3.033 -0.0890  0.1452 -0.2849
17020W        W36554   2.139  16.475   2.470 -0.1775  0.1847  0.1932
17021W        W36555   5.196  15.603   3.031 -0.0771 -0.0992  0.0557
17022W        W36556   7.625   9.586   0.120 -0.0203  0.0131  0.1340
17023W        W36557   9.330  14.277   0.871  0.1282 -0.0428 -0.3183
17024W        W36558   1.376   9.117   2.857 -0.0668 -0.2894 -0.0245
17025W        W36559   5.726  17.326   0.511 -0.1771  0.1984 -0.1022
17026W        W36560  12.200   8.319   2.507 -0.1019  0.4663 -0.0561
17027W        W36561  12.789   5.537  12.239  0.1961 -0.3143  0.0098
17028W        W36562  17.512   3.073   2.912 -0.0224  0.0634 -0.0694
17029W        W36563  14.315  14.300  13.195 -0.1241  0.1633  0.1155
17030W        W36564  15.728   6.290  12.065  0.3105 -0.0334 -0.1089
17031W        W36565   7.037   5.539  15.179  0.0947 -0.0044 -0.2651
17032W        W36566  15.908   7.271   2.929 -0.0487  0.1160  0.0690
17033W        W36567  13.254  11.814   0.401  0.1258  0.0041 -0.0519
17034W        W36568  13.378  15.653  15.319 -0.3895 -0.1055  0.1302
17035W        W36569  13.469  10.681   4.422 -0.2061 -0.1683  0.2480
17036W        W36570   4.348  16.425   4.439  0.0830  0.1345 -0.0148
17037W        W36571  17.353  10.424   2.707  0.0994  0.0597 -0.0233
17038W        W36572  14.430  14.340   1.854 -0.1572 -0.0896  0.1536
17039W        W36573   3.553  14.656  13.220 -0.1285  0.1387  0.3435
17040W        W36574   2.276  13.114   2.660 -0.1577 -0.0362  0.6034
17041W        W36575   1.085  14.695   0.567 -0.2707 -0.1921 -0.0198
17042W        W36576   9.088   7.099   1.392 -0.2208  0.0386 -0.0844
17043W        W36577  10.996   1.318   0.235  0.2455 -0.1662  0.1995
17044W        W36578   2.815   7.194   1.816  0.2007 -0.0717  0.2237
17045W        W36579  16.746  17.897  13.382 -0.4734 -0.0829  0.0226
17046W        W36580  11.548   2.220   1.332 -0.2199  0.1432  0.3656
17047W        W36581  15.544  12.363  15.711 -0.1138 -0.0217  0.1564
17048W        W36582  11.643   4.806   1.166  0.0613 -0.0443 -0.0159
17049W        W36583  11.720   5.951   3.448 -0.0615  0.0923 -0.0445
17050W        W36584  13.394   0.296  14.640 -0.1585  0.0748  0.1801
17051W        W36585   3.211   9.883   3.797 -0.1144 -0.0586  0.0891
17052W        W36586  16.576  11.571   2.417 -0.4703 -0.0870 -0.1604
17053W        W36587   1.763  16.849  14.030 -0.4064 -0.1673  0.1353
17054W        W36588   4.032  12.061  15.995 -0.3644  0.1670  0.1718
17055W        W36589   2.883   3.159  11.241 -0.0144  0.5174 -0.0644
17056W        W36590  12.034  12.724  15.117 -0.2228  0.1476 -0.2712
17057W        W36591   4.489  16.472   1.639  0.0815  0.1369  0.0384
17058W        W36592  16.179   2.554  14.829  0.1999 -0.0452  0.1412
17059W        W36593  11.620  16.044   1.273 -0.1597  0.1755  0.1002
17060W        W36594  17.631   4.833  15.167 -0.0219 -0.1546  0.5617
17061W        W36595   2.771   8.598   3.505 -0.0512 -0.1207 -0.4167
17062W        W36596  16.149   6.901  14.530 -0.1596 -0.2245  0.0748
17063W        W36597   7.295  11.574   2.364  0.2965 -0.0780  0.0712
17064W        W36598   3.676   1.775   5.419 -0.0263 -0.1065  0.0983
17065W        W36599  15.494   2.666  11.797 -0.1024 -0.0462  0.0378
17066W        W36600   3.755   9.491   1.369 -0.0251  0.3597 -0.0994
17067W        W36601   9.371  14.999  16.010  0.0349  0.0517  0.0902
17068W        W36602   1.753  13.494   5.218 -0.0658 -0.0764  0.1219
17069W        W36603   4.470  13.314  15.537  0.0065 -0.0393 -0.1227
17070W        W36604   1.216  15.554  15.766 -0.0933 -0.0862  0.1900
17071W        W36605   3.395  11.872   0.810 -0.1656  0.0936 -0.0207
17072W        W36606  14.125  15.952   1.253  0.0013  0.1485  0.3719
17073W        W36607  16.963   0.364   1.161 -0.3215  0.0828 -0.1237
17074W        W36608   7.529  16.707   3.484 -0.0387  0.2025 -0.2179
17075W        W36609   0.756  17.626   4.091 -0.2652 -0.0284 -0.1052
17076W        W36610   9.920  10.007   4.766  0.1968  0.0866  0.0480
17077W        W36611   7.423   0.803   1.049 -0.2616 -0.2656 -0.0622
17078W        W36612  14.220   2.647   2.723 -0.0614  0.0622  0.1142
17079W        W36613  15.176   4.568   4.345  0.2341  0.2173 -0.0029
17080W        W36614   6.979  16.180  10.966 -0.0667 -0.2229 -0.0028
17081W        W36615   5.198   9.481   0.366  0.1114  0.1156 -0.0859
17082W        W36616  13.537   1.634  13.750 -0.1377 -0.1209  0.0677
17083W        W36617  13.973   3.685   2.105 -0.3020  0.1456 -0.2987
17084W        W36618   2.259  12.386   2.620 -0.3242  0.1666  0.2825
17085W        W36619  16.602  17.381   1.612 -0.1188 -0.0940  0.0650
17086W        W36620   1.454  10.671   0.290 -0.2401 -0.0652 -0.1695
17087W        W36621   0.512   2.473  11.819 -0.3145  0.1703  0.0014
17088W        W36622  11.785  13.081  10.102 -0.0971 -0.2498 -0.1637
17089W        W36623   4.248   6.559  14.197 -0.3031 -0.4401 -0.1998
17090W        W36624  12.090  11.447   3.514 -0.1361 -0.0194 -0.0678
17091W        W36625   8.446   8.737  15.619 -0.0440 -0.1769 -0.0833
17092W        W36626  10.925  15.068   3.105 -0.1331  0.0504  0.1975
17093W        W36627   5.249   8.503  13.572  0.0169 -0.1453  0.0483
17094W        W36628  15.797  14.978   1.200 -0.0307 -0.3040 -0.0266
17095W        W36629  17.358  15.843   2.444  0.0957 -0.1886  0.1194
17096W        W36630   9.521   1.145   3.686  0.0221 -0.2372  0.1682
17097W        W36631   8.462  12.890   0.613 -0.4235 -0.0696  0.1689
17098W        W36632  15.826   0.896  13.239  0.1542 -0.2261  0.3057
17099W        W36633   2.511  16.538  11.817  0.1750  0.1953 -0.0233
17100W        W36634  15.099  15.713   2.901 -0.0590 -0.0511  0.0753
17101W        W36635   1.337   4.787  11.409  0.0312  0.0512 -0.2627
17102W        W36636   5.454   7.518   1.103  0.1394 -0.2705 -0.0614
17103W        W36637   9.972   2.968   2.251  0.0146 -0.1629  0.1072
17104W        W36638  14.720   2.692  13.413 -0.4239 -0.1059  0.0887
17105W        W36639   8.164   6.218  13.497  0.4251 -0.0671 -0.0395
17106W        W36640   2.050   9.974   2.755 -0.2407  0.1097 -0.1829
17107W        W36641   1.256   7.269  12.573  0.2328 -0.0808  0.2370
17108W        W36642   2.112  17.448  14.624  0.0446 -0.0442  0.0544
17109W        W36643  14.048  15.618  13.702  0.1657 -0.2866 -0.0572
17110W        W36644  15.851   4.568   1.480 -0.0211  0.0209  0.1486
17111W        W36645  15.168   4.790  12.004 -0.2159 -0.0407 -0.1455
17112W        W36646   3.218  11.609  12.171 -0.0696 -0.2990  0.2283
17113W        W36647   7.545  16.871  13.366  0.2251 -0.0966  0.0899
17114W        W36648  18.015  12.213  12.116 -0.0211  0.1463  0.0944
17115W        W36649  16.703   3.173  14.243 -0.0499  0.0989  0.2500
17116W        W36650  17.189  17.080   4.627 -0.1698 -0.1676  0.3548
17117W        W36651  12.028   4.303  16.016  0.4159 -0.0893  0.2319
17118W        W36652   6.842  13.642   2.151 -0.0068 -0.0932 -0.1486
17119W        W36653   5.307   7.167   1.544  0.2064  0.2089 -0.2936
17120W        W36654   0.584   7.064  15.650 -0.1409  0.1685 -0.1673
17121W        W36655  10.434  15.886   4.257  0.1328 -0.1963  0.0989
17122W        W36656  15.396   0.899  14.600 -0.0144  0.0713 -0.2349
17123W        W36657  15.514   3.101   4.702 -0.3056 -0.0390 -0.0847
17124W        W36658   0.147   4.253  10.328 -0.0307  0.2683  0.0815
17125W        W36659   9.594   7.070   2.078 -0.0080  0.0360  0.1341
17126W        W36660  13.727   8.918  11.976  0.0093  0.0320 -0.2277
17127W        W36661   2.254   3.891  12.243  0.2642  0.1447  0.0622
17128W        W36662   6.939  12.004   4.464  0.1332 -0.0677 -0.0108
17129W        W36663  13.919   9.157  15.645  0.1978 -0.0014 -0.2961
17130W        W36664   9.371  13.139   0.713 -0.0117 -0.1542  0.0814
17131W        W36665   3.440   2.052   1.210 -0.2725 -0.0055 -0.0279
17132W        W36666  12.995   3.542   0.561  0.1078 -0.0454 -0.0221
17133W        W36667   7.368   8.491   3.480  0.3587 -0.2531  0.1360
17134W        W36668  11.030   2.675  12.637  0.0959 -0.1734  0.1190
17135W        W36669  13.166  15.042   2.612  0.1040  0.2479  0.1030
17136W        W36670  16.877   6.305   1.477 -0.0573 -0.1278 -0.0350
17137W        W36671   4.359   9.000  13.572 -0.1094  0.4140 -0.0164
17138W        W36672  13.062   0.023  14.978  0.2878  0.1743  0.0949
17139W        W36673   8.404  13.223   0.114 -0.3420  0.1783 -0.0267
17140W        W36674   2.155   0.655   1.961  0.0728 -0.0747 -0.0416
17141W        W36675   3.858   3.568  12.677 -0.2009 -0.1215 -0.3115
17142W        W36676  17.296  12.442  14.203  0.1032 -0.5085  0.0926
17143W        W36677   4.228  17.561  13.117  0.2216 -0.0624  0.0334
17144W        W36678   1.731   0.104  14.361  0.4106  0.2799 -0.2571
17145W        W36679  12.722   2.158  13.972  0.0586 -0.2448  0.0931
17146W        W36680   2.872  17.678  14.683 -0.1553 -0.0101 -0.0197
17147W        W36681  16.372   3.934   2.113  0.2401 -0.2639  0.1535
17148W        W36682   1.649  17.998   3.829  0.1132  0.3048 -0.0314
17149W        W36683   9.461  16.288  14.030 -0.2028 -0.0305 -0.1529
17150W        W36684  11.704   0.633   3.581 -0.1100  0.1433  0.1368
17151W        W36685   8.548  10.380   1.379 -0.1601  0.1601 -0.1732
17152W        W36686  14.505   6.636   0.838  0.2958  0.0630 -0.0143
17153W        W36687   4.358  14.607  15.943  0.0683  0.2397 -0.3190
17154W        W36688  13.889   3.193   3.384  0.0429  0.1277 -0.3044
17155W        W36689  14.391  10.681   0.685  0.1019 -0.1569 -0.0110
17156W        W36690  16.418  15.755   2.340  0.1020 -0.1671 -0.1018
17157W        W36691   7.158   5.026   2.456  0.2009 -0.2934 -0.0673
17158W        W36692   0.889  15.893   0.730  0.0982 -0.1033 -0.1292
17159W        W36693  16.946   9.107  15.058 -0.3396 -0.1094  0.0204
17160W        W36694   6.580  16.474   1.136  0.1256 -0.2808 -0.3309
17161W        W36695   0.056   0.816   3.222 -0.2607  0.0697  0.1024
17162W        W36696   2.550  15.125   0.013  0.0379  0.1186 -0.0433
17163W        W36697  12.678   1.892   1.215 -0.2513  0.2524  0.3164
17164W        W36698   9.675   2.998  11.985 -0.2259  0.0542 -0.0146
17165W        W36699   9.043  12.607  10.953  0.0839 -0.2523 -0.0499
17166W        W36700   2.765  11.066   2.631  0.0269 -0.4063  0.0124
17167W        W36701  12.858  17.016  11.463  0.2624  0.1213 -0.1191
17168W        W36702  13.773  17.377  13.505 -0.3457 -0.1648 -0.1982
17169W        W36703   0.095   3.232   4.932 -0.0186  0.0840 -0.1340
17170W        W36704  10.436   3.565   3.324  0.2909 -0.3133  0.0990
17171W        W36705  16.507   0.889  14.356 -0.1248  0.0123 -0.0496
17172W        W36706  16.104   7.588  13.909 -0.1066 -0.1186  0.0647
17173W        W36707  16.520  12.073   2.292 -0.0950  0.0611  0.0029
17174W        W36708   4.428  12.628  10.679 -0.2697 -0.1802 -0.1502
17175W        W36709   7.449   7.224  13.842  0.0315 -0.4799 -0.3210
17176W        W36710   7.139   7.860   3.825  0.2690  0.0794  0.2039
17177W        W36711   9.550   2.525  15.185 -0.1488 -0.0685  0.0578
17178W        W36712   4.300  17.101  10.253  0.0824  0.0116  0.0370
17179W        W36713   8.651   2.212  12.795  0.3251  0.2616 -0.0588
17180W        W36714  10.966  15.648  10.639  0.2652  0.2549  0.0338
17181W        W36715  15.682  16.594   3.674  0.0416  0.0569 -0.0554
17182W        W36716  17.596  14.314  14.430  0.2470  0.1338 -0.1344
17183W        W36717   3.772   7.259  14.596  0.0542  0.2604 -0.2773
17184W        W36718  14.542  11.201   1.995 -0.0968 -0.2065 -0.0059
17185W        W36719   6.266   5.470  12.212  0.0884 -0.1175 -0.3581
17186W        W36720   4.331  16.619  12.775 -0.0856  0.3234  0.2255
17187W        W36721   1.603   9.055  15.826 -0.0148 -0.5272 -0.3088
17188W        W36722   1.909   6.579  15.561 -0.0793  0.1556  0.2544
17189W        W36723  12.389  14.846   4.565  0.0221 -0.4296 -0.0755
17190W        W36724   4.902   3.580  13.318  0.1921  0.0711  0.1625
17191W        W36725   6.118  18.104   3.589  0.0983  0.2783 -0.3870
17192W        W36726   5.436   5.893   0.501 -0.0961 -0.3076 -0.1347
17193W        W36727   0.885   9.154  12.747  0.0497 -0.1865 -0.1921
17194W        W36728  10.838  12.860  13.652  0.0387 -0.3411  0.1154
17195W        W36729   2.388  14.550  14.865  0.0023 -0.4626 -0.4041
17196W        W36730  16.479   0.205  11.526 -0.2952 -0.2295  0.2163
17197W        W36731   3.426   7.190   4.435  0.0462  0.0183  0.3573
17198W        W36732  12.252   2.378   1.333  0.3142 -0.1940  0.0161
17199W        W36733   5.608   0.602  11.511  0.0619 -0.0677  0.0607
17200W        W36734   5.619   9.978  11.295  0.1174  0.0932 -0.1400
17201W        W36735  13.780  17.569  12.232 -0.0603 -0.0538  0.0521
17202W        W36736  11.954  16.524   0.442 -0.1177 -0.0984 -0.0680
17203W        W36737   4.883   7.761  13.905  0.3130  0.1686  0.4486
17204W        W36738   4.135  12.049   3.466 -0.0351  0.3383  0.1301
17205W        W36739   7.640   3.815   0.507 -0.1450  0.0592 -0.3058
17206W        W36740   8.520  10.948   1.156  0.1700 -0.0485  0.0398
17207W        W36741  10.468  17.474   1.836  0.0183  0.2231  0.0866
17208W        W36742   5.162   9.465   0.952  0.2689  0.0349  0.3836
17209W        W36743  11.192  10.519  15.565 -0.0408  0.2879 -0.3413
17210W        W36744   2.323   6.478  15.822  0.1619  0.0343  0.2634
17211W        W36745   6.365  17.480   1.133 -0.3586 -0.0424 -0.1988
17212W        W36746  11.259   2.861   2.684 -0.0861  0.0527  0.0993
17213W        W36747  15.365  12.646   0.048 -0.0140  0.3157  0.1739
17214W        W36748  16.477  10.208   2.383  0.3470 -0.1972  0.0193
17215W        W36749   2.414  11.952  12.224  0.2237  0.3355  0.0818
17216W        W36750   3.358  15.056  15.562 -0.0996  0.1522  0.1898
17217W        W36751   9.725   9.610   4.187  0.1866  0.0084 -0.1570
17218W        W36752  13.353   5.284  12.157 -0.0019  0.2619  0.0983
17219W        W36753   6.693  10.174  12.173  0.0959  0.1184  0.0350
17220W        W36754   2.352   9.490  15.608 -0.0986 -0.0646  0.2929
17221W        W36755   7.830   6.830   4.779 -0.1131 -0.1026 -0.0968
17222W        W36756  18.020   4.165   1.201 -0.3837  0.0232  0.1262
17223W        W36757  12.962   1.040   4.748  0.0453  0.1937  0.0788
17224W        W36758   4.492   6.269   0.326 -0.1885 -0.1385  0.1094
17225W        W36759   0.796   7.440   4.713 -0.1390  0.0391  0.1983
17226W        W36760   3.183  15.842  12.699  0.1418  0.1762 -0.0286
17227W        W36761  15.223   5.737  13.445  0.1392 -0.0908  0.1162
17228W        W36762  10.645   0.646  15.544 -0.2497  0.1367  0.4042
17229W        W36763  12.184  10.855   2.043 -0.4122 -0.1393  0.0490
17230W        W36764   9.099   6.315  13.687  0.0449  0.1296  0.3685
17231W        W36765   1.980   3.643  15.564 -0.0867  0.0014  0.1103
17232W        W36766   2.888   3.915   1.787  0.2109  0.3344  0.0670
17233W        W36767  11.473   4.923  13.879  0.1389  0.2091 -0.2385
17234W        W36768   0.561   9.611  13.215  0.0848 -0.1991 -0.0065
17235W        W36769  17.470   0.425   1.003 -0.0791  0.1680  0.0287
17236W        W36770   7.256  18.130  12.143  0.1145  0.4476  0.0424
17237W        W36771  10.609   1.410   0.600 -0.1803  0.2774  0.1224
17238W        W36772  10.031  14.048   4.398 -0.1761  0.0275 -0.1995
17239W        W36773   9.642  11.317   2.601 -0.0186  0.0918  0.3784
17240W        W36774  12.315   0.940  13.759 -0.0815 -0.2166  0.0079
17241W        W36775  16.252  14.411  14.363 -0.0777 -0.1641 -0.1271
17242W        W36776  12.089   1.643  14.444  0.0658 -0.2040 -0.2629
17243W        W36777  13.072   1.188  12.751 -0.1337 -0.1473 -0.1868
17244W        W36778   3.866   3.428   4.360 -0.0553 -0.0397 -0.1833
17245W        W36779   2.364   4.566   1.433  0.1168 -0.3878  0.0928
17246W        W36780  16.579   9.631  12.866 -0.3159  0.3332 -0.2330
17247W        W36781   6.852   6.437  12.609  0.0408 -0.3251  0.2521
17248W        W36782   5.962   4.575   2.086  0.4377  0.1432 -0.1039
17249W        W36783  18.124  10.035   1.085  0.1384  0.1973  0.0320
17250W        W36784   2.198   3.019  11.719 -0.1950 -0.1398 -0.1819
17251W        W36785  13.266  15.603  14.204  0.0451  0.1306  0.0486
17252W        W36786  13.207   9.935  12.124 -0.2220  0.0501  0.3035
17253W        W36787   0.732   4.929   0.915  0.0445  0.0502 -0.1296
17254W        W36788   2.630  11.262   3.848  0.2362  0.4313  0.3251
17255W        W36789  13.412   5.296   4.520 -0.3377 -0.0039  0.2489
17256W        W36790   6.679  11.525   4.244 -0.0237 -0.0988  0.0225
17257W        W36791   5.927   1.653   4.085  0.1803  0.1014  0.0069
17258W        W36792   4.020   6.391  15.034  0.0383 -0.1409 -0.2451
17259W        W36793  14.683   3.054  12.884  0.0754  0.2362 -0.2659
17260W        W36794   1.753  10.710  11.714  0.1057  0.3695  0.2285
17261W        W36795  14.675   1.962   1.871  0.0051  0.1725 -0.2200
17262W        W36796   6.799   7.645  13.627 -0.0677 -0.2464  0.0159
17263W        W36797   1.335   0.418  15.159  0.0809 -0.3323 -0.0246
17264W        W36798  10.497   2.763   3.194 -0.0073 -0.2212  0.0744
17265W        W36799  13.240   3.245   3.989  0.0674  0.3190 -0.3017
17266W        W36800  11.356   3.575  12.819  0.3896  0.1715 -0.0951
17267W        W36801   8.247  17.407   1.418 -0.1884  0.1743 -0.0176
17268W        W36802   9.768  18.162  12.874  0.0052 -0.0836  0.0164
17269W        W36803   8.844  16.467  14.465  0.0127  0.0756 -0.0468
17270W        W36804   3.389   8.202   4.156 -0.3930 -0.0828  0.3134
17271W        W36805  14.570  17.883  14.079 -0.3122 -0.1208  0.0815
17272W        W36806   9.221   1.906   1.579 -0.0051 -0.0306 -0.1421
17273W        W36807  15.970   1.669   1.541  0.4099 -0.2031  0.0004
17274W        W36808   2.252  15.498  13.979 -0.0245 -0.0211  0.0016
17275W        W36809   2.988   4.227  15.025  0.1683  0.0706  0.0214
17276W        W36810   1.210  11.061   4.438  0.0994 -0.1527 -0.1826
17277W        W36811   2.510   9.189   4.217 -0.3496 -0.2030 -0.0218
17278W        W36812  17.250  10.796  12.188  0.1168 -0.1339 -0.0783
17279W        W36813  18.032  10.551   3.893 -0.1739  0.0886  0.0774
17280W        W36814  17.022  10.065  15.607  0.2857 -0.3054  0.1833
17281W        W36815  17.326   3.726  11.146 -0.0409  0.2108 -0.0653
17282W        W36816  17.159   9.137  15.510  0.0401  0.0369 -0.1759
17283W        W36817   7.960  11.742  11.688  0.0113  0.1414 -0.0319
17284W        W36818  17.381   4.026   1.841 -0.3490 -0.1846  0.2430
17285W        W36819   5.421   3.667  13.413 -0.0059 -0.0654 -0.2504
17286W        W36820  10.641   2.165   4.523 -0.5049 -0.1806  0.0389
17287W        W36821  12.487  16.357  15.860  0.2145 -0.1404  0.1608
17288W        W36822  10.849   3.918  14.607 -0.0558 -0.0076  0.0380
17289W        W36823  13.586  15.216  12.340 -0.1805 -0.2518 -0.1765
17290W        W36824   4.952  18.144  15.693 -0.3431 -0.0431 -0.0309
17291W        W36825   0.312  10.549   5.730 -0.4171  0.0473 -0.1915
17292W        W36826   2.742  15.192   3.559  0.0850 -0.1054  0.1413
17293W        W36827  16.751   9.714   4.235  0.0106  0.0406  0.1671
17294W        W36828   2.147  10.359   2.344 -0.0368 -0.1028 -0.2274
17295W        W36829  16.186  12.382   4.694  0.1551  0.0818  0.1502
17296W        W36830  14.621  11.027   1.553  0.0892 -0.0133 -0.2262
17297W        W36831   7.286  16.015   2.853  0.2417 -0.0705 -0.2107
17298W        W36832  17.786   6.571   3.915 -0.1460 -0.0317  0.0737
17299W        W36833  16.898   3.331  12.575 -0.2373  0.1587  0.0532
17300W        W36834   8.771   7.849   0.203 -0.4351  0.0785 -0.0239
17301W        W36835   0.092   6.091   1.000  0.0621  0.1557 -0.2072
17302W        W36836  14.529  17.586  15.457  0.0446 -0.0194 -0.1416
17303W        W36837   5.608  14.466  12.453  0.1615 -0.0169  0.3005
17304W        W36838   8.167  13.544  11.207  0.1894  0.0145 -0.0525
17305W        W36839  13.821   1.085  13.176  0.2456  0.0622 -0.3849
17306W        W36840   4.963  11.932  14.798  0.1292  0.1772  0.0079
17307W        W36841  11.299  14.638   1.385  0.1265 -0.1440 -0.2734
17308W        W36842   4.840  15.254  11.437  0.1637 -0.0040  0.1194
17309W        W36843  16.154   6.659  12.036  0.2552 -0.1411 -0.0229
17310W        W36844  11.715  12.055  11.614 -0.1284  0.2022  0.0803
17311W        W36845   2.293   2.224   4.022  0.2495 -0.2421 -0.1999
17312W        W36846  17.577  14.994   0.360  0.0149  0.0240  0.1006
17313W        W36847  13.907  13.965   1.744 -0.1564 -0.0138 -0.1044
17314W        W36848   0.418   8.654   1.076 -0.4094  0.2644 -0.1476
17315W        W36849   6.854   0.432  15.935 -0.3051 -0.1779 -0.0868
17316W        W36850   8.199  10.814   5.232  0.3517  0.2815 -0.0145
17317W        W36851   0.394  13.181   0.588  0.3012 -0.0164 -0.0666
17318W        W36852  10.406   1.434   1.699  0.1155  0.1698  0.1745
17319W        W36853  11.037  18.167   0.383 -0.0247  0.3908  0.1960
17320W        W36854  17.734  10.924   0.868  0.1625 -0.3021  0.2959
17321W        W36855   2.760   8.580  11.803 -0.0267 -0.1778 -0.0493
17322W        W36856   4.859  16.024   0.916 -0.0447  0.1096 -0.1238
17323W        W36857   0.967   8.865   0.947  0.0027  0.4157 -0.1529
17324W        W36858  17.721   5.015   0.109  0.1625  0.0311  0.0021
17325W        W36859   1.168  16.966  12.607  0.0294  0.1066  0.2678
17326W        W36860  17.757  10.933   4.659 -0.0285  0.2390  0.3534
17327W        W36861  13.383  17.296  14.737 -0.2488  0.0747  0.1213
17328W        W36862  10.350  14.511  12.562  0.0677 -0.2816 -0.1636
17329W        W36863   0.314   9.580  12.047  0.2303  0.0554  0.0940
17330W        W36864  14.463  13.375  15.069  0.1069  0.0801 -0.1806
17331W        W36865   3.426   9.139   1.173 -0.2546 -0.3090  0.2378
17332W        W36866   1.882  13.617   1.720 -0.1247  0.0488 -0.5009
17333W        W36867   1.544   9.350   1.059 -0.0234  0.2747  0.1538
17334W        W36868   8.689  16.382  15.852 -0.3471  0.2195 -0.2344
17335W        W36869   9.706  17.700  13.102  0.1632 -0.1441  0.1431
17336W        W36870  13.946   9.480  11.681  0.4078  0.1377  0.0032
17337W        W36871  15.529  12.941   3.929  0.0416  0.0499 -0.2614
17338W        W36872   2.650   2.094  15.185  0.0631  0.1186 -0.0411
17339W        W36873  12.788   0.973   2.197  0.0281 -0.0361  0.1976
17340W        W36874   7.067  15.335   2.364  0.0831  0.0501 -0.3441
17341W        W36875  15.171  17.819  15.932 -0.1566 -0.0762 -0.1597
17342W        W36876   7.369  12.501  11.914  0.1179 -0.1589 -0.1650
17343W        W36877  11.416  11.490  11.967  0.3259  0.2664 -0.2038
17344W        W36878  10.850  17.283  15.971 -0.0654 -0.0682  0.0469
17345W        W36879  15.440  14.286  13.703 -0.0397  0.0297  0.1401
17346W        W36880   0.189   0.103  11.739  0.0617  0.1649 -0.2196
17347W        W36881  16.145   8.880   3.472  0.0803  0.1322  0.1008
17348W        W36882  13.034   2.207   2.568 -0.1033  0.0384  0.4126
17349W        W36883  13.332   6.365   2.937  0.2401  0.1675  0.5437
17350W        W36884  15.789  15.737  15.581 -0.2312 -0.0777  0.0047
17351W        W36885   1.622   5.103  15.053 -0.0397 -0.1908 -0.0763
17352W        W36886  14.052  12.319   1.373 -0.1612  0.2229 -0.0364
17353W        W36887  12.022   4.388  10.606 -0.0843 -0.2010 -0.2595
17354W        W36888   5.943   0.718  14.281  0.1950  0.0169  0.1050
17355W        W36889  11.721  12.978  12.779  0.2302  0.0208  0.0612
17356W        W36890   5.924  14.802   3.587 -0.0874 -0.0312 -0.0014
17357W        W36891  14.739  15.260   1.402  0.1098  0.0743  0.0147
17358W        W36892   7.413  11.210  12.067 -0.1381  0.0299  0.1953
17359W        W36893   0.754   1.276  12.512  0.1679  0.1083 -0.1231
17360W        W36894   4.033   8.004  13.316  0.0169  0.1039  0.0102
17361W        W36895   0.893   9.521   0.136 -0.1696 -0.4100 -0.0264
17362W        W36896   3.553  14.740   2.144  0.1761 -0.0652 -0.0067
17363W        W36897   8.490  16.440   3.630 -0.0197 -0.0373  0.1865
17364W        W36898  14.761   7.489  11.573 -0.0944 -0.0515  0.1085
17365W        W36899  14.487   1.400   0.427 -0.0654  0.0971  0.0049
17366W        W36900  10.931  13.428  11.642  0.2071 -0.0945  0.2442
17367W        W36901  11.842   3.780   4.231 -0.1456  0.1276 -0.0823
17368W        W36902  13.479   0.052  12.523 -0.2756  0.2197  0.2398
17369W        W36903   5.052   4.853  11.869 -0.0121 -0.0432 -0.1796
17370W        W36904   4.910  17.291  13.961 -0.4238 -0.4127 -0.1143
17371W        W36905  14.356   3.808  11.938  0.0229  0.2008  0.0683
17372W        W36906   7.379   6.465   1.072 -0.2159 -0.0869  0.0093
17373W        W36907   8.498   4.463   3.100 -0.0192 -0.0786  0.1454
17374W        W36908  16.840  16.051  15.723 -0.2298 -0.2367  0.3714
17375W        W36909   1.677   8.294   1.366  0.2042 -0.0313 -0.0734
17376W        W36910   5.846   4.758  15.391  0.0859  0.0659  0.1166
17377W        W36911  14.305   9.345  10.790 -0.1336  0.2495  0.2262
17378W        W36912   0.239  15.240  15.754 -0.2699  0.0710 -0.0055
17379W        W36913  13.796  10.307  13.760  0.4643 -0.0089 -0.1474
17380W        W36914   7.644  15.830   4.090  0.2604 -0.1174  0.0835
17381W        W36915  13.093  13.927   3.387 -0.0029  0.0151 -0.0073
17382W        W36916  13.186  13.258  16.018  0.1689 -0.0189 -0.0881
17383W        W36917   5.477   9.797  13.159  0.2157  0.1726  0.1390
17384W        W36918   8.626  12.895  12.692  0.0380  0.0092  0.2339
17385W        W36919  11.819   5.128   1.488 -0.3562 -0.0229 -0.2223
17386W        W36920   0.837  14.842   3.193 -0.0557 -0.0679  0.0240
17387W        W36921  16.324   4.879  12.990 -0.0645 -0.2271 -0.1628
17388W        W36922  15.441   0.364   2.143  0.4181  0.3441  0.0127
17389W        W36923  13.959   8.881  14.784 -0.2635 -0.1889  0.1371
17390W        W36924  12.351  13.092   3.410 -0.0161 -0.0335  0.2589
17391W        W36925  13.093  13.243  12.350 -0.0008  0.0392  0.0534
17392W        W36926   4.435  15.239  14.673  0.2478 -0.1169  0.0552
17393W        W36927   2.237   2.382  15.015  0.0715  0.2091 -0.3163
17394W        W36928  12.076   0.500   2.617 -0.2032 -0.1916  0.2642
17395W        W36929   9.077   3.959  11.513  0.0319  0.1518  0.0976
17396W        W36930  10.220   2.083  15.448  0.2153 -0.1992 -0.2106
17397W        W36931  10.915  16.753  14.933  0.1217  0.0512 -0.0046
17398W        W36932   8.235   5.260   2.740  0.0912 -0.3419  0.1223
17399W        W36933   2.860  13.684   0.369 -0.0070  0.3052 -0.2095
17400W        W36934  16.254   1.450   4.885  0.0411  0.1409  0.0171
17401W        W36935  17.810   8.546  15.076  0.1316  0.2036 -0.0481
17402W        W36936  13.218  16.944   6.254  0.0286 -0.2021  0.1438
17403W        W36937  17.496   2.133  14.478  0.1143 -0.0080 -0.0799
17404W        W36938   6.057  17.378   5.303  0.0818 -0.0744 -0.0347
17405W        W36939   0.147  14.948  13.946  0.1705  0.1914 -0.1026
17406W        W36940   1.769  10.608   2.089 -0.2071  0.1580 -0.1408
17407W        W36941   6.282   7.685  12.355  0.1580  0.2846  0.1086
17408W        W36942   5.095   5.179  15.741  0.0686 -0.3281 -0.2529
17409W        W36943   6.191  17.043  14.497  0.0392 -0.0512 -0.3519
17410W        W36944  12.941   0.531  14.729 -0.1472  0.3565  0.0364
17411W        W36945   9.164   3.510  13.926  0.3049 -0.4831 -0.0446
17412W        W36946   1.939   5.571   0.661 -0.0137  0.3608 -0.0161
17413W        W36947   0.596   0.292   2.517 -0.0897 -0.0671 -0.0102
17414W        W36948   2.608   6.554  15.253  0.1651 -0.1893  0.0908
17415W        W36949  12.680  16.511   4.479 -0.3290 -0.2565  0.1114
17416W        W36950   7.474  10.037   3.383  0.0868  0.2415  0.0914
17417W        W36951  11.771   0.128   3.548  0.0152  0.3640 -0.0805
17418W        W36952   1.565   3.058   1.468 -0.0192 -0.0688 -0.1838
17419W        W36953   3.355  13.667   0.296  0.3933 -0.2307 -0.1693
17420W        W36954   7.075   6.654  13.619  0.2118  0.0847  0.0101
17421W        W36955  13.745  15.906   3.350 -0.2390  0.1184  0.2557
17422W        W36956   9.239  13.041   2.899  0.0463 -0.0454  0.1840
17423W        W36957   6.689  11.622  13.332  0.2572  0.0568  0.2345
17424W        W36958  12.549  15.307   0.207 -0.0790  0.0410 -0.1120
17425W        W36959   0.256  13.654  12.354  0.1207 -0.0694  0.0437
17426W        W36960  17.605  17.126  14.742 -0.0368 -0.0723  0.0743
17427W        W36961  14.964  14.608   4.932 -0.2213  0.2635  0.4900
17428W        W36962   3.340   9.704  12.657  0.2731 -0.5200  0.4909
17429W        W36963   0.685   8.930   4.540  0.0661  0.4131  0.3592
17430W        W36964  10.159  15.175   2.651  0.0118  0.0898  0.1784
17431W        W36965   4.307  10.915   4.842  0.1932 -0.0633  0.1008
17432W        W36966  17.603   0.564   4.135 -0.0638 -0.0483 -0.3637
17433W        W36967  10.661  14.421   3.144 -0.0413 -0.0606 -0.1214
17434W        W36968  13.450   7.017  13.939 -0.1217 -0.0025 -0.1176
17435W        W36969   1.796   2.301   1.965  0.0486  0.0363  0.0450
17436W        W36970   0.938   6.866  12.219  0.1454 -0.1281  0.2033
17437W        W36971  15.651  16.802   1.348  0.0190 -0.0538 -0.0372
17438W        W36972  11.381  12.498   2.153  0.2306  0.0389  0.0842
17439W        W36973  11.065   9.514  12.104  0.0688  0.0258  0.0513
17440W        W36974   0.728   2.770   2.021  0.1154  0.0986 -0.1649
17441W        W36975   2.645   1.150  14.224 -0.0540  0.0142  0.2124
17442W        W36976  17.012   7.856   2.319 -0.0988  0.0490  0.0879
17443W        W36977  15.406  15.994  13.051 -0.1056 -0.0654  0.0888
17444W        W36978   2.926   0.693  14.307 -0.1850 -0.0420  0.0348
17445W        W36979   1.275  11.391   1.242  0.1623 -0.0546  0.1891
17446W        W36980  16.005  17.796   2.486 -0.0713  0.2725 -0.0136
17447W        W36981   5.421  17.656  12.318  0.2761  0.3247 -0.1077
17448W        W36982  17.989   2.612  12.883  0.1678 -0.0047  0.2686
17449W        W36983   6.686   8.672  12.568  0.3733  0.1915  0.1923
17450W        W36984  16.727   0.073  14.318 -0.0162 -0.4548 -0.2112
17451W        W36985   6.829   6.182  14.771 -0.3306 -0.1153 -0.4113
17452W        W36986   8.351  15.726  14.789 -0.0402  0.0653  0.0604
17453W        W36987   1.979  16.157  11.907 -0.0387  0.1274 -0.1555
17454W        W36988  16.791   2.396  11.606 -0.1158  0.0660 -0.0129
17455W        W36989   5.010   5.851  13.917 -0.0994  0.3042  0.4398
17456W        W36990  12.705   4.914  10.843  0.1635  0.3483 -0.1825
17457W        W36991  12.305  10.405   4.801 -0.0920 -0.0282 -0.1127
17458W        W36992  10.156   0.636   1.667 -0.2890 -0.0235  0.1068
17459W        W36993  13.253   4.822   0.191 -0.1529 -0.1786 -0.3426
17460W        W36994  10.096   5.304   2.140  0.3807  0.0006  0.0562
17461W        W36995  14.976   2.111  14.685  0.0109  0.1275  0.1672
17462W        W36996  11.582  17.604  11.952 -0.0554 -0.6064 -0.0211
17463W        W36997  17.044   4.342   4.808 -0.3799  0.1331  0.0392
17464W        W36998   5.422  13.625  12.105  0.1376  0.0369 -0.3307
17465W        W36999  17.947  16.808   1.521 -0.0063 -0.0642 -0.0982
17466W        W37000   5.746  11.363  11.223 -0.1252 -0.1911  0.3926
17467W        W37001  10.078   5.195  12.513  0.2904 -0.0880  0.0137
17468W        W37002   3.758   4.664  11.369 -0.3528  0.1509  0.1589
17469W        W37003  17.506   7.440  14.996 -0.1426 -0.3504 -0.2093
17470W        W37004   9.372  15.007   3.916  0.0267 -0.1357  0.0957
17471W        W37005  15.649  14.243   4.424  0.0215 -0.1284 -0.2907
17472W        W37006  13.353  12.330   5.908  0.1780 -0.1835  0.3430
17473W        W37007  18.128  10.388  15.786  0.0825  0.0303  0.0337
17474W        W37008   4.793   1.293   3.570  0.2720 -0.2512  0.0226
17475W        W37009  11.165   0.170  13.228 -0.1262  0.1128 -0.0965
17476W        W37010   1.950  15.235  12.890 -0.0052 -0.1411 -0.0845
17477W        W37011   7.368   2.773  13.120 -0.3853  0.2632 -0.0858
17478W        W37012  16.324  12.799   1.781  0.0114  0.1274  0.0978
17479W        W37013   4.600   3.833  14.687  0.0283  0.0819 -0.0437
17480W        W37014   5.430   4.328  14.138  0.2408 -0.2173 -0.0280
17481W        W37015  15.128  13.950   3.267 -0.0923 -0.0182  0.0881
17482W        W37016  15.653  15.565  12.922  0.3708  0.0834 -0.0554
17483W        W37017   6.692  12.060   3.850  0.0911  0.2908  0.0249
17484W        W37018  12.840   5.245   3.477  0.0622 -0.2236  0.1991
17485W        W37019  15.102  11.906  11.875  0.0975  0.0392 -0.1181
17486W        W37020  17.589  13.587   3.638 -0.1615  0.2258  0.0594
17487W        W37021  12.912   8.313  16.003 -0.2010  0.3605  0.2528
17488W        W37022   6.957   3.104  12.960  0.1567  0.0398  0.1892
17489W        W37023  17.457  10.376  15.698 -0.2694 -0.4254 -0.3632
17490W        W37024  11.373   9.287  12.593  0.0329 -0.0148 -0.0448
17491W        W37025  13.949  12.182   5.216 -0.1928  0.2495 -0.0511
17492W        W37026  13.674   0.561  13.487  0.0563  0.1829 -0.1703
17493W        W37027   6.339   0.818  11.978  0.3110 -0.0365  0.1214
17494W        W37028   0.721   5.030  14.108 -0.0454  0.0193  0.0703
17495W        W37029  12.917  14.754   4.460 -0.1042 -0.3036 -0.1645
17496W        W37030   5.510  14.166  15.139 -0.0239 -0.1378  0.1079
17497W        W37031   3.096  18.096  12.310  0.0909  0.0349  0.2583
17498W        W37032  11.197   9.141   1.274 -0.0376  0.2455  0.1209
17499W        W37033  17.645  10.055   1.059  0.5481 -0.2829 -0.2089
17500W        W37034   9.914   6.568   3.558 -0.2393  0.0852 -0.0393
17501W        W37035  11.784   4.526  12.509  0.1521 -0.0269 -0.0085
17502W        W37036  17.694   3.850  11.617  0.3283  0.0818  0.1303
17503W        W37037   2.602   9.534   3.402  0.1520  0.1358 -0.1578
17504W        W37038  12.683  16.161   4.177  0.1458  0.0502  0.0767
17505W        W37039   3.560  16.408  11.941  0.0422 -0.0564 -0.0748
17506W        W37040   1.823  17.408   2.128  0.0831 -0.1280  0.0739
17507W        W37041  13.430   8.409   1.430 -0.1237 -0.0386  0.0259
17508W        W37042   2.149  15.751   2.984  0.1234 -0.0831  0.2458
17509W        W37043  13.701  14.741   3.276 -0.1465  0.2894 -0.1320
17510W        W37044  10.248   1.663   0.276  0.2895  0.0595 -0.2093
17511W        W37045   8.512  17.328   4.490  0.0270  0.1015  0.1862
17512W        W37046  17.772   7.782   3.605  0.2008 -0.2366  0.2063
17513W        W37047  17.323  15.486   3.206  0.1523 -0.1694  0.1240
17514W        W37048  10.764   9.726  15.293 -0.2781 -0.1870 -0.1366
17515W        W37049   2.170  10.860   2.405  0.1654  0.1225  0.0194
17516W        W37050  15.380  10.184  13.310  0.0485 -0.1605 -0.1531
17517W        W37051  10.247   2.304  11.723  0.4520 -0.1635  0.2713
17518W        W37052  17.253  14.317   4.761 -0.0722 -0.1268  0.1767
17519W        W37053  14.060  14.821   0.783  0.1493 -0.0196 -0.1602
17520W        W37054   5.409  18.144  14.848 -0.1234 -0.1971 -0.2799
17521W        W37055   4.877   8.487  13.172  0.3156 -0.1884  0.1734
17522W        W37056  17.482   3.922  13.211 -0.2336 -0.1206 -0.2990
17523W        W37057  11.184   0.176   3.731  0.0591  0.0702  0.0990
17524W        W37058   0.007  15.596  11.744  0.0786  0.0320 -0.0728
17525W        W37059   4.782  14.082   4.120 -0.0357  0.3582 -0.1669
17526W        W37060  17.229   5.347   1.605 -0.1745 -0.4397 -0.3391
17527W        W37061   9.022   3.517   2.979 -0.1123  0.0238 -0.2932
17528W        W37062  18.038  15.948   1.803 -0.0866  0.1141 -0.1498
17529W        W37063   0.001   3.495   3.444 -0.1672  0.0836 -0.2439
17530W        W37064  12.097  10.770  15.145  0.0735  0.3497  0.0347
17531W        W37065  15.505  17.607   0.957  0.3091  0.2727 -0.0366
17532W        W37066   2.795  15.733  14.520 -0.1268  0.2517  0.2379
17533W        W37067  15.348  16.626   2.918  0.1410  0.1021 -0.1727
17534W        W37068   8.544  12.535  14.289  0.2259 -0.1301 -0.1767
17535W        W37069  13.856   3.847  13.742  0.3941  0.0668 -0.0383
17536W        W37070  13.677   4.850  12.364  0.2680  0.1539 -0.0936
17537W        W37071  15.072  16.713  12.531  0.2867  0.2275  0.0860
17538W        W37072   6.633  14.213  13.147 -0.1152  0.0598 -0.0922
17539W        W37073   0.387   8.070  10.880  0.1105  0.0292  0.3034
17540W        W37074   2.643   8.679  12.354  0.2483  0.0576  0.1274
17541W        W37075   0.141  15.399   4.264 -0.1898  0.2344 -0.1135
17542W        W37076  11.240   1.338  14.272 -0.0317 -0.0736  0.2318
17543W        W37077   9.752  16.633   1.890 -0.2993  0.1763  0.0736
17544W        W37078   1.820   1.173  12.648 -0.0111  0.3306  0.0580
17545W        W37079  14.253   4.761   4.309  0.0727 -0.2928  0.0559
17546W        W37080  15.269   5.355  15.502 -0.0252 -0.0761 -0.1264
17547W        W37081   5.735  18.051  12.205 -0.2127  0.1263 -0.1737
17548W        W37082   1.748   4.386  15.807 -0.5769 -0.0975  0.2364
17549W        W37083  11.437  13.250  11.797  0.2776  0.1937 -0.1512
17550W        W37084  13.502   3.995  14.147 -0.0619  0.1028 -0.2403
17551W        W37085  14.663  17.455   4.436 -0.2654  0.0808 -0.0528
17552W        W37086   8.686   7.123   1.795 -0.2919 -0.0983  0.1610
17553W        W37087  10.802   7.014   3.206 -0.3922  0.0076 -0.0664
17554W        W37088   8.817  13.349   0.513  0.0623 -0.1296 -0.0140
17555W        W37089  10.440  10.102   2.108 -0.0599 -0.3519  0.1148
17556W        W37090  10.180  14.274   0.798 -0.0084 -0.1256  0.0618
17557W        W37091   4.155  11.230   0.321  0.2711 -0.1334  0.1337
17558W        W37092  17.173   5.908  14.573  0.0079 -0.0487  0.2051
17559W        W37093  11.034   8.615   4.301 -0.0879  0.2032  0.0371
17560W        W37094   3.841   6.661  14.627  0.0227  0.0603 -0.1496
17561W        W37095  17.914  16.633   1.002  0.1035 -0.1658  0.1496
17562W        W37096  15.180  12.231  10.442 -0.0146  0.0393  0.0036
17563W        W37097   4.984  13.770  11.189 -0.0775  0.1053  0.2669
17564W        W37098  16.864   0.219   1.656 -0.1689 -0.0927 -0.0618
17565W        W37099  17.596  13.295  11.800 -0.1520 -0.3088 -0.0565
17566W        W37100   6.554   2.717  14.599 -0.1560 -0.1363 -0.0014
17567W        W37101  12.735   7.108   0.294 -0.1301  0.3679 -0.0508
17568W        W37102   2.692   7.556  13.232  0.1122 -0.3356  0.1112
17569W        W37103   3.178  16.501  15.113 -0.1362 -0.0164  0.0654
17570W        W37104   5.771  15.373  12.714 -0.1130  0.1511 -0.2743
17571W        W37105   5.104   9.977   4.473  0.2109  0.2746 -0.0561
17572W        W37106   7.344   6.851   3.887 -0.0024  0.2191 -0.2515
17573W        W37107   7.228  13.510   3.616  0.1242 -0.2233 -0.0467
17574W        W37108   3.097   5.796  13.115 -0.1254  0.1056 -0.3256
17575W        W37109   9.581   9.780   0.636  0.3404  0.0331  0.2139
17576W        W37110   4.896   8.719  14.413 -0.3459  0.2622 -0.2309
17577W        W37111   1.118  12.784   1.887 -0.2066  0.0614  0.0629
17578W        W37112  16.368  17.880   0.913  0.1196  0.0820  0.0742
17579W        W37113   9.915   6.766  11.757  0.4032  0.0064 -0.0962
17580W        W37114  13.858  16.071   2.087  0.0321  0.1561  0.0841
17581W        W37115  11.977   2.916  16.030 -0.0556  0.1692  0.0761
17582W        W37116   2.199  17.735  14.210  0.0357  0.3331 -0.1464
17583W        W37117   0.742   5.250   3.206  0.1369  0.3034 -0.0116
17584W        W37118   5.058  16.241   2.213 -0.1626  0.1135  0.0122
17585W        W37119   9.769   7.076  14.681  0.1722  0.0540  0.0445
17586W        W37120   7.017   2.496  15.932  0.0846  0.0075  0.0186
17587W        W37121  14.870   2.050  12.079  0.0997 -0.1492  0.0440
17588W        W37122  13.158   2.661  13.939  0.0594 -0.0794  0.0211
17589W        W37123  16.958  11.916  11.521  0.1505  0.1800 -0.0552
17590W        W37124  10.763   5.416  15.108  0.1109  0.1323  0.1210
17591W        W37125   0.851   6.748   0.260 -0.0500  0.4741  0.0277
17592W        W37126   4.758   9.413   2.749 -0.1119 -0.1214  0.0322
17593W        W37127   3.592  16.173  12.855 -0.2709 -0.2662 -0.1560
17594W        W37128  11.128  14.403   3.543 -0.0584  0.1022  0.1617
17595W        W37129   8.694  10.834   0.477  0.0153 -0.1320  0.0161
17596W        W37130  11.465   2.638  12.107  0.1076  0.2235  0.1695
17597W        W37131  14.904  15.862   0.841 -0.2868 -0.2168 -0.0589
17598W        W37132   0.243   6.371  11.995  0.1836 -0.2179  0.1773
17599W        W37133   5.492   6.764   2.774  0.0932 -0.3988 -0.0659
17600W        W37134   4.015   5.335  12.096  0.1358 -0.2356 -0.2249
17601W        W37135  10.495  17.872   3.286 -0.0598  0.1229  0.1615
17602W        W37136   1.787   1.871   1.738  0.2517  0.0411 -0.2699
17603W        W37137   7.027  12.742  11.652 -0.0877 -0.0592 -0.1175
17604W        W37138   4.243  17.160  11.634  0.0252  0.1953 -0.0681
17605W        W37139  16.729   6.862   3.366 -0.0020 -0.0756  0.1569
17606W        W37140   2.171  17.725   2.827 -0.2186  0.2308 -0.3432
17607W        W37141   0.743   4.472   2.559 -0.1399 -0.0888 -0.4704
17608W        W37142   9.168  15.764   2.509 -0.2181 -0.0903 -0.2668
17609W        W37143  12.559  15.506   3.780 -0.1644  0.1308  0.0197
17610W        W37144  17.650   3.867   0.478 -0.1446 -0.0984  0.1449
17611W        W37145   9.030   0.295  15.818 -0.1510  0.0056 -0.2531
17612W        W37146   1.544   7.247  12.977 -0.0711  0.1640 -0.1330
17613W        W37147   9.980   9.039   1.276 -0.1455  0.4054  0.3338
17614W        W37148   2.465  16.557  15.820  0.1202 -0.2595  0.2906
17615W        W37149  16.713  16.408  11.354  0.0160  0.1041  0.0695
17616W        W37150   6.020  16.947  15.379 -0.1772 -0.1030  0.1478
17617W        W37151   7.055   5.350  11.866  0.1499  0.0841 -0.0300
17618W        W37152  12.976  16.185  15.378  0.0333 -0.0403  0.0638
17619W        W37153  12.040   3.180   2.351 -0.1166  0.1142  0.3579
17620W        W37154   3.887  16.396   0.040  0.2168 -0.0654 -0.0049
17621W        W37155  13.786   3.562  14.819  0.2836 -0.0500  0.0295
17622W        W37156  15.692   7.739   5.102 -0.0900 -0.0115 -0.1013
17623W        W37157  15.161   9.046  12.213  0.0520  0.0024 -0.2132
17624W        W37158   0.152  13.613  14.215  0.0724  0.2933  0.0920
17625W        W37159  15.162  10.055   0.771  0.1947  0.0285 -0.0675
17626W        W37160   9.507   8.828  12.468 -0.0849  0.0395  0.0743
17627W        W37161   9.274   9.570  14.301 -0.2278 -0.1189 -0.1050
17628W        W37162  16.207   8.851   3.951  0.0716  0.1344  0.4216
17629W        W37163   8.518  15.051  14.289 -0.0514  0.1725 -0.2114
17630W        W37164  15.415   4.320  14.403  0.0188 -0.3810  0.0994
17631W        W37165   3.151  10.646  14.071 -0.2388  0.4414 -0.1878
17632W        W37166  17.154   2.799  13.382  0.1735 -0.0635 -0.1111
17633W        W37167   9.559   9.856   1.341 -0.0854 -0.2326  0.3930
17634W        W37168  10.884   0.525  15.973 -0.0236  0.1363  0.1742
17635W        W37169  11.237   2.514  10.508  0.1469  0.2988  0.0723
17636W        W37170  13.574   7.047   4.584 -0.0725  0.2071  0.1135
17637W        W37171   0.910   3.326   0.287  0.1614  0.5627  0.1270
17638W        W37172  15.118  17.935   3.532 -0.0242 -0.2070  0.0532
17639W        W37173   2.393  15.456  12.658 -0.0661 -0.2415  0.3767
17640W        W37174  14.973  12.282  11.549  0.2433  0.0167 -0.0893
17641W        W37175  15.394   5.916   1.747 -0.0850  0.1189  0.2960
17642W        W37176  16.340   5.289  13.811 -0.0055 -0.0568  0.1785
17643W        W37177  12.496  16.985  11.130  0.0850  0.0267 -0.2410
17644W        W37178  11.621  16.024  12.852 -0.0286  0.0142 -0.0499
17645W        W37179   7.996   1.038  13.401 -0.0483  0.1037 -0.0014
17646W        W37180   7.840  16.737   4.363 -0.0905 -0.1775  0.0687
17647W        W37181  15.113  14.421  14.576  0.0317 -0.4752 -0.0792
17648W        W37182  15.938  14.413  12.557 -0.1136  0.1616 -0.0903
17649W        W37183   5.670  16.759   3.307 -0.1386  0.2236  0.0656
17650W        W37184  13.519   9.361  15.272 -0.1590 -0.4549  0.4228
17651W        W37185  11.469   1.334   1.009 -0.0831  0.1851 -0.1553
17652W        W37186  14.352  14.508  11.772 -0.1411 -0.0704 -0.0590
17653W        W37187   6.504   0.990   0.538 -0.2794  0.1371 -0.1155
17654W        W37188  18.132   7.720  15.867  0.0986  0.0123 -0.0192
17655W        W37189   3.300   6.197  11.165 -0.1685 -0.2154  0.0521
17656W        W37190   2.454   0.122  13.096  0.0467 -0.1571  0.2969
17657W        W37191   0.228   7.084  13.857 -0.1123 -0.1254 -0.0216
17658W        W37192   3.367  16.663   0.145  0.2518  0.0486 -0.4127
17659W        W37193   8.236   6.929  13.907  0.2229  0.2197  0.1132
17660W        W37194   3.267   1.170   0.715  0.0475 -0.4262  0.1133
17661W        W37195   7.370  10.060   0.197 -0.3353 -0.1156 -0.2276
17662W        W37196  10.456  10.624  12.819  0.0844  0.1760  0.0612
17663W        W37197   5.605   2.742  14.792  0.0603  0.1430  0.1014
17664W        W37198   6.974   9.110  12.734 -0.3375  0.0114  0.1600
17665W        W37199   9.430  12.259   1.761  0.1071  0.1261  0.1261
17666W        W37200   2.140  13.783  14.180 -0.2121  0.0361 -0.1883
17667W        W37201  11.718  14.781  15.967 -0.0038  0.0370 -0.3047
17668W        W37202  15.736  11.304  15.844  0.0847  0.0852  0.0865
17669W        W37203  12.446  14.924   3.612 -0.0357 -0.0261  0.0697
17670W        W37204  17.573   3.696   2.695  0.0207 -0.1882 -0.2712
17671W        W37205  17.217  12.646  13.312 -0.2319  0.1445  0.1840
17672W        W37206  10.170  12.734   1.633  0.1433 -0.2741  0.0837
17673W        W37207  14.189   9.642  14.986  0.0537  0.2773  0.0424
17674W        W37208  14.978   2.392   4.217  0.4916 -0.1740 -0.0644
17675W        W37209  15.971   1.856   4.686  0.0771  0.1430  0.2499
17676W        W37210   9.514  10.305   4.715 -0.0375 -0.1871 -0.0138
17677W        W37211   1.412   5.013   2.200 -0.1722 -0.1693  0.1313
17678W        W37212  13.605   2.263  14.657 -0.1469 -0.0997 -0.0515
17679W        W37213  11.454  12.073   1.685  0.1503 -0.1282  0.1309
17680W        W37214   9.470  12.466  15.589  0.1159  0.2685 -0.0053
17681W        W37215  16.760   7.322   3.593 -0.1091 -0.1586 -0.2766
17682W        W37216   6.793  12.021   1.639  0.2148 -0.1162  0.1869
17683W        W37217   0.080  17.241  11.865  0.5194  0.0491  0.0561
17684W        W37218  13.690  14.402   2.195 -0.0303  0.3025  0.3426
17685W        W37219   7.671   2.582   3.584 -0.0134  0.0817 -0.6719
17686W        W37220  16.992   6.117  13.725  0.4100 -0.0305  0.1266
17687W        W37221  10.784   6.794   4.396 -0.1569  0.1237  0.0046
17688W        W37222  11.059  10.310  14.086  0.1298  0.0953 -0.0230
17689W        W37223  10.936  13.544  15.378  0.2607  0.2650  0.3504
17690W        W37224   4.074   0.009  14.795  0.0162 -0.3245 -0.4384
17691W        W37225   3.890  15.576   1.594 -0.1105 -0.1190  0.4375
17692W        W37226   4.384  16.224  12.329  0.1231 -0.1327 -0.0384
17693W        W37227  11.793  12.413   2.520 -0.0044  0.3004 -0.0131
17694W        W37228   6.940   3.658   3.852 -0.0907 -0.1960 -0.1822
17695W        W37229   5.205   6.245  12.687 -0.0710  0.0154 -0.0980
17696W        W37230   3.014   7.290  15.437  0.2298  0.0317  0.0995
17697W        W37231  12.923   6.960  13.943 -0.1413 -0.0096  0.1587
17698W        W37232   9.885   1.007  12.617 -0.1900  0.1341  0.2323
17699W        W37233   3.162   6.122   2.252  0.1826 -0.3269 -0.0745
17700W        W37234  10.609  13.403  14.338  0.4537 -0.2090  0.3063
17701W        W37235  16.827  12.990   5.875  0.1092  0.2257 -0.2026
17702W        W37236  16.599   9.643  13.540 -0.0819  0.0060 -0.3862
17703W        W37237   9.816  16.858  14.038 -0.4499 -0.0021  0.0315
17704W        W37238   4.531   1.807  14.571 -0.0739  0.0046 -0.2877
17705W        W37239   8.204   0.434   0.259  0.2201  0.1237  0.1478
17706W        W37240   4.363   2.330   2.950  0.0383 -0.0086 -0.1846
17707W        W37241  12.711  17.748  15.735  0.1681 -0.1923  0.0832
17708W        W37242   3.289  16.650  15.677  0.2265 -0.1721  0.3478
17709W        W37243   4.224  12.940  12.649 -0.3943 -0.0799 -0.0728
17710W        W37244  13.160   4.304  11.822 -0.1829  0.0063 -0.0073
17711W        W37245   9.896   2.655  15.533  0.1474 -0.3611  0.0165
17712W        W37246   4.750  14.606  14.192 -0.0272 -0.0613  0.0554
17713W        W37247   7.264  12.929  13.857  0.2632  0.1279  0.1205
17714W        W37248  14.081   0.258  15.715  0.0303 -0.0559  0.0523
17715W        W37249   8.755   1.022  13.012 -0.1402 -0.0924  0.1551
17716W        W37250  11.161  14.071  15.701  0.0234 -0.2160 -0.2079
17717W        W37251   4.112  13.663  11.592  0.0938  0.0123  0.1763
17718W        W37252  10.750   9.516  11.596 -0.1075 -0.0912 -0.1356
17719W        W37253  10.517  13.573  15.734 -0.1002  0.0360 -0.0536
17720W        W37254  12.045  13.132   1.813  0.0911  0.0778  0.2714
17721W        W37255  15.414   1.023  15.699 -0.2454 -0.3347  0.4620
17722W        W37256   6.215   4.697  12.715  0.1106  0.0871 -0.1100
17723W        W37257  15.144   1.875  12.461 -0.1161  0.0547  0.2503
17724W        W37258   7.514  16.034   1.086 -0.1665 -0.1296  0.3656
17725W        W37259   8.832  10.652  14.642 -0.0075  0.3136  0.2512
17726W        W37260   2.994   9.093  14.106  0.0237  0.1320  0.0134
17727W        W37261  10.234   4.629  15.374  0.0162 -0.2107  0.0052
17728W        W37262   3.987   2.290  10.604  0.0499  0.1606 -0.0424
17729W        W37263   6.669   3.635  14.629  0.0265  0.0841  0.0680
17730W        W37264   0.699  11.884   5.400 -0.2607 -0.0148  0.1506
17731W        W37265  15.105  15.280   3.117 -0.0662  0.3234 -0.0664
17732W        W37266  12.046   5.319  14.700 -0.1511 -0.0339 -0.1490
17733W        W37267  15.039  10.426  14.189  0.5517 -0.3803 -0.0205
17734W        W37268  17.680   7.001   0.002  0.1294 -0.1303 -0.2825
17735W        W37269  12.613  13.472   3.638  0.1523 -0.3682  0.0834
17736W        W37270   6.992   1.154  15.775 -0.0888  0.1434 -0.2932
17737W        W37271   9.117   9.054  14.950 -0.2588 -0.0798  0.0020
17738W        W37272   7.503  16.961  15.150 -0.0762 -0.0065 -0.0499
17739W        W37273  13.036   4.245  13.222 -0.1239 -0.0796  0.0170
17740W        W37274  10.233   6.015  11.442 -0.1790 -0.2119 -0.1715
17741W        W37275   2.758   3.526   0.309  0.0718 -0.0034  0.2771
17742W        W37276  13.736  10.676   2.932  0.2891  0.0517  0.0569
17743W        W37277  16.843   5.821  14.183 -0.1890 -0.0031 -0.1507
17744W        W37278   6.483  15.193   1.005  0.0280 -0.0239  0.1126
17745W        W37279  12.031  10.959   3.395 -0.1955 -0.0131  0.2526
17746W        W37280  15.889  15.055   1.827  0.1357  0.0256  0.1445
17747W        W37281  16.538   2.909   0.040  0.0283 -0.3798 -0.0875
17748W        W37282   0.084   1.648  13.910 -0.0614  0.0437  0.2076
17749W        W37283   3.543   1.567   1.407  0.0254 -0.1615 -0.1074
17750W        W37284   6.708  10.099  11.682  0.3812 -0.1143  0.3036
17751W        W37285   6.719  13.540  15.490 -0.0865 -0.2617  0.0760
17752W        W37286   4.228  13.898  14.278  0.0149 -0.1670  0.2417
17753W        W37287   2.180  10.792  11.441 -0.1352 -0.2541 -0.0235
17754W        W37288  10.039  11.884   0.937 -0.0795 -0.1442 -0.0224
17755W        W37289  13.708  16.554   4.614  0.2789  0.0121  0.0176
17756W        W37290   5.760   6.621   3.201  0.2202  0.0636 -0.1288
17757W        W37291  16.407  13.802  13.568  0.2629  0.2852 -0.1591
17758W        W37292  16.943  18.187  11.560  0.1123 -0.0213 -0.1505
17759W        W37293  10.312   4.040   0.247  0.3212  0.1783  0.1633
17760W        W37294  14.006  13.712   5.085 -0.2144 -0.3051 -0.1163
17761W        W37295  15.992   4.777  15.476 -0.0433 -0.1650  0.0587
17762W        W37296   0.853   2.650  12.135 -0.2340 -0.0292 -0.0658
17763W        W37297   2.142   4.455   3.384 -0.0823  0.0271 -0.0366
17764W        W37298  13.172   6.177   3.463  0.1168 -0.2116  0.0192
17765W        W37299  17.482   9.673   3.980  0.1488  0.2270 -0.1365
17766W        W37300   1.451   4.056   2.729  0.4034  0.0060 -0.0951
17767W        W37301  17.974   2.006  13.725  0.0816 -0.0140  0.1073
17768W        W37302  12.590   1.474   1.925  0.0599 -0.0976 -0.0037
17769W        W37303  12.170   0.241   1.383 -0.0567 -0.0864  0.1077
17770W        W37304   2.269   1.048   3.386  0.2486 -0.0126 -0.1390
17771W        W37305   2.022   6.242  14.152  0.1434  0.0717  0.0925
17772W        W37306  14.424  15.207   0.610  0.1763  0.3391 -0.0423
17773W        W37307  18.008  16.936  11.382 -0.0215 -0.0513 -0.0407
17774W        W37308  12.415   2.181   0.867  0.3429 -0.1307 -0.0809
17775W        W37309   1.488   2.611  13.614  0.1642  0.1803 -0.1912
17776W        W37310  17.337   4.098  10.367 -0.1624 -0.1090 -0.0183
17777W        W37311   4.281  13.943  13.101  0.0595  0.3186  0.1623
17778W        W37312  17.598  15.158   4.604  0.2225  0.0130 -0.0968
17779W        W37313   2.460  14.891  11.796 -0.0416 -0.1316 -0.1387
17780W        W37314  17.325   8.240  13.837  0.2993 -0.1642 -0.0190
17781W        W37315   7.861   7.585   2.863  0.0536 -0.3211 -0.0000
17782W        W37316   4.596   2.757   4.179  0.0537 -0.0817  0.0909
17783W        W37317   1.601  12.839  15.218  0.0830  0.3249  0.1614
17784W        W37318  17.374   7.437   3.735  0.1283 -0.0888  0.2206
17785W        W37319   7.360  16.476  11.866  0.0906  0.3068  0.1207
17786W        W37320  17.735  12.190  13.975  0.0894 -0.0087 -0.0021
17787W        W37321  15.830  10.123   2.812  0.1613  0.0770 -0.2340
17788W        W37322  12.687  10.491  15.188 -0.1199 -0.2525 -0.2952
17789W        W37323   4.800  12.406   4.573 -0.2296  0.3428  0.0411
17790W        W37324  15.594  15.364   1.567 -0.3933 -0.5091  0.0448
17791W        W37325   5.601  16.428  14.846  0.0395  0.1171 -0.5046
17792W        W37326  13.024  13.614  13.653  0.1429 -0.0266 -0.0342
17793W        W37327   7.488   7.110  12.687 -0.1270 -0.2891 -0.3246
17794W        W37328   6.421   4.656   0.021  0.1185 -0.0995  0.2069
17795W        W37329  17.981  10.911  12.298  0.0870  0.0854  0.4129
17796W        W37330   5.642  14.437   2.378 -0.1385 -0.1236 -0.1245
17797W        W37331  14.942  14.383   1.967 -0.3920 -0.1551  0.0916
17798W        W37332  15.279  17.395  15.701  0.2304  0.1369 -0.0557
17799W        W37333  11.848   5.571   1.739  0.0105 -0.2613 -0.1209
17800W        W37334   9.051   9.180  12.592 -0.3128 -0.3692  0.1447
17801W        W37335  17.381  14.954  12.690 -0.2201  0.0112  0.1640
17802W        W37336   7.614   6.424   3.997  0.1498 -0.0074  0.0242
17803W        W37337   4.088   2.908  13.507 -0.0169  0.2353  0.0155
17804W        W37338  15.245   6.811   3.460 -0.2108 -0.1657  0.1976
17805W        W37339   7.159   1.559   4.621  0.1523 -0.2449 -0.2071
17806W        W37340  13.098  14.624  12.288 -0.2278  0.0841 -0.3154
17807W        W37341   8.202  17.525  14.446  0.4182 -0.1913  0.2550
17808W        W37342   2.678  15.340  14.896 -0.0155  0.2054  0.0204
17809W        W37343   9.433   4.401  16.053  0.1362 -0.2035  0.1394
17810W        W37344   6.220   0.568   0.509 -0.1959 -0.0027 -0.3912
17811W        W37345   7.658   1.892  11.453  0.3311  0.0642  0.5096
17812W        W37346   9.522   8.844   1.386 -0.1698 -0.1632 -0.0358
17813W        W37347  15.132  13.389  15.743  0.0010 -0.1623  0.1760
17814W        W37348  13.356   4.878   5.819 -0.0963  0.2193 -0.1372
17815W        W37349  10.051   3.842  15.840  0.0692  0.0915 -0.0251
17816W        W37350   8.782   9.909   4.305 -0.0877  0.0294 -0.1130
17817W        W37351   4.989   8.051  11.916 -0.0553 -0.1945 -0.0780
17818W        W37352   4.164   2.801   1.522 -0.1336  0.0732 -0.0989
17819W        W37353   4.125   5.136   4.592 -0.2227  0.0129 -0.2926
17820W        W37354   1.319   9.612   5.022  0.1795 -0.1070 -0.1294
17821W        W37355   8.518  17.747   0.092  0.0621 -0.0253  0.0191
17822W        W37356   7.079   2.902  15.635 -0.1147 -0.3586 -0.0801
17823W        W37357   6.076   7.565  11.167 -0.2296 -0.0262 -0.0541
17824W        W37358  13.957  14.945  15.145  0.1225 -0.2178 -0.1607
17825W        W37359   6.558  11.145  15.704 -0.1551 -0.0298  0.0370
17826W        W37360  16.696   5.614  13.589  0.1102  0.0257 -0.0108
17827W        W37361   1.827  11.905   1.832  0.0228  0.2118  0.3087
17828W        W37362   2.891  11.507   4.168 -0.2197  0.1958  0.3841
17829W        W37363  12.537   6.379   2.468 -0.2331  0.0828  0.1488
17830W        W37364   1.068   7.375   2.981  0.0959  0.0671  0.0875
17831W        W37365   5.211   2.174  13.960 -0.1261  0.1727  0.0234
17832W        W37366   2.616   7.423  12.024 -0.2383  0.2668  0.2492
17833W        W37367  17.909   0.854   3.757 -0.1366 -0.2016  0.1199
17834W        W37368  10.949   3.019   1.496 -0.0331  0.0428  0.0859
17835W        W37369   0.336   3.964   2.513  0.2031 -0.0883 -0.4111
17836W        W37370   4.982  13.438   1.792  0.0508 -0.0366  0.0537
17837W        W37371   9.446  10.917  13.442 -0.0830 -0.0017 -0.1721
17838W        W37372   4.770   3.522   3.806 -0.0637 -0.0988 -0.0915
17839W        W37373  10.111  15.208  15.382 -0.1231  0.1604 -0.1671
17840W        W37374  16.919   9.579  14.306  0.1865 -0.3035  0.1663
17841W        W37375   4.710   4.415  13.560  0.0068  0.2203  0.1256
17842W        W37376   8.240   1.441   3.413 -0.2859 -0.0047  0.0832
17843W        W37377   4.143   4.306  11.508 -0.4716  0.1808 -0.2309
17844W        W37378   9.433   0.241  15.169  0.1793 -0.0435 -0.0658
17845W        W37379  10.197   7.786  14.419 -0.4634  0.1722  0.0604
17846W        W37380  17.190   9.543  12.052 -0.2049  0.0327 -0.0537
17847W        W37381   8.312   6.407   3.287 -0.0577  0.0679 -0.3492
17848W        W37382   6.060  14.310   3.415 -0.2790 -0.1425  0.1705
17849W        W37383  14.417  16.963   5.494 -0.1303  0.3191 -0.0492
17850W        W37384   0.172  17.060   4.866  0.0543 -0.0071 -0.2998
17851W        W37385  16.946   5.533  12.391  0.2236 -0.1504  0.1098
17852W        W37386   8.315   1.417   3.926  0.1346  0.1542 -0.2321
17853W        W37387   4.526   7.295  15.197  0.1464  0.3681  0.0729
17854W        W37388  17.058   9.652   0.343 -0.1909 -0.2337 -0.2305
17855W        W37389  13.051  16.378  11.516  0.1976 -0.1505  0.0132
17856W        W37390  10.891  16.659   3.243  0.0628  0.0821 -0.0005
17857W        W37391  12.578   1.893   0.457 -0.2049 -0.1315 -0.1319
17858W        W37392  14.251  17.035  12.076  0.2720 -0.0250 -0.2235
17859W        W37393  16.110  16.316   0.443 -0.0680 -0.0071  0.0376
17860W        W37394  13.171  12.091  13.771  0.1126  0.0980  0.1083
17861W        W37395   5.038  13.642   1.277 -0.1707  0.3220  0.0545
17862W        W37396  16.502   2.903   4.580 -0.0673 -0.1520 -0.2457
17863W        W37397   1.843   2.035  11.111 -0.3196  0.1795  0.0647
17864W        W37398  10.198   6.035  15.954  0.1024 -0.2266  0.1880
17865W        W37399   5.568  14.816   0.232  0.0173  0.3234  0.1486
17866W        W37400  15.885   3.869   1.761 -0.1090  0.0485 -0.0827
17867W        W37401  17.706   6.511   2.385 -0.0528 -0.0754  0.0709
17868W        W37402   3.304  16.869   0.659  0.3049  0.4168  0.0556
17869W        W37403  15.642   0.855  15.089 -0.1213  0.1548 -0.2202
17870W        W37404  16.666   2.077  14.213 -0.0025  0.1422 -0.2151
17871W        W37405   1.641   2.711   2.253 -0.0122 -0.1895  0.1556
17872W        W37406  16.804  13.868   3.651 -0.0597 -0.3572  0.0414
17873W        W37407   8.425  12.957   4.819  0.1034 -0.0182  0.0381
17874W        W37408   7.057  10.018   0.783 -0.1172  0.1757 -0.0237
17875W        W37409   4.911  10.726  14.223  0.1261  0.0861 -0.1021
17876W        W37410   4.098   6.919   2.578  0.0300 -0.2780 -0.0753
17877W        W37411   9.030  17.547   1.036  0.0660  0.0801  0.2834
17878W        W37412  12.189   9.981  12.455 -0.2005  0.0198 -0.0943
17879W        W37413   4.381   0.478  11.323 -0.1051 -0.2948 -0.2602
17880W        W37414  13.925   1.345  14.801 -0.0503  0.2833 -0.4897
17881W        W37415  15.474   5.640   0.731  0.0876 -0.0209 -0.0680
17882W        W37416   1.714  18.002   1.624  0.1566  0.1206 -0.0110
17883W        W37417   0.148  15.420   3.683 -0.2276  0.2052  0.2713
17884W        W37418   3.562   1.553   0.814 -0.0126 -0.3643  0.0217
17885W        W37419   8.777  17.132   4.155  0.0570 -0.1176  0.4006
17886W        W37420  14.961   4.960  15.980  0.1715 -0.1966 -0.0078
17887W        W37421  12.157  14.514   3.555 -0.0004  0.3068  0.1477
17888W        W37422  10.355  14.378  13.027  0.0224  0.0718  0.1958
17889W        W37423   8.307  16.387   4.344  0.0217 -0.0798  0.0041
17890W        W37424   1.427  13.533   1.428 -0.0539  0.0736 -0.1856
17891W        W37425   0.568  11.399  14.641 -0.1293  0.0983 -0.2796
17892W        W37426  11.772  12.821   4.948  0.0375 -0.0347  0.0731
17893W        W37427  15.932   9.324   3.308 -0.1014 -0.0197 -0.0076
17894W        W37428   1.757   1.706  12.666 -0.2029 -0.0277  0.0983
17895W        W37429   8.051  17.100  12.024 -0.0144  0.1430  0.0522
17896W        W37430   6.492   9.160   0.575 -0.1280 -0.0212  0.0378
17897W        W37431  11.721   7.686  11.800 -0.0683 -0.1457 -0.0594
17898W        W37432  15.493   0.081  15.956 -0.0569 -0.1875 -0.0567
17899W        W37433   7.743   5.031  14.859  0.0572  0.1602 -0.2692
17900W        W37434   7.928  16.812  15.974  0.0521  0.0456 -0.0147
17901W        W37435  12.378   5.991   4.154 -0.2805 -0.0978 -0.1323
17902W        W37436  17.262  11.388   2.882 -0.1834  0.1576  0.1046
17903W        W37437  10.023  13.438   2.182 -0.1342  0.0191  0.4525
17904W        W37438  12.164  10.089   2.384  0.0938 -0.3148 -0.0099
17905W        W37439   9.809  18.029   4.220 -0.1916 -0.0392 -0.0538
17906W        W37440  13.872   9.891  11.329  0.1036 -0.1101  0.1823
17907W        W37441  14.915  16.030  15.623 -0.0409  0.1165  0.0988
17908W        W37442   5.836  11.863  13.369 -0.0465  0.0543 -0.1893
17909W        W37443   1.557   6.075   0.743 -0.0359 -0.1294  0.2102
17910W        W37444   1.129   8.594  13.354 -0.0955 -0.2308  0.2404
17911W        W37445   3.563   7.467  12.269  0.2175  0.0119 -0.2016
17912W        W37446   6.418  14.710   3.504 -0.2173  0.1036  0.0565
17913W        W37447  11.396   0.497   3.130  0.0528 -0.3209  0.3620
17914W        W37448   3.617   0.453  15.212 -0.3516 -0.0883  0.1026
17915W        W37449  11.208  13.470  14.955 -0.0373  0.1192 -0.0680
17916W        W37450  11.300   7.936  12.638  0.1827  0.3691 -0.2166
17917W        W37451  14.318   6.054  12.750 -0.2325 -0.2640  0.4662
17918W        W37452  17.454   7.754  13.923  0.1650 -0.2142 -0.3843
17919W        W37453  10.780   8.403   1.048 -0.1550 -0.1377  0.0925
17920W        W37454  17.242  10.379  15.268 -0.0572  0.2775  0.2084
17921W        W37455   4.544   1.726   3.778  0.1547  0.1477  0.3040
17922W        W37456   5.830  11.296  13.973 -0.1208 -0.0932  0.3309
17923W        W37457  13.896   5.495   2.707 -0.1414  0.0102  0.0059
17924W        W37458  12.295   5.084  14.333 -0.1696 -0.2333  0.1200
17925W        W37459   4.805  14.901  14.638 -0.0679  0.2450 -0.0494
17926W        W37460   1.299   3.435  10.345 -0.0748  0.2097  0.1370
17927W        W37461   8.044   5.678   1.457  0.1530 -0.0217 -0.0494
17928W        W37462   7.378   0.789   2.822 -0.0174  0.3562 -0.1494
17929W        W37463  14.506  17.115  12.478 -0.0681  0.0782  0.1818
17930W        W37464   6.046   9.122   1.926 -0.0989 -0.1688  0.0324
17931W        W37465  16.054   4.333   0.178  0.0096 -0.2198 -0.0837
17932W        W37466   0.825  16.370   0.152  0.3251  0.1521  0.0324
17933W        W37467   1.943   1.276  11.804 -0.0728  0.0451  0.0478
17934W        W37468   7.424  18.046  14.678 -0.0836 -0.0497 -0.0446
17935W        W37469  14.000   8.360   4.773  0.0145 -0.3035 -0.1408
17936W        W37470   9.070  11.192   3.985 -0.0281 -0.1028 -0.2834
17937W        W37471   3.834   9.258   2.947  0.1997 -0.4627 -0.0030
17938W        W37472  16.137  16.513   0.927 -0.2421 -0.3289  0.0271
17939W        W37473   4.892  16.656   2.505  0.1600  0.4869  0.2519
17940W        W37474   8.083   9.943   4.922 -0.2534  0.0964  0.1513
17941W        W37475   7.759   4.887   1.935 -0.0289  0.1020  0.2094
17942W        W37476  15.611   0.968   3.357 -0.1233  0.0143 -0.0849
17943W        W37477  13.268   1.438   2.665 -0.0037  0.1511 -0.4426
17944W        W37478  17.721   4.248  14.168  0.1075  0.1336 -0.2785
17945W        W37479  15.346   6.913  11.738  0.1942 -0.3253  0.0886
17946W        W37480  15.673  14.012  10.804 -0.0330  0.1127 -0.1196
17947W        W37481   3.463   2.498  12.697 -0.0871 -0.0344 -0.2470
17948W        W37482   6.235   6.189  15.917  0.0499  0.0072  0.0236
17949W        W37483   7.036   2.256   2.867 -0.0642 -0.0138  0.3800
17950W        W37484   3.253   3.598   2.768 -0.1588  0.0820  0.0886
17951W        W37485   7.756   7.990   4.583 -0.0963  0.0593  0.1816
17952W        W37486   3.549   5.480  13.654  0.0666  0.1242  0.0250
17953W        W37487  14.894   5.635  13.873  0.2286 -0.4195  0.3550
17954W        W37488  13.388  16.546   3.538 -0.0834 -0.1092 -0.4935
17955W        W37489   9.812  11.331   4.572  0.0846 -0.1074  0.6116
17956W        W37490  17.095  13.169   5.501  0.0403  0.1021 -0.1891
17957W        W37491   1.127  15.832   3.346 -0.3091 -0.0367 -0.1105
17958W        W37492   9.022  14.345  15.004 -0.1355  0.3015 -0.1273
17959W        W37493  13.053   7.130   0.620 -0.1677 -0.1728 -0.1418
17960W        W37494   0.274   7.584   0.159 -0.1147 -0.0390 -0.2353
17961W        W37495   6.989   6.810  15.540  0.1556 -0.1133  0.1802
17962W        W37496   4.245   1.076   0.383 -0.1058 -0.0596 -0.1123
17963W        W37497  10.742  11.226   3.420  0.1491  0.3024 -0.1204
17964W        W37498   1.369   3.139   0.844 -0.0290  0.0651  0.0906
17965W        W37499   4.678  16.490   1.172  0.0163  0.3325 -0.1293
17966W        W37500   7.753   4.555   3.354 -0.0791  0.2887 -0.0910
17967W        W37501  15.502   3.689  15.192  0.1594 -0.2025  0.1763
17968W        W37502  18.030   0.711   5.159 -0.0827 -0.0994 -0.2801
17969W        W37503  17.140   2.072   1.476 -0.3137  0.0330  0.0160
17970W        W37504  14.010   2.122  14.372 -0.3662 -0.1975 -0.1341
17971W        W37505   9.890   1.561   1.068  0.2114  0.0067  0.0385
17972W        W37506  10.163  11.608  13.304  0.2547  0.1728  0.0162
17973W        W37507  17.671   5.631  11.199  0.4708  0.2488 -0.0416
17974W        W37508   7.089  11.385  15.187 -0.0308 -0.0658  0.0350
17975W        W37509  13.277  15.416  15.801  0.1685 -0.0692  0.0854
17976W        W37510   2.365  15.151   2.332 -0.1595 -0.0842 -0.0552
17977W        W37511   3.953  17.030   2.407  0.2589 -0.2746  0.2718
17978W        W37512   2.822  16.763  11.532  0.0763  0.1496 -0.0149
17979W        W37513   5.233  17.002   4.602  0.1604  0.1497  0.0485
17980W        W37514   2.341  16.803   1.536  0.0753  0.0750  0.2404
17981W        W37515   4.410   8.502  14.181  0.0025  0.0989  0.2064
17982W        W37516   8.485  16.446  15.407 -0.0570 -0.3890  0.0342
17983W        W37517   7.106  12.132   3.582 -0.3528  0.1081  0.1105
17984W        W37518  11.259   8.265  13.529 -0.1477 -0.1179  0.0523
17985W        W37519  10.219  13.824   1.701  0.1805  0.2891 -0.0785
17986W        W37520   0.693   2.105  13.423  0.2864  0.2327 -0.1145
17987W        W37521   2.355   7.865  15.065  0.2040 -0.2257  0.1413
17988W        W37522  16.992   6.392   2.448 -0.2419 -0.0762 -0.0265
17989W        W37523   3.523   8.936   2.666 -0.0406 -0.2011 -0.0441
17990W        W37524  16.254   4.013  14.528 -0.4354 -0.2412  0.3308
17991W        W37525   2.073  12.625   4.979 -0.3028 -0.1264 -0.0706
17992W        W37526   1.152   3.510  14.407 -0.0229  0.0049 -0.1698
17993W        W37527  14.672  15.008   5.032 -0.2191  0.1674  0.1155
17994W        W37528  13.996  13.759  10.493  0.0007 -0.0350  0.1075
17995W        W37529   8.800  17.337   0.563  0.0866 -0.2498 -0.0097
17996W        W37530   3.829  13.259   5.551 -0.2190 -0.2869  0.0052
17997W        W37531  10.499   4.040  14.281  0.1277 -0.0575 -0.0848
17998W        W37532   2.527   8.735   4.006 -0.2659 -0.2457 -0.1883
17999W        W37533   9.181  12.697   1.694 -0.0859  0.1424 -0.1363
18000W        W37534  10.107  15.061  13.017  0.1266  0.1816  0.1296
18001W        W37535   8.664   5.914   0.412  0.0859 -0.1335 -0.1216
18002W        W37536  17.431   6.702  11.809 -0.0332  0.0522 -0.0389
18003W        W37537   4.712   9.697   0.272 -0.1287 -0.1687 -0.2260
18004W        W37538   0.163  13.110   3.124 -0.0029  0.4851  0.0548
18005W        W37539  10.508   8.108  15.579  0.0261  0.0262  0.0803
18006W        W37540   9.321  16.316   3.043  0.0240  0.1098 -0.0326
18007W        W37541  15.905   4.784  10.374 -0.0373  0.2416  0.0441
18008W        W37542  16.019   9.700   1.053 -0.0117  0.3220 -0.1378
18009W        W37543   8.306   2.661  12.010  0.0445  0.0499  0.0007
18010W        W37544   5.767   2.373  12.970 -0.1974  0.1031  0.0409
18011W        W37545  15.029   9.371   0.118 -0.0025  0.1926 -0.0021
18012W        W37546   7.839   3.975  13.380  0.0175  0.2797  0.1792
18013W        W37547   5.246   0.007  14.334 -0.1011 -0.4070  0.0192
18014W        W37548  10.372  12.953  13.477 -0.1280  0.0031  0.2725
18015W        W37549  17.575  13.069   0.988  0.1396 -0.0165 -0.0004
18016W        W37550  15.798   3.965  14.292 -0.0955 -0.1499  0.3228
18017W        W37551   4.871   5.713  14.824 -0.0933  0.0881 -0.1571
18018W        W37552  17.645  11.120   1.657  0.3342 -0.1732 -0.1870
18019W        W37553  15.983   8.337   4.608  0.1061  0.0024 -0.0428
18020W        W37554   9.684  15.590   2.611  0.0486 -0.3173  0.0060
18021W        W37555  16.321   7.111   3.745 -0.0269  0.0005 -0.1736
18022W        W37556   1.524  11.456  12.406 -0.1045 -0.0227 -0.0649
18023W        W37557  12.441   2.202   4.457 -0.0728  0.0700  0.1010
18024W        W37558   7.768  12.244   2.950  0.2532 -0.0898 -0.2222
18025W        W37559   6.999   3.420   1.568  0.1287 -0.3269 -0.1069
18026W        W37560   6.259   4.294   1.826 -0.3415 -0.0044 -0.0796
18027W        W37561  12.318   8.863   2.273 -0.0425  0.0306 -0.0876
18028W        W37562  12.498   0.951   3.510  0.2680  0.1087 -0.3614
18029W        W37563  12.001   0.217  13.504  0.0129  0.1255 -0.4401
18030W        W37564  11.258  14.900   3.404 -0.3614 -0.2659  0.2363
18031W        W37565   2.684  14.583   0.111  0.0527 -0.0198  0.2374
18032W        W37566   1.671   7.838   3.600  0.2273  0.2999 -0.1269
18033W        W37567  16.981  15.216   3.465  0.0576  0.0686 -0.0089
18034W        W37568   4.036  18.160   1.965 -0.0468 -0.0594  0.2238
18035W        W37569  15.227  16.223  13.801  0.0576  0.2935  0.3378
18036W        W37570   2.293  18.108  13.920 -0.1485  0.0402  0.2310
18037W        W37571   6.539   2.702  13.036  0.0090  0.1966  0.0156
18038W        W37572  14.247  15.200  14.868 -0.0359  0.0114 -0.2740
18039W        W37573  16.583  15.223   0.427 -0.2279  0.1645 -0.2525
18040W        W37574   2.718  10.715   4.856  0.0797  0.2184  0.1948
18041W        W37575  13.542  12.073  15.737 -0.1774 -0.0984 -0.1794
18042W        W37576  12.965   6.599  12.415 -0.2371  0.0646  0.0205
18043W        W37577   0.816   8.344   0.907  0.0949 -0.1076 -0.1688
18044W        W37578   9.700   7.158   4.401  0.1488 -0.0006 -0.2810
18045W        W37579  13.093   6.995   2.435 -0.1192  0.0431 -0.0454
18046W        W37580  15.255  14.338  11.932 -0.2476 -0.1624 -0.1684
18047W        W37581  18.182   2.968   4.066 -0.0537 -0.0173 -0.0129
18048W        W37582  11.081  17.051   1.223 -0.1150 -0.0872  0.2725
18049W        W37583   0.208   9.146   2.030 -0.2316  0.0072  0.1109
18050W        W37584  15.012   2.710  13.901 -0.1962  0.1522 -0.0434
18051W        W37585  17.306  17.515  14.480  0.3353 -0.0517 -0.1027
18052W        W37586  11.587   4.559  14.706  0.2081 -0.1445 -0.1491
18053W        W37587  14.097   3.977   3.725 -0.1559 -0.2054  0.1612
18054W        W37588  12.826   4.067   2.886  0.1978  0.2684  0.2135
18055W        W37589   7.183  12.439   4.622  0.2816 -0.2875 -0.1735
18056W        W37590   9.044   4.298   1.735 -0.0498  0.0682  0.2981
18057W        W37591   6.555   5.136  11.962 -0.0098  0.0320 -0.1026
18058W        W37592  14.938   5.096   2.732  0.1388  0.1653  0.3738
18059W        W37593  13.791   5.327   3.601  0.1596 -0.1552 -0.1170
18060W        W37594  16.766   5.549   3.776  0.0178 -0.0714 -0.0355
18061W        W37595  17.459   5.478  12.490  0.0925 -0.1617  0.1723
18062W        W37596   9.701  11.038   1.115 -0.2187 -0.1280  0.1631
18063W        W37597  18.142  12.986  14.958  0.0714 -0.0430 -0.2611
18064W        W37598   6.761  18.045   1.646 -0.0416 -0.2072  0.0448
18065W        W37599  16.738   8.691  12.426 -0.0597  0.0642 -0.0440
18066W        W37600   6.177  11.847  12.420 -0.0662  0.0814  0.0566
18067W        W37601  11.067   6.981   4.771  0.3515 -0.0931  0.2818
18068W        W37602  10.412  12.558  13.122  0.1093  0.0448 -0.1484
18069W        W37603   2.667   1.577   3.545  0.0300  0.0752  0.2097
18070W        W37604  12.873  13.606  15.640  0.0469 -0.0457 -0.1264
18071W        W37605  14.088   5.247   4.566 -0.1733 -0.0770  0.0053
18072W        W37606   1.139   3.956  14.038 -0.1301 -0.0782 -0.3016
18073W        W37607  16.447  15.809  13.428 -0.0822  0.0103  0.0353
18074W        W37608  17.264   4.437   1.475 -0.1339 -0.1547  0.0617
18075W        W37609   9.325   8.327   3.675 -0.1949 -0.2694  0.1480
18076W        W37610   4.093   1.735  12.487  0.2723  0.1199 -0.1155
18077W        W37611   3.947   1.074   2.590  0.1778  0.0114 -0.1564
18078W        W37612   8.331   3.744   3.716 -0.2538 -0.0927  0.0509
18079W        W37613  11.050   5.339   0.442  0.2209 -0.0049 -0.3828
18080W        W37614   3.981   8.481  14.903 -0.2075  0.2914 -0.1222
18081W        W37615  16.067  12.309  11.472  0.2435 -0.1349  0.3123
18082W        W37616  11.456   2.704   1.763  0.1060 -0.0265 -0.0049
18083W        W37617   3.845   2.459  11.894 -0.1478 -0.2762  0.1679
18084W        W37618  10.919   5.275  14.626 -0.0288  0.2104 -0.1873
18085W        W37619  17.471   1.102   4.442  0.0737  0.0198  0.0292
18086W        W37620   8.367  10.651  14.410 -0.1574  0.0274  0.1665
18087W        W37621  12.713   5.089   3.929  0.2804  0.0126 -0.1521
18088W        W37622   2.975   3.125  10.765  0.0702 -0.3658  0.0149
18089W        W37623   0.913   4.020  12.698  0.1123 -0.2620  0.0860
18090W        W37624   9.497   3.969   4.199 -0.1852  0.2809  0.1222
18091W        W37625   7.342  16.804  11.472  0.1740  0.0104  0.3033
18092W        W37626   2.923  15.596   4.495 -0.0529  0.2061 -0.0847
18093W        W37627   5.483   0.920   3.300  0.1482  0.1318 -0.0518
18094W        W37628   3.941  16.749   3.802  0.0419 -0.1144 -0.1548
18095W        W37629   2.655   4.346   2.718 -0.0810 -0.2723 -0.0281
18096W        W37630   4.431   4.904   1.003 -0.0635  0.0334 -0.0436
18097W        W37631  13.819   0.715   4.694 -0.4078  0.0365  0.1271
18098W        W37632  10.441   7.265  15.152  0.0377 -0.0822 -0.0161
18099W        W37633   1.203  12.199   0.926  0.0496  0.0101 -0.0451
18100W        W37634  13.560  13.889  15.588  0.0196  0.2425  0.0193
18101W        W37635   0.492   2.299  14.609 -0.0150  0.0119  0.1055
18102W        W37636   1.589   9.953  15.712  0.1266  0.1419  0.0847
18103W        W37637   7.802   4.679  11.419  0.1599  0.1951  0.0420
18104W        W37638   6.181  17.329   2.256 -0.2389  0.3701  0.0628
18105W        W37639   5.098  15.811  11.682 -0.1577  0.0966 -0.2055
18106W        W37640  17.543   5.225   2.382 -0.0019  0.0520 -0.3157
18107W        W37641   2.676   5.290   4.309  0.5520  0.1346 -0.0381
18108W        W37642  16.935  10.538   0.722  0.2307  0.4608 -0.1304
18109W        W37643   6.280   1.928   0.589 -0.1221  0.0235 -0.0377
18110W        W37644   5.708  10.998   2.451 -0.0253  0.0249  0.1161
18111W        W37645   6.047  15.625   3.793  0.0372 -0.1558 -0.3048
18112W        W37646  12.378  10.619  11.631  0.0686  0.0897  0.1287
18113W        W37647   4.952  14.897  11.807  0.0719  0.1713  0.2366
18114W        W37648  11.984  17.056  15.559 -0.6428 -0.3695 -0.1209
18115W        W37649  12.437   1.639  11.509 -0.1582  0.1565 -0.1148
18116W        W37650  13.517   8.849   2.575 -0.1435 -0.0179 -0.2938
18117W        W37651  14.736   3.848   1.108  0.3736  0.0940  0.2673
18118W        W37652  14.063  15.767   2.426 -0.0124  0.0469  0.1395
18119W        W37653  10.166   4.924  14.033  0.2651 -0.1807  0.0648
18120W        W37654  17.545   1.144   3.965 -0.0510 -0.3443 -0.2067
18121W        W37655  16.033   3.133  14.580  0.0199  0.0638  0.0820
18122W        W37656  14.705   1.469   2.030  0.2938 -0.1914 -0.0803
18123W        W37657   6.929   1.121   2.564  0.0401 -0.0581  0.0924
18124W        W37658  13.247  13.600  11.867  0.0146  0.1732  0.1078
18125W        W37659   3.025   6.815  12.626  0.1125  0.1594 -0.0046
18126W        W37660  10.590  11.270   1.596 -0.0945  0.0700 -0.1010
18127W        W37661  10.669  15.189  15.957 -0.3704  0.0725  0.1794
18128W        W37662   5.716   9.723  12.274 -0.1075 -0.0207  0.1162
18129W        W37663   1.817   7.074   2.699 -0.1565  0.1560  0.1682
18130W        W37664   8.056   5.433  14.843  0.2506  0.2230 -0.0107
18131W        W37665  13.839  17.955   1.680 -0.1540 -0.1070  0.0776
18132W        W37666  16.251   2.407   4.855 -0.1277 -0.1776  0.3313
18133W        W37667  12.841   1.939  11.420 -0.2485 -0.0408 -0.1384
18134W        W37668   1.850   0.524  15.127 -0.3374 -0.4613  0.3717
18135W        W37669  12.122   3.332  14.195 -0.1872 -0.1573 -0.1671
18136W        W37670  10.443   7.498   1.946 -0.1104  0.2159 -0.0426
18137W        W37671  11.039   6.699  15.576 -0.1348 -0.1293  0.2253
18138W        W37672   4.216   7.718  15.212 -0.1854  0.3948 -0.0552
18139W        W37673  16.857   9.259   2.118  0.1447 -0.0602  0.1054
18140W        W37674  12.735   8.314  11.649 -0.0839 -0.0492 -0.0606
18141W        W37675   5.127  11.484  14.625 -0.2608  0.0126 -0.3467
18142W        W37676  14.816  13.115   2.104 -0.0335  0.1039  0.1260
18143W        W37677  10.280   0.957   0.675 -0.0164  0.1453  0.0385
18144W        W37678   5.708   9.451   2.210  0.1608  0.1570  0.2504
18145W        W37679  14.757  17.944  13.449 -0.1173  0.0047  0.0011
18146W        W37680   8.921  14.728   5.586  0.0570  0.0119 -0.3179
18147W        W37681   8.993   2.969   4.022  0.1043 -0.1680 -0.1393
18148W        W37682   7.629  11.480   5.215 -0.1961 -0.0555  0.0322
18149W        W37683   5.682  14.928   1.383 -0.0029  0.5145  0.0612
18150W        W37684  13.550   6.282   2.310 -0.0743  0.1636  0.0457
18151W        W37685   7.648   0.871   5.201  0.0187 -0.1294 -0.1456
18152W        W37686   9.723   9.174  11.874 -0.2671  0.0751 -0.2627
18153W        W37687  13.599   5.639   4.851 -0.1832 -0.0872  0.0640
18154W        W37688   3.871  12.375  11.860  0.2682 -0.1828  0.0383
18155W        W37689   2.081  16.951   2.007  0.1906  0.3404 -0.0294
18156W        W37690  17.203   2.483   4.780 -0.2147 -0.1392  0.2820
18157W        W37691  14.988  10.766   3.946 -0.1026  0.0417  0.1925
18158W        W37692   2.589   8.032   0.320  0.2424 -0.1303  0.0455
18159W        W37693  16.983  16.623   4.659 -0.3506  0.4721  0.2989
18160W        W37694   6.141  17.830   2.275 -0.1570 -0.0244 -0.0580
18161W        W37695   2.497   7.649   2.684 -0.1355  0.0484 -0.3625
18162W        W37696   4.115   2.322   2.303  0.1989 -0.2203 -0.1447
18163W        W37697   1.032   7.286   3.495 -0.0979 -0.0640 -0.0627
18164W        W37698   3.798  13.645  14.398  0.1546 -0.3382  0.0189
18165W        W37699   0.777  16.640   2.319 -0.0119 -0.0314 -0.1970
18166W        W37700  13.354  15.712   2.002  0.2373  0.0568  0.1102
18167W        W37701  11.853  12.000  15.785 -0.2029 -0.2603  0.0415
18168W        W37702  15.275  16.348   2.456 -0.1006  0.0364 -0.0983
18169W        W37703   3.948  15.185   4.735 -0.3376  0.3183  0.0065
18170W        W37704   6.352   3.438   0.889 -0.1683  0.0929 -0.3145
18171W        W37705   8.743   6.856  12.011  0.2050  0.1330  0.1297
18172W        W37706   0.433   1.223   3.849  0.2379  0.0685  0.1403
18173W        W37707   9.889   2.968   3.780  0.0836 -0.1585 -0.2318
18174W        W37708   3.772   7.912  12.431 -0.0043  0.2140  0.2593
18175W        W37709  13.336  11.585  12.333  0.1572  0.1513 -0.0775
18176W        W37710  11.589   6.106   0.417  0.1299 -0.2539 -0.2683
18177W        W37711  15.901   8.309   2.138 -0.2821 -0.0552 -0.2832
18178W        W37712  12.250   0.113  13.103  0.0047  0.0898 -0.0276
18179W        W37713   9.812   7.166   3.032  0.2695  0.1793  0.3168
18180W        W37714  15.408  15.805  14.158 -0.0307  0.0256  0.1892
18181W        W37715   9.886  11.984   0.218  0.2641 -0.2226 -0.3410
18182W        W37716  10.214   9.577   2.106 -0.1885 -0.1257 -0.1993
18183W        W37717   2.419   6.059  12.177  0.0641 -0.0822  0.1571
18184W        W37718   7.104   1.201  11.528 -0.2565 -0.2327 -0.0503
18185W        W37719   6.487   9.776   4.700 -0.1657  0.2108 -0.2475
18186W        W37720  14.472  12.007   4.628 -0.1164  0.0027  0.0186
18187W        W37721  15.605   9.723  13.203  0.2039  0.1668 -0.1750
18188W        W37722  16.254  14.633   1.795  0.3046 -0.3286 -0.0161
18189W        W37723   8.420   2.850  14.243 -0.1920  0.3473  0.4594
18190W        W37724  17.762   9.836  15.044  0.0312  0.1884 -0.0256
18191W        W37725  17.544   2.892  13.023 -0.0628 -0.0681  0.1662
18192W        W37726   3.883  16.053  15.169 -0.2219 -0.1142  0.3099
18193W        W37727   4.528  12.345   3.638 -0.0336 -0.0021  0.1189
18194W        W37728   5.710   6.167   3.014  0.1114  0.0179 -0.1989
18195W        W37729   5.988  13.337  11.392 -0.2567 -0.0330 -0.0777
18196W        W37730  14.084   7.261  12.130  0.0835  0.0985 -0.2375
18197W        W37731   4.677   5.659   1.100 -0.3294  0.0891  0.4688
18198W        W37732   6.203  13.650   1.626  0.1026 -0.0121 -0.0475
18199W        W37733  15.204   2.413  15.712 -0.2115 -0.1980 -0.2677
18200W        W37734  10.954   4.070  14.052  0.1429 -0.0734 -0.1381
18201W        W37735  17.604   5.989  12.499 -0.0196  0.0736  0.1826
18202W        W37736   9.023  10.342   1.408 -0.0932 -0.0400  0.0375
18203W        W37737   5.458   1.267  13.703 -0.3818 -0.1960  0.0113
18204W        W37738  13.238   0.826   1.915 -0.2356 -0.0585 -0.0140
18205W        W37739  11.283  17.119   0.737 -0.0992  0.1950 -0.2467
18206W        W37740  10.745   6.316  15.376 -0.1002 -0.0177  0.3022
18207W        W37741   2.516   8.489   2.524 -0.1983  0.0080  0.0163
18208W        W37742   2.395   7.111  14.034  0.2714 -0.0658  0.2531
18209W        W37743   7.151   8.313   2.862  0.0770 -0.0290  0.0263
18210W        W37744  12.152  16.026  15.765 -0.1692  0.2994  0.0318
18211W        W37745   2.921  15.701   3.528 -0.3044  0.1940  0.1531
18212W        W37746   7.458  12.006   4.442  0.2284  0.1094  0.1057
18213W        W37747   0.653  11.006  12.298  0.5255  0.0854 -0.2009
18214W        W37748  14.836   4.076   1.864  0.0098  0.0513 -0.1546
18215W        W37749  10.034  14.711  15.341 -0.0008  0.0553 -0.0452
18216W        W37750   9.022  10.099   4.808 -0.1492 -0.0392  0.3457
18217W        W37751  11.173  10.278   4.027 -0.1246 -0.2750 -0.2359
18218W        W37752  11.987  12.271  14.895  0.1093 -0.2086 -0.1057
18219W        W37753  10.321   4.880   2.354  0.0226 -0.1047  0.0433
18220W        W37754  14.336  13.810   0.889  0.0785  0.4846 -0.3157
18221W        W37755   0.813  16.747  12.196 -0.0403  0.3563  0.0530
18222W        W37756   0.657   0.898   1.738  0.1437 -0.1892 -0.1877
18223W        W37757  10.339   8.641  11.666  0.1784 -0.1827  0.0826
18224W        W37758   8.821  14.191  11.498  0.0479 -0.3177 -0.0464
18225W        W37759   3.594   1.681  12.763  0.1127 -0.1030  0.1263
18226W        W37760   7.227  13.844  12.505  0.0807  0.2795 -0.0851
18227W        W37761   1.613   3.476   3.606  0.0269 -0.2669  0.1781
18228W        W37762   8.315  16.126   0.905 -0.0531  0.2761 -0.1100
18229W        W37763  10.310  12.333  12.707 -0.0662 -0.0477  0.1420
18230W        W37764  11.851   0.298   3.051  0.1199 -0.0318 -0.2567
18231W        W37765  11.745   7.868   0.790 -0.1719  0.1907 -0.0730
18232W        W37766  15.209  13.737  12.943  0.2045  0.1568 -0.2127
18233W        W37767   7.647  13.965  14.558 -0.2324 -0.2229  0.0614
18234W        W37768  17.235   0.041  15.138 -0.0925 -0.1346 -0.1235
18235W        W37769   5.330  10.505  11.553 -0.0693 -0.0764  0.1064
18236W        W37770  14.823   9.492  13.126 -0.0720 -0.0825 -0.1122
18237W        W37771  10.349   3.867  13.008 -0.1751  0.0757  0.3033
18238W        W37772   4.915  11.707   3.999 -0.1992  0.3840  0.0661
18239W        W37773   8.988   8.781   2.697  0.3715  0.4116 -0.4785
18240W        W37774  17.133   0.913   0.244  0.1106  0.1166  0.0353
18241W        W37775  15.621   3.365   0.999 -0.2225 -0.2025  0.1809
18242W        W37776   0.571   9.164   0.998 -0.0171  0.3784 -0.0763
18243W        W37777  16.698   1.231  13.054  0.0206  0.2108 -0.0332
18244W        W37778   4.599   4.580   0.140 -0.1450  0.0783  0.3583
18245W        W37779   4.505   5.700  12.117  0.1062  0.0897 -0.0239
18246W        W37780  10.341  16.329   0.066 -0.1355 -0.0956  0.2810
18247W        W37781   8.642  14.934   3.738  0.0069  0.0550 -0.2713
18248W        W37782   3.416  11.320   0.891 -0.0361  0.0482 -0.2576
18249W        W37783  13.097  10.300   4.493 -0.0014 -0.2313 -0.1774
18250W        W37784   9.964   2.401  13.733  0.0517 -0.0435 -0.3971
18251W        W37785  11.246   4.759   4.048  0.0153  0.0073 -0.0696
18252W        W37786   8.901  15.512   1.624  0.0776 -0.1657  0.0946
18253W        W37787   2.958   9.672  11.281 -0.0578  0.1192  0.2009
18254W        W37788  12.331  13.585  13.613 -0.0812  0.3640  0.0621
18255W        W37789   4.956   9.661  14.547 -0.1079  0.0594  0.0175
18256W        W37790  17.107  15.135  14.909 -0.3108  0.1338  0.1122
18257W        W37791   0.443   7.838  12.119 -0.2188  0.2642  0.0213
18258W        W37792  13.674   6.509  13.771 -0.1390  0.0839 -0.1851
18259W        W37793   8.860   6.055  12.490  0.3333  0.0684 -0.0212
18260W        W37794   6.019   2.689   4.369  0.5019  0.0928  0.0959
18261W        W37795  11.744   3.527   1.075  0.0272 -0.0775  0.1429
18262W        W37796   4.282   6.023  11.729  0.0772 -0.0316 -0.2433
18263W        W37797  18.106   6.819  12.464 -0.0122  0.1669 -0.4523
18264W        W37798   8.796  15.968  14.622  0.0023  0.0244 -0.0497
18265W        W37799   2.999   5.393   2.672 -0.0529 -0.4666 -0.2674
18266W        W37800  15.957  12.124  15.499 -0.1172  0.2225  0.1072
18267W        W37801  15.537   6.158  14.446 -0.1494  0.2086 -0.2236
18268W        W37802   2.185  10.739   1.856  0.1800 -0.2104 -0.1920
18269W        W37803   9.933  16.053  11.532  0.0141 -0.2030 -0.0255
18270W        W37804  11.243  14.937  14.055 -0.1605  0.1601  0.0789
18271W        W37805  15.625  14.627  12.212  0.2878 -0.2135 -0.2775
18272W        W37806   6.524  12.045  16.026 -0.0835  0.0020 -0.0406
18273W        W37807   3.564   7.102  12.869 -0.3289 -0.0116 -0.0039
18274W        W37808   1.870   4.080  12.612 -0.2519  0.1245  0.1354
18275W        W37809   3.950  15.684   0.544 -0.1080  0.1619 -0.0226
18276W        W37810  14.300   3.054  11.060 -0.1622  0.0666  0.2137
18277W        W37811  10.650  14.049   1.608  0.1941 -0.0180  0.0710
18278W        W37812  16.005  16.860  13.280  0.2213  0.1872  0.2507
18279W        W37813  17.554   1.966   2.378  0.0298  0.2459  0.1103
18280W        W37814  14.360   6.591   4.515 -0.1166 -0.0191 -0.1368
18281W        W37815   3.143  15.506  11.533 -0.2181  0.0935  0.0619
18282W        W37816  12.127   4.287  12.819 -0.0763  0.1585 -0.3668
18283W        W37817   4.614   3.992   3.890 -0.1587  0.2763 -0.0731
18284W        W37818   8.110  15.899   0.503 -0.3613 -0.0140 -0.0257
18285W        W37819   0.969  16.551   2.966  0.2647  0.1198 -0.3810
18286W        W37820   9.867  15.038  11.682  0.1256  0.0516 -0.0837
18287W        W37821  10.840   1.920  12.851 -0.2589 -0.1154  0.1439
18288W        W37822  16.080  17.600   0.130 -0.1385 -0.0677  0.0623
18289W        W37823   5.069  16.924  12.187  0.0401  0.0254  0.4039
18290W        W37824  11.596  12.005  14.177 -0.2580 -0.1276  0.2624
18291W        W37825  14.289  15.694  15.032 -0.2330 -0.1334  0.1149
18292W        W37826  11.436   9.181   0.764  0.0030  0.1803 -0.2524
18293W        W37827  15.225   8.937  12.717  0.0402  0.1917  0.2443
18294W        W37828  14.635   9.633  13.594  0.1105  0.0322  0.1500
18295W        W37829   2.505  15.691   2.139  0.1630  0.0753 -0.1977
18296W        W37830  16.130   9.360   2.793 -0.1556 -0.0967 -0.1478
18297W        W37831   5.844  13.562  12.418 -0.1908  0.1109 -0.0446
18298W        W37832  16.627   2.575  15.028 -0.0215 -0.1280 -0.1952
18299W        W37833  16.951   2.032   4.703  0.1133  0.1586 -0.3396
18300W        W37834  10.442   0.039  15.035 -0.1128  0.1345 -0.1433
18301W        W37835   0.083   8.440   0.145  0.0149  0.1137  0.2208
18302W        W37836  15.485  10.707   4.621 -0.1064  0.0104 -0.2539
18303W        W37837   8.724  15.606   2.961  0.0914 -0.0262 -0.1105
18304W        W37838  12.246   5.632  13.503  0.4222  0.5245  0.0721
18305W        W37839   2.090   5.469   1.154 -0.0752  0.1287 -0.1716
18306W        W37840   3.740  17.711  13.385 -0.3042  0.0037 -0.0986
18307W        W37841   1.783   2.168   0.489  0.2944 -0.0649  0.1280
18308W        W37842  17.134  14.545   1.639 -0.4289 -0.0989  0.0368
18309W        W37843  16.444  15.221  12.717  0.1043  0.0393  0.1911
18310W        W37844  17.852   2.360  13.328 -0.0037  0.1752  0.1457
18311W        W37845   3.428  14.704  15.199  0.0125 -0.0431 -0.0562
18312W        W37846   2.559  15.634  15.856  0.0896  0.2765  0.1005
18313W        W37847  16.220  18.082  15.188 -0.1668  0.0162  0.2428
18314W        W37848   7.350  10.804  11.747 -0.1848 -0.0917  0.1206
18315W        W37849  12.509   9.307  11.818  0.0226 -0.0625 -0.0446
18316W        W37850   5.538   0.367  14.146  0.1142  0.0630  0.0561
18317W        W37851   1.606  14.479   4.338  0.2666 -0.4209 -0.0165
18318W        W37852   6.700   1.704  11.435 -0.0395  0.1935  0.0051
18319W        W37853  12.952   8.338  13.583  0.0485 -0.1228  0.0835
18320W        W37854  10.253   9.275   3.325  0.1077 -0.2716 -0.1315
18321W        W37855  13.341   7.004   0.272 -0.2709 -0.1228 -0.3686
18322W        W37856  13.551  17.322  15.271 -0.1764  0.2025 -0.0290
18323W        W37857  14.101  12.158  13.579 -0.1095  0.0402  0.1485
18324W        W37858   4.386  10.008   1.125  0.1590 -0.0232 -0.0711
18325W        W37859  16.898   9.564  14.859 -0.0605  0.2350 -0.0402
18326W        W37860  12.697   8.200   2.592 -0.2826  0.1399  0.0839
18327W        W37861   4.902   4.717   1.264 -0.0005 -0.0179  0.2802
18328W        W37862   1.448  16.466  11.042 -0.1175  0.0276 -0.0558
18329W        W37863   6.206   4.302   0.291  0.2938  0.1725  0.0825
18330W        W37864  10.368   1.702   3.754  0.1015  0.0143 -0.0165
18331W        W37865  14.890   3.430   3.062  0.3765  0.1608  0.2352
18332W        W37866   7.596  13.967   1.425 -0.0636 -0.2034 -0.1413
18333W        W37867   2.277   2.232   3.447 -0.1175  0.0057 -0.0769
18334W        W37868   0.176  13.711   0.665 -0.1147 -0.3368  0.2578
18335W        W37869   6.871  14.263  14.493 -0.1596  0.0697  0.3473
18336W        W37870  12.327  12.614  13.406 -0.0332 -0.0893 -0.1417
18337W        W37871   5.948   3.399  12.075 -0.1187 -0.1356  0.1527
18338W        W37872   9.682   1.460  12.768  0.0119 -0.1379 -0.1384
18339W        W37873   1.608   0.329  13.298  0.0401  0.0717 -0.2024
18340W        W37874  11.198   7.216   2.426 -0.0331 -0.1543 -0.1967
18341W        W37875   8.013  10.435   2.815 -0.0131 -0.3850  0.1178
18342W        W37876  10.070  18.110  15.805 -0.1065 -0.0398  0.1470
18343W        W37877   1.552   0.444   1.972  0.1138  0.1434 -0.1253
18344W        W37878   1.047   1.053  13.377 -0.0106  0.0016 -0.3223
18345W        W37879  10.355   5.546  15.929  0.1537 -0.0799  0.1340
18346W        W37880   0.025   4.791  14.603 -0.1173 -0.0646 -0.2049
18347W        W37881  15.705   0.290  13.726 -0.1790 -0.3294 -0.1052
18348W        W37882   7.345  12.342   5.124 -0.2562 -0.1244 -0.2456
18349W        W37883  16.534   5.540   3.322  0.4479  0.0124  0.0502
18350W        W37884   1.503   6.779   3.816 -0.0131  0.2071  0.3136
18351W        W37885  10.261  10.347  15.048  0.0982 -0.0569 -0.1319
18352W        W37886   5.730   1.321  12.345  0.1921 -0.0927 -0.0174
18353W        W37887  15.315   6.710   2.585 -0.0590  0.1766 -0.1080
18354W        W37888  17.326   9.434   3.571 -0.0268 -0.0268 -0.1255
18355W        W37889   4.160   4.351   3.818 -0.2940 -0.0121  0.0158
18356W        W37890  14.185   4.109   0.447 -0.0745  0.1729  0.1054
18357W        W37891  12.650   9.584  13.416  0.0266  0.1814  0.2306
18358W        W37892  11.530   5.226  10.847 -0.0133 -0.1588 -0.0697
18359W        W37893   6.014   6.092   2.452  0.1829  0.2400 -0.0168
18360W        W37894   5.214   9.819  12.152  0.0403  0.1659 -0.0037
18361W        W37895  16.538  16.225   0.956  0.0009 -0.0229  0.1821
18362W        W37896  10.576   8.669   3.466 -0.2025 -0.0995 -0.1313
18363W        W37897   1.686   2.264   2.966  0.0643 -0.0278 -0.0903
18364W        W37898  14.117  11.623   1.850 -0.0371 -0.2243 -0.2235
18365W        W37899  10.785  15.556   0.719 -0.0460 -0.0733 -0.0583
18366W        W37900   5.745  16.705  11.508 -0.2082  0.0131  0.1683
18367W        W37901  16.466   7.320  14.422  0.0090  0.1519  0.1575
18368W        W37902  10.326   8.352  13.081 -0.2898 -0.1717 -0.0623
18369W        W37903  15.120  17.532  10.891 -0.0196 -0.1413 -0.1956
18370W        W37904  17.302  17.147  12.062 -0.2830 -0.1508 -0.0460
18371W        W37905   3.779   3.285   0.508 -0.0363  0.0287 -0.2649
18372W        W37906   2.505   9.350  14.076 -0.1662  0.1475 -0.1899
18373W        W37907   5.586  14.227  12.918  0.2148 -0.1700 -0.1739
18374W        W37908   6.633  15.005  11.567  0.0880  0.1438 -0.3527
18375W        W37909   8.434  11.016  13.856 -0.2316 -0.2007 -0.5033
18376W        W37910  13.120   0.520   4.077 -0.2462  0.3721  0.2553
18377W        W37911   5.266  17.441  12.881 -0.4132  0.1380 -0.0780
18378W        W37912   4.721   7.143  14.705 -0.0630 -0.1773 -0.1521
18379W        W37913   7.893  11.132  13.830  0.2088  0.1165 -0.1352
18380W        W37914  15.411   4.594  14.842  0.1407  0.1748 -0.3655
18381W        W37915  16.554   0.708  11.405  0.0945  0.0211 -0.0390
18382W        W37916  15.922   9.892  14.847 -0.0130 -0.1310  0.0840
18383W        W37917  18.158  15.420  13.881  0.1464  0.2668  0.2304
18384W        W37918   1.717   9.029  11.666 -0.0326  0.1753 -0.3547
18385W        W37919   3.056   1.114  11.116 -0.0360  0.0944 -0.2924
18386W        W37920  11.534   0.727   0.447  0.1713  0.2334 -0.0886
18387W        W37921  16.715  15.725   0.130  0.2148  0.1935  0.0539
18388W        W37922  16.958   9.567  15.344  0.1193  0.0156 -0.2545
18389W        W37923   0.380   1.735   2.155 -0.1127 -0.3385 -0.1117
18390W        W37924   2.738   4.746   4.182 -0.2062  0.2023 -0.0278
18391W        W37925   1.299  15.512  13.999  0.1618 -0.1639 -0.1085
18392W        W37926   2.986   2.378   1.001  0.1154 -0.1340  0.0563
18393W        W37927   3.262   2.867   0.852 -0.1128 -0.4441 -0.1627
18394W        W37928   2.870   8.222  12.153  0.0438  0.0430 -0.1053
18395W        W37929   1.637  15.619   2.717 -0.0267  0.1933 -0.1102
18396W        W37930  12.743   7.374   4.151  0.0842 -0.0399 -0.0332
18397W        W37931  13.748  10.221   3.673  0.2899  0.2968 -0.1702
18398W        W37932  13.753   3.621   3.060  0.2513  0.0480 -0.1525
18399W        W37933   8.797   2.649  13.962 -0.1360 -0.0008 -0.0874
18400W        W37934   7.840  13.059   1.388  0.2136  0.1592  0.2437
18401W        W37935  10.652   8.316  13.606  0.1246  0.1954 -0.0395
18402W        W37936  10.099  17.156  11.068  0.1233 -0.2353  0.0385
18403W        W37937  12.843  10.111   1.814 -0.0784 -0.0575 -0.0383
18404W        W37938  10.619  13.014   2.808  0.0763  0.1368 -0.0211
18405W        W37939   6.448   9.401  13.342  0.2182 -0.0531  0.0640
18406W        W37940  12.706   8.696  15.220 -0.0684 -0.3298  0.0505
18407W        W37941  18.013   6.828   3.354 -0.2434  0.1733 -0.1102
18408W        W37942  12.921   4.776   1.914 -0.1562 -0.1911 -0.0562
18409W        W37943  14.704   5.462   1.802  0.1786 -0.1834 -0.1046
18410W        W37944  16.540   2.040  13.676  0.0532 -0.0404 -0.1528
18411W        W37945  14.695   3.577  12.771 -0.1002  0.2793 -0.0129
18412W        W37946   5.718   5.347  14.275 -0.1630  0.1978  0.0540
18413W        W37947  12.229  11.340   1.054  0.0515 -0.0096  0.3817
18414W        W37948   4.776   6.366  14.250  0.0087 -0.2302 -0.1555
18415W        W37949  13.068   9.456  13.087 -0.0412 -0.2593 -0.4453
18416W        W37950  15.598   0.803  13.672  0.2648  0.0267  0.1283
18417W        W37951  14.622  17.750   3.457 -0.0271 -0.0179  0.2433
18418W        W37952   2.988  10.221  15.623 -0.2115 -0.3440 -0.0209
18419W        W37953   1.809   5.061   1.261 -0.0293  0.1710  0.2926
18420W        W37954  15.161  13.459  11.903  0.1455  0.0242 -0.0301
18421W        W37955  13.709   8.749   4.045  0.0655  0.1671 -0.1126
18422W        W37956   3.731   9.953  12.865 -0.1058  0.1018  0.0587
18423W        W37957  15.553   8.894   3.235  0.1286  0.1664 -0.0795
18424W        W37958  12.863  10.598  14.237 -0.3267 -0.0012 -0.0972
18425W        W37959   1.837  12.658   1.656  0.2193  0.0222 -0.0207
18426W        W37960   4.815   9.079   1.038 -0.2744  0.0203 -0.1391
18427W        W37961   8.629  12.970  14.031 -0.0261  0.0979 -0.2197
18428W        W37962   7.941   2.777  12.764 -0.1775  0.0774 -0.0719
18429W        W37963   6.862   5.135  11.136 -0.0421  0.0332 -0.4610
18430W        W37964  11.042  11.791   1.589  0.2758 -0.1892 -0.2322
18431W        W37965  13.933  15.336   0.936 -0.1305  0.1273  0.2175
18432W        W37966   6.862  13.534  10.654 -0.1558 -0.0389  0.2813
18433W        W37967  17.217   5.193   2.706 -0.1521 -0.2695 -0.2375
18434W        W37968  15.437   1.863  14.732  0.0402  0.0982  0.2696
18435W        W37969  17.098   5.852   1.332  0.3005  0.0185  0.0299
18436W        W37970   6.008  17.444   5.812  0.4062 -0.0133  0.2014
18437W        W37971   0.507  10.607   0.400 -0.0533 -0.0336  0.1291
18438W        W37972   9.183  11.262  14.240 -0.1010  0.0466 -0.0137
18439W        W37973  16.396  10.925  11.625  0.0140  0.0329  0.0281
18440W        W37974   2.756   4.064  12.467 -0.1777 -0.1307  0.2034
18441W        W37975   1.458  11.613  12.902 -0.0379 -0.0680  0.2795
18442W        W37976   7.605   9.706  12.938 -0.0933  0.1561  0.1952
18443W        W37977  10.752   1.761   2.254 -0.2818 -0.2614 -0.1009
18444W        W37978   9.559   9.420  13.308  0.0889 -0.0334  0.0575
18445W        W37979   6.897  13.123  15.229  0.1090 -0.2925 -0.0286
18446W        W37980  14.955  15.078   0.251  0.0212 -0.1605 -0.2758
18447W        W37981   6.254   4.704  11.074 -0.1306  0.2141  0.0479
18448W        W37982  16.755   2.303   2.159  0.3021  0.1103 -0.0816
18449W        W37983   2.299   9.718   0.042  0.0777  0.0053  0.1151
18450W        W37984   3.186   0.735  12.670  0.2383  0.2790 -0.2648
18451W        W37985   2.282   4.433  15.934  0.1722 -0.1585 -0.0177
18452W        W37986  16.370   3.448  11.727  0.2605  0.0462  0.1422
18453W        W37987   2.365  13.195   1.334 -0.1020  0.2092 -0.0763
18454W        W37988   9.324  14.453  15.973  0.2061  0.5431 -0.0500
18455W        W37989   3.979   5.104  14.907  0.2278  0.0850  0.0751
18456W        W37990   0.088   8.001   0.415  0.3230 -0.2240 -0.0027
18457W        W37991   4.541   9.493  14.192  0.1429  0.0862  0.3789
18458W        W37992   9.382   1.085  14.209 -0.0829 -0.1458 -0.0088
18459W        W37993  12.674  14.062   4.847 -0.0812  0.0393  0.1837
18460W        W37994  16.234   0.904   1.264  0.2207 -0.1551  0.0666
18461W        W37995   5.768  13.913   3.213  0.1980 -0.4433  0.1248
18462W        W37996   2.290   5.928   3.626  0.2852  0.1772  0.0079
18463W        W37997   4.398   7.937  13.679 -0.0232 -0.0045 -0.1144
18464W        W37998  17.226  13.656  15.092  0.2379 -0.1709  0.2078
18465W        W37999  12.271  14.146   1.973 -0.0250  0.1165 -0.0837
18466W        W38000   8.387   2.057  15.308  0.2231 -0.0286  0.4353
18467W        W38001  16.260   7.618  12.556 -0.1822  0.4947 -0.0089
18468W        W38002   6.578   7.255   2.037  0.1997  0.0413  0.1790
18469W        W38003  16.937   0.584   3.497  0.0154 -0.1111 -0.1872
18470W        W38004   5.431   6.358   0.167  0.2328 -0.0631 -0.0352
18471W        W38005   4.796   1.557   3.096  0.0631 -0.1686 -0.2469
18472W        W38006   6.570   9.638  11.439  0.1568 -0.2297  0.0403
18473W        W38007   9.849  10.825  13.836 -0.1339 -0.2138  0.3575
18474W        W38008  15.876  16.176  15.460  0.1941  0.1324  0.2465
18475W        W38009  12.068   3.132   0.873  0.1741 -0.1500  0.0081
18476W        W38010  10.678  16.641  13.229  0.1205  0.1984 -0.1009
18477W        W38011  18.132   5.234   0.761  0.1361  0.1466 -0.1338
18478W        W38012  16.864   2.354   1.154  0.2466  0.1567  0.0210
18479W        W38013  11.237   5.508  14.991  0.0122 -0.0213 -0.1675
18480W        W38014  17.105  14.682  11.772 -0.1382 -0.0414 -0.0707
18481W        W38015   4.495   1.129   3.181 -0.1016 -0.1888 -0.0152
18482W        W38016  12.904   0.939  11.180  0.1848 -0.0276  0.1230
18483W        W38017   3.118   3.822  12.236  0.0671  0.3516  0.0024
18484W        W38018   3.140  14.931  13.302 -0.0826  0.0758 -0.0269
18485W        W38019  10.072   2.130  13.313 -0.2547  0.0037  0.0783
18486W        W38020   1.750   9.309  14.918  0.1680  0.0712  0.0810
18487W        W38021  13.166   6.115  15.513  0.0165 -0.0829  0.1443
18488W        W38022  15.026   6.966  15.557 -0.0442 -0.0546 -0.1125
18489W        W38023  16.223   3.904  15.764 -0.0225  0.3238  0.3021
18490W        W38024   9.884   0.482   0.453 -0.2709 -0.2812 -0.1620
18491W        W38025   8.651  13.330  14.865  0.2512 -0.3071 -0.2576
18492W        W38026   6.284   8.873   4.413  0.3123 -0.3427 -0.0355
18493W        W38027  14.331  16.784   5.031 -0.1176 -0.1017 -0.0061
18494W        W38028  12.700   0.178  13.996  0.0495  0.0384  0.0226
18495W        W38029  14.474   7.524  15.961  0.2127  0.3578 -0.1381
18496W        W38030  16.926   8.040  12.978  0.2422 -0.0292 -0.0652
18497W        W38031  15.665   7.390   4.575  0.1737 -0.1105 -0.3102
18498W        W38032   8.212   6.236  10.888  0.1395  0.2014  0.1243
18499W        W38033   1.727   1.756   2.268 -0.1089  0.0517  0.0278
18500W        W38034  16.307   4.739  14.051  0.0095  0.1984  0.1327
18501W        W38035  16.447   6.558   1.218  0.1207  0.1461  0.1441
18502W        W38036   8.768   0.263  14.351  0.2046  0.0761  0.2733
18503W        W38037  11.705  14.148  15.209  0.2694 -0.4160  0.2060
18504W        W38038  10.114   7.459  16.004 -0.0252  0.0301 -0.1919
18505W        W38039   2.151   5.141  15.216 -0.1768 -0.1131 -0.0400
18506W        W38040  17.721  10.795  13.665 -0.2178  0.1753  0.2418
18507W        W38041   3.504  13.558  10.919  0.1842 -0.2821 -0.1036
18508W        W38042   4.449  11.572   1.912 -0.0318  0.0954  0.0230
18509W        W38043   9.013   1.203   3.829 -0.3788  0.1228  0.0196
18510W        W38044   9.621  15.076   2.665 -0.0365  0.0985  0.2223
18511W        W38045   9.825   5.113   2.593  0.0357  0.0511  0.0511
18512W        W38046   7.717  17.288   0.665  0.0696  0.0754  0.0074
18513W        W38047  11.403  14.223   2.081 -0.1719 -0.0125 -0.1989
18514W        W38048  14.451   5.365  12.983 -0.2570 -0.2207  0.1961
18515W        W38049  16.606   8.386  15.456 -0.0341  0.1491  0.2102
18516W        W38050  10.765   5.118   4.191 -0.0076 -0.0523  0.0894
18517W        W38051  15.946   2.656   1.526 -0.3949 -0.3228 -0.4564
18518W        W38052   8.241   0.514  14.100 -0.1413  0.0712 -0.1120
18519W        W38053   9.081   8.375  12.083 -0.1684 -0.2549 -0.0466
18520W        W38054   7.331   9.400  13.891 -0.1456 -0.1678  0.1303
18521W        W38055   6.189  13.527   4.037  0.0632 -0.2035  0.0027
18522W        W38056  14.946  12.332   0.424 -0.0612 -0.0293  0.0799
18523W        W38057   5.556  17.732  10.315  0.0053  0.0608  0.0257
18524W        W38058   1.948  14.154  12.419  0.2712 -0.0007  0.1589
18525W        W38059  11.150  17.894  13.069  0.1322 -0.1860  0.2415
18526W        W38060  12.140  17.726   0.700  0.0215  0.4409 -0.0410
18527W        W38061   2.188  17.252  15.160 -0.0080  0.4408 -0.0193
18528W        W38062   4.348   9.460  15.600  0.0157 -0.5662  0.1492
18529W        W38063   3.217   4.755  16.054  0.0145 -0.3221  0.0892
18530W        W38064  16.726  17.588   1.191 -0.0329  0.0133  0.0185
18531W        W38065   7.509   3.249   1.656 -0.0845  0.0281 -0.0404
18532W        W38066  11.586   7.395   2.064 -0.0992  0.2835 -0.0089
18533W        W38067   2.289  10.990   4.120 -0.0460  0.2285  0.1592
18534W        W38068  13.452  10.690  12.751  0.0799  0.0294 -0.0313
18535W        W38069   3.514  10.068   1.059 -0.1521  0.2108  0.1966
18536W        W38070   5.173   8.233   1.089 -0.1287  0.1439 -0.1961
18537W        W38071  17.727  17.981  12.893  0.3035 -0.1213  0.3709
18538W        W38072   2.481  11.743   3.807 -0.0393  0.1843 -0.1060
18539W        W38073   0.393   2.894  12.064 -0.2706 -0.0892  0.3116
18540W        W38074   9.070   8.809  12.292 -0.3570  0.0122 -0.0046
18541W        W38075   4.165  16.762   2.027  0.3374 -0.0763 -0.1446
18542W        W38076   7.491  15.351  12.843 -0.2461 -0.1377  0.1762
18543W        W38077   3.745   6.312  14.285 -0.0241  0.0673  0.1567
18544W        W38078   3.541   9.347  11.590 -0.1558 -0.0162 -0.0695
18545W        W38079  13.511  12.248   2.689  0.2245  0.0853  0.0861
18546W        W38080   9.226  12.205   3.359  0.0116  0.0905  0.3401
18547W        W38081   6.644   2.723  14.073 -0.1110  0.0557 -0.0174
18548W        W38082   2.025   7.614   2.440 -0.2067  0.2904 -0.3257
18549W        W38083  13.208  14.321   5.123 -0.2190 -0.2860 -0.1622
18550W        W38084   4.503   7.253  11.435  0.1008 -0.1104  0.1531
18551W        W38085   6.361   6.931  12.044 -0.0125 -0.2361 -0.0091
18552W        W38086  11.266   6.846  11.717  0.1079  0.2095 -0.1662
18553W        W38087   3.461   5.475  11.306  0.1201 -0.2164  0.0967
18554W        W38088  16.565  11.389  11.781 -0.2089 -0.0711  0.3272
18555W        W38089  15.562  16.437  15.813  0.0334 -0.1424  0.0480
18556W        W38090  15.494   8.096  13.051  0.3761  0.1753 -0.0625
18557W        W38091   7.392  14.044   4.318 -0.0728  0.1585  0.0523
18558W        W38092  17.258  13.895   3.322  0.0748 -0.0206  0.0646
18559W        W38093  17.546   6.696   0.424 -0.0098  0.1017 -0.1402
18560W        W38094  12.225   3.971   4.864  0.1987  0.1638  0.0182
18561W        W38095   9.775  11.114  10.788 -0.0954 -0.1385  0.0754
18562W        W38096   2.771   5.122  14.110  0.0408 -0.1183  0.0825
18563W        W38097  17.754  12.141   3.295 -0.2213 -0.2873  0.0393
18564W        W38098  10.959   3.657  15.532  0.1464 -0.0011  0.2482
18565W        W38099   9.464   6.011  12.821 -0.2207 -0.0659  0.4052
18566W        W38100   8.061  10.657   1.109 -0.1949 -0.1032  0.2646
18567W        W38101   9.509   0.249  13.774 -0.0231 -0.1746 -0.1718
18568W        W38102   0.431   9.030  14.456  0.0490  0.0073  0.2259
18569W        W38103  11.397   8.895   4.238  0.3051  0.3039 -0.0552
18570W        W38104   6.520  12.553  14.988 -0.0223 -0.2826 -0.0488
18571W        W38105   1.144   5.837   3.115  0.1960 -0.1265 -0.1432
18572W        W38106  11.204   8.687  14.451  0.0215 -0.0769 -0.1844
18573W        W38107   0.331  16.073   3.142  0.1888 -0.0984  0.0411
18574W        W38108   7.099   2.579   4.410  0.1444 -0.0084  0.1743
18575W        W38109   2.638  10.625   2.234 -0.0433 -0.1548 -0.1967
18576W        W38110  10.091   8.276  12.016  0.0841 -0.0171  0.1644
18577W        W38111   7.559   1.075   0.110  0.4178 -0.1348  0.2059
18578W        W38112  15.419  16.377  12.698  0.0362  0.0907 -0.4512
18579W        W38113   1.930  10.826   0.575 -0.3675  0.0346  0.1347
18580W        W38114  15.229   8.515  13.000  0.0790  0.0069  0.0318
18581W        W38115  16.435   7.631  10.760 -0.2598 -0.0230 -0.0464
18582W        W38116  10.718   9.209  13.001  0.1147 -0.2819  0.2654
18583W        W38117   9.867  12.546   3.553  0.0226 -0.0567 -0.1861
18584W        W38118  10.839   8.112  16.017  0.1760 -0.2708 -0.2035
18585W        W38119   8.043  16.580   3.904 -0.1662 -0.0344  0.0007
18586W        W38120  11.326   7.084  15.247  0.1389  0.3410 -0.0686
18587W        W38121   2.702  12.130   2.259 -0.0616 -0.2404 -0.1850
18588W        W38122   0.457   1.185  10.530 -0.1543  0.0380  0.0149
18589W        W38123  14.786  16.202  12.369  0.0589  0.0151  0.1667
18590W        W38124  13.051   2.313   4.512 -0.0063 -0.2072 -0.0445
18591W        W38125   4.790  13.755   3.132 -0.1425  0.1202 -0.2426
18592W        W38126  10.645   5.118   0.156  0.1901  0.0669  0.0952
18593W        W38127   9.340   3.742   0.647 -0.1640  0.0777 -0.0535
18594W        W38128  10.224   8.886   0.819  0.2265 -0.2281  0.1695
18595W        W38129   4.960  18.131   3.247 -0.1003  0.1844 -0.0589
18596W        W38130  11.083   3.394  13.812 -0.1005  0.2641 -0.1314
18597W        W38131   0.536   4.197  12.411 -0.0959 -0.1930 -0.2716
18598W        W38132   2.632   5.614  11.387 -0.0460  0.2798 -0.1479
18599W        W38133   9.456   1.564  15.854 -0.1115 -0.1889  0.1128
18600W        W38134   1.824   6.497   4.091  0.1182  0.1664 -0.1480
18601W        W38135  15.219  16.845  16.029 -0.0896  0.3193  0.1942
18602W        W38136   9.727   8.957   0.039  0.1685 -0.2298 -0.1369
18603W        W38137   5.204   7.080  13.245  0.0286 -0.0889 -0.0327
18604W        W38138  10.437   2.722   1.514  0.0509 -0.0523  0.0168
18605W        W38139  14.832  16.167   0.483  0.1311 -0.0756 -0.2519
18606W        W38140  17.086  10.142   1.008  0.2095 -0.0468 -0.1306
18607W        W38141   6.610   0.381   4.171 -0.0710 -0.0001 -0.3248
18608W        W38142   2.697   0.319   3.442  0.3082  0.0593 -0.2001
18609W        W38143  17.762   3.357  15.136  0.1234 -0.4558 -0.1252
18610W        W38144   4.764   9.235  13.077  0.0637  0.1307 -0.3089
18611W        W38145   5.930   1.873   0.258  0.2147  0.0977  0.1213
18612W        W38146   1.056   9.344   0.976  0.2370 -0.2064  0.2687
18613W        W38147   4.284  10.286  14.663 -0.1479  0.1345 -0.1252
18614W        W38148  11.120  14.773  11.995 -0.3806  0.1313  0.2329
18615W        W38149   9.939  13.467   0.573 -0.1496  0.0196 -0.0980
18616W        W38150   5.470   8.763  14.886  0.0358 -0.1113  0.0570
18617W        W38151  10.606  11.418  15.901 -0.0354  0.0892 -0.1551
18618W        W38152   7.757   9.737   4.296  0.1300 -0.0186 -0.5777
18619W        W38153   1.365  13.974   2.971 -0.1103 -0.2549 -0.1548
18620W        W38154  11.737   4.699   3.965 -0.2774  0.0415  0.0997
18621W        W38155  17.070  11.904  14.940 -0.1768  0.1559 -0.3076
18622W        W38156  17.218  16.484  11.579 -0.2453  0.0249 -0.0669
18623W        W38157   3.000   8.165   3.192  0.2005 -0.2610 -0.0129
18624W        W38158   0.721  17.583   0.731  0.2161  0.2718  0.1376
18625W        W38159   9.785   9.091   3.242 -0.2823 -0.1878  0.2728
18626W        W38160   2.332  16.725   3.986  0.0825  0.1003  0.0255
18627W        W38161   5.515  12.256   1.192 -0.0528  0.0652  0.1342
18628W        W38162  14.918   9.971  14.558 -0.2327 -0.0353  0.0255
18629W        W38163  16.491  10.050   1.074  0.0315 -0.1140  0.0672
18630W        W38164   6.267  15.564   0.286 -0.1760 -0.1205  0.4333
18631W        W38165  14.055  10.914   3.829 -0.3031  0.5769 -0.0613
18632W        W38166   2.105   5.597   3.296  0.3048 -0.0336 -0.1847
18633W        W38167   8.674  15.886  13.628  0.1756  0.0308 -0.1311
18634W        W38168   3.079   5.508  14.232  0.0262  0.3621 -0.2713
18635W        W38169  13.959   0.893   2.645  0.1237 -0.2090 -0.1763
18636W        W38170  17.683  16.030  11.832  0.1514  0.0896  0.0952
18637W        W38171   6.525  13.419  14.992  0.0164  0.0645  0.2234
18638W        W38172   7.735   2.085   2.373 -0.1718 -0.0697  0.2762
18639W        W38173   5.038   7.956  12.440  0.0689  0.0574 -0.0201
18640W        W38174   7.245   3.314   3.897 -0.2887  0.0851  0.2606
18641W        W38175   6.510  15.505  14.231  0.3766 -0.0903 -0.2147
18642W        W38176  12.133  12.001  15.267  0.1599 -0.1200  0.1864
18643W        W38177   2.220   8.324  15.477 -0.2377  0.1776 -0.2882
18644W        W38178  13.462  14.083  12.708  0.0355 -0.1422 -0.1496
18645W        W38179   1.083   3.683   4.632 -0.0155  0.0200 -0.1637
18646W        W38180   5.933   9.090   2.440  0.1227  0.0662  0.1760
18647W        W38181   8.028   0.225   1.230  0.2639  0.0057 -0.1566
18648W        W38182   1.238  17.126  14.858  0.2032  0.1491 -0.0687
18649W        W38183  11.953  17.083  13.787  0.2064 -0.1808  0.0791
18650W        W38184  10.306  15.782   1.491 -0.1887 -0.1255  0.0380
18651W        W38185  13.494  10.278  14.891  0.2134 -0.2126  0.2616
18652W        W38186   6.129   2.093   2.891  0.1993 -0.2324 -0.0601
18653W        W38187  12.012   7.248  13.555  0.2525  0.0899 -0.3314
18654W        W38188   0.227   0.931  10.868 -0.0645  0.0239  0.1788
18655W        W38189   5.861  17.215   3.018  0.1981 -0.1978  0.5733
18656W        W38190   2.210  15.725  13.512 -0.0256 -0.2828 -0.1378
18657W        W38191   8.551  13.567   0.875  0.0829 -0.0340  0.3711
18658W        W38192   3.861  12.240   1.644  0.0048 -0.3135  0.1530
18659W        W38193   1.338   8.959   1.294 -0.0092  0.1031 -0.0255
18660W        W38194  10.255   9.842   2.968  0.1345  0.0394  0.1518
18661W        W38195  10.157   9.668  11.846 -0.0719 -0.2224  0.2277
18662W        W38196   2.258   8.768  11.526 -0.0523 -0.2289 -0.2428
18663W        W38197   6.446  12.055  13.866  0.0343 -0.1303  0.1168
18664W        W38198   3.380   3.684  13.532 -0.1612 -0.0562  0.0807
18665W        W38199   6.424  10.230   4.468  0.1680  0.1108  0.1043
18666W        W38200   1.706   9.846  11.290  0.1995  0.1269  0.1544
18667W        W38201   7.262  15.875  15.464  0.0999 -0.0825  0.0450
18668W        W38202   6.016   5.332   4.243  0.1428 -0.3124  0.0242
18669W        W38203  16.192   9.403   3.729  0.1222 -0.1242 -0.0709
18670W        W38204   8.307   9.687   1.163  0.3397 -0.3724  0.0409
18671W        W38205   6.840  17.302  11.198  0.1181 -0.2586 -0.2228
18672W        W38206   9.685  17.217  15.150 -0.1105  0.0592  0.0239
18673W        W38207  17.064  14.298   2.332 -0.0004  0.0534  0.0479
18674W        W38208   7.561   7.158   3.487  0.0011 -0.2485  0.0797
18675W        W38209   1.934  16.217  15.764 -0.1027  0.2692 -0.1853
18676W        W38210   6.109   6.770   5.170  0.1779 -0.4606 -0.0960
18677W        W38211   6.567   8.502   2.627  0.0252  0.3240  0.1305
18678W        W38212   6.741   7.908  14.918  0.0370 -0.0413  0.1041
18679W        W38213   0.809  13.639   2.371  0.0076 -0.0266  0.1770
18680W        W38214  13.526  14.883  13.776 -0.1775 -0.5453 -0.0481
18681W        W38215   8.127   9.266  14.021  0.0167 -0.0149  0.3898
18682W        W38216   8.030   8.837  15.218 -0.0118 -0.0573  0.1743
18683W        W38217   5.252  17.201  15.763 -0.1618  0.1298  0.0663
18684W        W38218   1.962  10.739   3.787  0.1570 -0.0581  0.1387
18685W        W38219   7.426   7.480  11.862  0.0301 -0.1633  0.0728
18686W        W38220  14.946  17.565  12.368 -0.1726  0.1036 -0.1657
18687W        W38221   4.594   2.764  14.250 -0.3279 -0.0018 -0.2252
18688W        W38222  11.051  17.677   0.214  0.3077 -0.1089  0.1981
18689W        W38223   1.155  16.399   3.770 -0.1124  0.1999  0.1219
18690W        W38224   2.512   4.289  12.012 -0.0614 -0.2416  0.1267
18691W        W38225   3.996  12.249   2.965 -0.1596 -0.0351  0.2251
18692W        W38226   4.919   1.287  14.121 -0.5809 -0.3587 -0.0075
18693W        W38227   9.503   0.048   1.541 -0.1563 -0.0122 -0.3519
18694W        W38228  11.764  17.891   4.559  0.1197 -0.2567 -0.1959
18695W        W38229  12.228  13.458  11.001  0.2002  0.0147  0.0828
18696W        W38230   7.774  16.078  13.910 -0.1742  0.0830  0.0613
18697W        W38231  13.708   9.320   4.135 -0.0386  0.4435 -0.1781
18698W        W38232  13.626  13.915   2.118 -0.2836  0.1399 -0.0237
18699W        W38233  12.302  17.007   4.178 -0.2228  0.2304  0.1411
18700W        W38234   8.029   7.372  15.992 -0.1619  0.0151 -0.1729
18701W        W38235   7.507   9.227   4.626  0.1075  0.0584  0.1535
18702W        W38236  12.007   6.285  12.203  0.1236  0.0971 -0.0051
18703W        W38237   1.052   8.124   1.952 -0.2623  0.3915 -0.2023
18704W        W38238  14.110   2.777  15.067  0.1255  0.0496 -0.0676
18705W        W38239  11.592   3.059   0.994  0.1798  0.1093  0.1888
18706W        W38240   9.204  15.649  12.484 -0.1462 -0.0159  0.0067
18707W        W38241   9.549   5.598   1.948 -0.0729  0.1252  0.0947
18708W        W38242   1.581  14.340  12.698 -0.3576 -0.2015 -0.2064
18709W        W38243   7.087   7.621  12.283  0.0277  0.0353  0.0624
18710W        W38244   2.092  16.016  13.924  0.0958  0.0317  0.1693
18711W        W38245   9.556   8.153   0.817 -0.1014  0.1722  0.1480
18712W        W38246   7.416  11.100  10.404 -0.0844  0.0675  0.0191
18713W        W38247   1.795   5.804   4.718 -0.1019 -0.0841 -0.0498
18714W        W38248   7.394   8.055  11.736  0.1151 -0.3261  0.1096
18715W        W38249   5.330   7.660   2.069  0.1062 -0.2903 -0.0064
18716W        W38250  10.374   5.905   4.104  0.0256  0.1442 -0.2722
18717W        W38251   6.728  14.894  15.033 -0.2286 -0.1635 -0.3179
18718W        W38252  16.559  16.832  11.608 -0.0604 -0.1327 -0.2080
18719W        W38253  13.620  14.920   4.542  0.0997  0.2012  0.1582
18720W        W38254   1.116  15.718   4.183 -0.1754  0.0293  0.0281
18721W        W38255   2.385  14.004  12.616  0.2149 -0.3048  0.1455
18722W        W38256   4.358   4.240  12.058  0.0696  0.0944 -0.1048
18723W        W38257  10.405   2.944   2.448  0.0759 -0.0037 -0.1130
18724W        W38258   1.031  15.699  13.162  0.2242 -0.2069 -0.1316
18725W        W38259   3.585  16.126   0.400  0.0681 -0.3871 -0.1927
18726W        W38260   6.762  10.818   1.748 -0.0071 -0.1389  0.0735
18727W        W38261   0.147  17.789   2.661  0.0792  0.1729  0.0757
18728W        W38262  15.539   5.101  14.703  0.1090 -0.1969 -0.1792
18729W        W38263   5.808   0.427   1.313  0.1720  0.0148 -0.1361
18730W        W38264   3.333   9.727   1.705  0.2305 -0.1129  0.0672
18731W        W38265   6.953   1.285   0.656 -0.0117  0.1471 -0.1247
18732W        W38266   6.359  13.967  15.942 -0.1380  0.0570  0.1034
18733W        W38267   3.384  17.217   0.976  0.1575 -0.0256 -0.0284
18734W        W38268  14.825   5.226  15.422  0.1163  0.1375  0.0770
18735W        W38269   2.766  14.574  12.069 -0.3932  0.0017 -0.1134
18736W        W38270  16.794   9.133   5.024  0.3198  0.1023  0.1902
18737W        W38271   5.697  12.913  11.215  0.2217 -0.1960  0.1706
18738W        W38272   7.186   6.146   2.948  0.1530 -0.1122  0.0301
18739W        W38273   3.536   5.005   3.374 -0.2721 -0.3530  0.0339
18740W        W38274   1.250   3.070  12.848 -0.1446 -0.1783  0.2840
18741W        W38275  11.861  16.820   1.919  0.2320 -0.0297 -0.0384
18742W        W38276   2.893   0.977  13.039 -0.0732 -0.0277 -0.1859
18743W        W38277   9.755  13.161   2.960  0.0349 -0.2989  0.0523
18744W        W38278   4.097   1.952   1.976  0.0572  0.0951 -0.0141
18745W        W38279  10.011  14.547   1.583 -0.0406 -0.0793 -0.2980
18746W        W38280  12.984   8.726  14.753  0.2821 -0.2074 -0.0182
18747W        W38281   2.237   9.271  15.040 -0.1098 -0.2248 -0.3576
18748W        W38282   5.715  12.483   3.079  0.1634 -0.0298  0.0074
18749W        W38283   5.408   3.613  12.890 -0.0930  0.0807 -0.2640
18750W        W38284   0.651   6.616  13.706  0.0695 -0.0621  0.0316
18751W        W38285  17.006  15.883  12.955  0.1139 -0.1377  0.2117
18752W        W38286  16.415  14.599  13.952 -0.1224 -0.0802  0.0558
18753W        W38287   3.549  13.241   3.997  0.1252  0.0275  0.0467
18754W        W38288  10.299   4.218   0.748  0.0243  0.2351 -0.2101
18755W        W38289   0.948   8.035  14.868 -0.1537  0.2008 -0.4167
18756W        W38290  13.050   6.197  12.879  0.3496  0.1267  0.1943
18757W        W38291   4.232   4.104   2.931 -0.1430  0.0696 -0.2014
18758W        W38292   2.208  12.330   1.458  0.1490 -0.0881  0.1649
18759W        W38293  12.144   9.485   0.902  0.2550 -0.0417 -0.0239
18760W        W38294  15.877   2.166   1.680 -0.1095  0.0518  0.2562
18761W        W38295   9.623  16.254   4.573 -0.1685  0.1562  0.1528
18762W        W38296  15.058  17.138  14.733 -0.1300 -0.0153  0.0585
18763W        W38297  13.120   2.799   5.735 -0.0104 -0.1521  0.0891
18764W        W38298   6.201   4.417  15.275  0.1608  0.0330 -0.1033
18765W        W38299  16.227  13.257  14.871 -0.0036 -0.2443  0.1503
18766W        W38300   3.483  11.116   2.133  0.1957 -0.0736  0.0467
18767W        W38301   3.485  16.127  14.907  0.3569 -0.1501 -0.0488
18768W        W38302  16.540   4.565   2.117 -0.0477  0.0462 -0.1070
18769W        W38303   9.884   6.622   4.327  0.0233 -0.1230  0.0400
18770W        W38304   1.944  15.210   2.710  0.0399  0.0424  0.2136
18771W        W38305   1.646  17.675  14.119  0.1026  0.1352  0.0989
18772W        W38306   2.572   8.283   0.770  0.0267 -0.0184  0.0686
18773W        W38307   4.391  13.449   3.486  0.1554 -0.1937  0.3590
18774W        W38308  11.262   5.780   3.725 -0.0899  0.1926 -0.1062
18775W        W38309   7.804   0.120   2.842 -0.2636 -0.0072  0.2184
18776W        W38310  18.007   0.982   0.333 -0.1903 -0.1120 -0.1333
18777W        W38311  15.581   2.933   2.775  0.0693 -0.1153 -0.1858
18778W        W38312  11.570   8.632  13.607 -0.0915 -0.2009 -0.2150
18779W        W38313   7.442  15.117  13.287 -0.4217 -0.0236  0.0557
18780W        W38314   2.844  16.809  12.027  0.0993 -0.0325  0.1644
18781W        W38315   9.900  11.156   5.026 -0.1462 -0.1741  0.2769
18782W        W38316   5.108   7.879   0.742 -0.1408 -0.0538  0.1582
18783W        W38317  12.911  11.376   2.097 -0.1902  0.1138  0.0964
18784W        W38318  17.179   9.628   2.226  0.0080 -0.1250  0.1099
18785W        W38319   8.324   1.390   0.544 -0.1563  0.1792  0.3485
18786W        W38320  10.597  14.366  15.904 -0.4704  0.1396 -0.0123
18787W        W38321  14.208   4.949   0.091 -0.2965 -0.0142 -0.2061
18788W        W38322   5.735   7.152   1.343 -0.0045  0.2535  0.0840
18789W        W38323  15.248   0.625   3.140  0.1941 -0.2143 -0.0273
18790W        W38324   4.181  17.600  14.224 -0.2467  0.0413  0.0132
18791W        W38325   0.077   8.654   3.597  0.2190 -0.3516 -0.1265
18792W        W38326   5.439   3.987  15.019 -0.0857  0.3081 -0.0666
18793W        W38327  12.383  13.085  12.900  0.1469 -0.0620 -0.1890
18794W        W38328   5.243  10.695   2.700  0.0440 -0.0907  0.0957
18795W        W38329   9.803   8.761  13.714  0.1597  0.3021 -0.0555
18796W        W38330  15.513   8.416  13.476  0.0429  0.0732  0.1502
18797W        W38331  15.192  11.425  11.809 -0.0707 -0.0567  0.1607
18798W        W38332   9.646   2.424   0.414 -0.0036  0.0276 -0.1622
18799W        W38333  17.332   4.439  12.787  0.3676  0.1242  0.0145
18800W        W38334  15.586  14.518   1.086 -0.2902  0.0610  0.2069
18801W        W38335  18.053  16.650   4.694 -0.1078  0.0832 -0.1748
18802W        W38336  14.065  16.793  15.250  0.2862  0.0871  0.1098
18803W        W38337  14.068   4.501   1.516 -0.0678  0.2011 -0.0231
18804W        W38338   0.944   2.170  11.201  0.1924 -0.2420  0.2699
18805W        W38339  13.227   4.299   3.815  0.1395  0.0137  0.3071
18806W        W38340   1.258   5.951   2.081  0.1920 -0.0925  0.2370
18807W        W38341  15.797  14.744   0.203 -0.1424 -0.0241 -0.0576
18808W        W38342   8.013   7.287   4.813  0.1598 -0.0717  0.0705
18809W        W38343  13.567   7.220   2.858 -0.1629  0.0062  0.3624
18810W        W38344   3.230   8.067   5.204 -0.1243 -0.0292 -0.0253
18811W        W38345   8.256  16.163  12.273 -0.0803  0.0658  0.0609
18812W        W38346  17.025  12.570   3.187 -0.1144  0.0943  0.0583
18813W        W38347  14.408  13.353   1.958 -0.1127 -0.3587  0.0212
18814W        W38348  10.168  11.934   2.156  0.3505  0.0044 -0.0905
18815W        W38349  14.486  10.955  13.893  0.0708 -0.2517 -0.0731
18816W        W38350   6.382  13.755   5.647  0.0682 -0.3375 -0.0362
18817W        W38351  17.130   7.005   2.247  0.3943 -0.1623 -0.0076
18818W        W38352  14.951  16.053   5.374  0.0488  0.1147  0.0700
18819W        W38353   0.924  15.233   4.175  0.0641  0.0236  0.1014
18820W        W38354   4.817   8.239  14.362  0.0179 -0.3129  0.0357
18821W        W38355  13.669  11.027  10.609  0.0652 -0.2062 -0.2567
18822W        W38356  13.667   4.905  15.855 -0.0567  0.1503 -0.0684
18823W        W38357   2.458   9.191  10.959  0.0547  0.4574 -0.1582
18824W        W38358  14.490   7.213  15.565 -0.2031 -0.0635 -0.2073
18825W        W38359   4.741  12.358  15.869 -0.0886  0.0248 -0.0421
18826W        W38360  10.951   8.501  15.528 -0.1420  0.0400  0.1456
18827W        W38361  17.591   3.671  13.656 -0.1991 -0.0277  0.0527
18828W        W38362  18.148   4.656   1.180  0.2412 -0.0054 -0.2572
18829W        W38363   5.699   8.685   0.628 -0.0432 -0.1925  0.2249
18830W        W38364   8.875   1.179  14.281 -0.0001  0.0001 -0.0471
18831W        W38365   2.715   9.017  15.735  0.3686  0.3859  0.3226
18832W        W38366   8.240   2.797  10.944  0.1408 -0.3023 -0.0555
18833W        W38367  10.665   7.430   1.203  0.0252  0.1859  0.1552
18834W        W38368   4.923   9.769   3.714 -0.0439 -0.1155 -0.3353
18835W        W38369  15.980  18.042   3.243  0.1032  0.0732  0.2155
18836W        W38370   4.033   5.924   0.330 -0.0218  0.1407  0.1215
18837W        W38371   9.488  16.139  14.961 -0.2858 -0.0727 -0.1546
18838W        W38372   2.008  15.444  15.034  0.2735 -0.1257 -0.0142
18839W        W38373  17.581  13.236  15.810  0.0038  0.0223 -0.0457
18840W        W38374  17.455  14.047  15.416  0.0073  0.2188  0.0797
18841W        W38375  11.930  17.283   2.238 -0.1307 -0.1550 -0.0477
18842W        W38376  18.076   3.024  11.923  0.0405 -0.2054  0.2187
18843W        W38377   2.282   4.822  14.297  0.2838  0.2794  0.2639
18844W        W38378  17.913  12.910  15.560  0.2024 -0.4087 -0.2681
18845W        W38379  16.726  12.119   3.258 -0.5013  0.0161 -0.0292
18846W        W38380   5.700  12.943   1.183  0.2778 -0.0061  0.2517
18847W        W38381   1.801   1.964  15.568 -0.0412  0.2232  0.4319
18848W        W38382  17.186   2.594   2.931  0.0644 -0.1107  0.0446
18849W        W38383  15.011  17.519   4.914 -0.1099  0.1449 -0.1299
18850W        W38384  11.812  16.598   2.851 -0.1316 -0.1105  0.1217
18851W        W38385   4.831   9.966  12.557  0.1797  0.1050  0.3548
18852W        W38386   8.582   5.598   2.874 -0.0551 -0.0001  0.2876
18853W        W38387  10.626   5.958   0.906 -0.2755  0.2019  0.0736
18854W        W38388   6.511  16.843  15.547  0.1192  0.2871 -0.1100
18855W        W38389   5.158   4.607  13.798  0.0852 -0.0103 -0.0273
18856W        W38390  17.431   0.185   3.707  0.3120 -0.1218 -0.0947
18857W        W38391   2.032  10.259  13.270 -0.0531  0.1049  0.0300
18858W        W38392   2.358  12.628   2.045 -0.2659  0.2276  0.2751
18859W        W38393  14.417   7.643   4.873 -0.0751 -0.1539 -0.1809
18860W        W38394   1.544  17.740  14.925  0.0791 -0.0622  0.0466
18861W        W38395  14.618   4.147  11.579 -0.0101 -0.2325 -0.2012
18862W        W38396  14.375   1.709   2.394  0.0265 -0.1096  0.3182
18863W        W38397   9.268  12.871  11.813 -0.0220 -0.0669 -0.2064
18864W        W38398  15.315   7.608  12.400 -0.3975  0.0761  0.0250
18865W        W38399   2.477  13.307   0.458 -0.0036  0.2847 -0.1983
18866W        W38400   3.986   9.436   2.395 -0.1217  0.2620  0.2192
18867W        W38401  11.424  14.450   4.017  0.0070 -0.2745  0.0655
18868W        W38402   3.579   5.983  13.694 -0.0449 -0.1711 -0.0848
18869W        W38403   9.949   9.758  13.125 -0.0339  0.1582 -0.0117
18870W        W38404   6.864   8.692  13.076  0.1823 -0.1919 -0.1641
18871W        W38405  12.104   7.993  12.496  0.1180  0.2412  0.5007
18872W        W38406   8.031  15.395   4.438  0.2512 -0.1729 -0.1538
18873W        W38407  16.574   5.991   3.630 -0.2769 -0.0483 -0.0347
18874W        W38408   5.617   2.337   3.508 -0.0351 -0.0274  0.0742
18875W        W38409  17.318   1.763   0.180 -0.2631  0.0703  0.1649
18876W        W38410   4.508   5.298   4.880  0.3090 -0.0652 -0.4361
18877W        W38411   5.509   3.082   2.479 -0.2539  0.1504  0.3181
18878W        W38412  10.655   4.675  12.903  0.0847  0.0419 -0.2376
18879W        W38413   3.062  16.934   3.260 -0.2791 -0.1858  0.0645
18880W        W38414   5.582  18.140   0.790 -0.2774  0.0255  0.0645
18881W        W38415   2.238   0.490   0.355 -0.1501  0.0796 -0.0979
18882W        W38416   3.185   1.102  14.794 -0.0731 -0.0184 -0.0011
18883W        W38417   4.591   3.946  11.675  0.1335 -0.3325 -0.0547
18884W        W38418   2.152   5.639  15.282  0.0398 -0.1604  0.1511
18885W        W38419  11.179  13.711   3.442  0.0725  0.1257  0.0738
18886W        W38420  15.654  11.907  15.814  0.0059 -0.1184 -0.2072
18887W        W38421  16.976   5.701   4.636  0.1330  0.1195 -0.1826
18888W        W38422   3.924  10.613   3.895  0.1823 -0.1670 -0.1320
18889W        W38423   6.510   6.564  14.628  0.1206 -0.0632  0.1394
18890W        W38424   5.170   7.525   3.097  0.3432  0.0129  0.3327
18891W        W38425   6.308   5.212   0.860  0.1444  0.0585 -0.0996
18892W        W38426  13.587  15.602   5.096 -0.0406 -0.0729 -0.5263
18893W        W38427   3.875  15.274  15.505  0.2304  0.0855  0.1581
18894W        W38428   0.502   3.677  12.687  0.0289 -0.2835 -0.1284
18895W        W38429  15.810  14.621   1.523 -0.0036 -0.1655 -0.1137
18896W        W38430   9.119  17.448  15.284 -0.1377  0.0775 -0.2733
18897W        W38431  11.652  17.882  14.150 -0.1726  0.1508 -0.3496
18898W        W38432  15.180  16.139   3.133  0.2736 -0.0565 -0.1008
18899W        W38433   3.234  11.642  12.728  0.0544  0.1420 -0.3080
18900W        W38434  10.014  11.630  11.978 -0.1681 -0.1852  0.1015
18901W        W38435   6.700   1.663   1.266  0.1091 -0.3515 -0.0108
18902W        W38436   8.376  11.834  10.527  0.1520 -0.1341 -0.4357
18903W        W38437   7.298  11.760  14.971 -0.0018 -0.0873  0.0402
18904W        W38438   9.773  16.354  14.498  0.2150  0.2205  0.0230
18905W        W38439   7.801   8.022  15.280  0.2370 -0.1419  0.3270
18906W        W38440  10.927  13.588   4.410  0.1937  0.0211  0.4351
18907W        W38441  17.287  10.069   0.530 -0.0034 -0.0800  0.0867
18908W        W38442   1.065  16.103  14.306 -0.0020  0.0515 -0.1683
18909W        W38443   5.164  12.747   4.332  0.1134  0.1858  0.1324
18910W        W38444   7.649   6.785  13.788 -0.0278 -0.1181  0.0618
18911W        W38445   5.365   5.123  12.788  0.2928 -0.0417  0.0655
18912W        W38446  10.912   1.113   3.533  0.0641 -0.3087  0.1980
18913W        W38447   9.936   0.142  14.214  0.0876 -0.0272  0.1544
18914W        W38448   7.673  11.104  16.045  0.1209  0.0325 -0.0405
18915W        W38449   8.644   0.988  13.491  0.0417 -0.2754  0.0563
18916W        W38450   6.663   1.780   4.446  0.0716 -0.0322  0.0457
18917W        W38451   5.481   1.781  12.231  0.2198  0.0258  0.0044
18918W        W38452  10.341   1.186   0.238  0.0765  0.1230  0.2639
18919W        W38453   1.692   8.352   2.961 -0.0588  0.1235  0.1147
18920W        W38454   6.191   8.035   4.633 -0.1094 -0.0539 -0.0231
18921W        W38455   4.081   9.614  12.762 -0.1380 -0.1386  0.0001
18922W        W38456  14.617  14.961   3.107  0.1088 -0.3337 -0.0294
18923W        W38457   1.965  13.065  12.256  0.1245 -0.0144  0.1440
18924W        W38458  14.338  15.145  13.188 -0.0765 -0.1777 -0.2300
18925W        W38459  12.739   0.621  13.759 -0.2575  0.1567  0.1053
18926W        W38460  10.695   1.273  14.225  0.0591 -0.2089 -0.1157
18927W        W38461  10.714  16.698   1.922 -0.0972  0.0381 -0.3579
18928W        W38462  13.021  11.453   3.549  0.1948 -0.0801  0.1370
18929W        W38463  10.919  12.396   1.946  0.3373 -0.4375 -0.1429
18930W        W38464   0.949   7.467  15.703  0.1189  0.1132 -0.0715
18931W        W38465   3.537   8.683   4.729 -0.0484 -0.1822 -0.0658
18932W        W38466  10.850   5.371  13.612  0.1035  0.2957 -0.0938
18933W        W38467  15.326   4.186  12.745 -0.0005  0.4368 -0.0968
18934W        W38468   5.960  15.680  15.907  0.1187  0.1268 -0.1103
18935W        W38469   0.837   3.718  15.448  0.0168  0.2768 -0.1832
18936W        W38470   5.968  15.241  13.147 -0.0043 -0.2277  0.0705
18937W        W38471  18.043  14.102  15.453 -0.0694 -0.0887 -0.3331
18938W        W38472  15.068  15.388  14.394  0.1403 -0.2216  0.0353
18939W        W38473  15.706   8.246  11.685  0.1870  0.1792  0.1438
18940W        W38474   4.039   3.695   0.439  0.0626  0.1351 -0.3837
18941W        W38475  15.715  12.058   2.349 -0.1811 -0.1212 -0.1431
18942W        W38476   5.231   4.615   3.870  0.3525  0.4199  0.1819
18943W        W38477   0.935   5.039  12.528  0.2101 -0.1663  0.2512
18944W        W38478   9.083  14.911  15.022  0.0464 -0.0131 -0.4888
18945W        W38479   7.607  10.471  13.035 -0.0768  0.0215  0.2718
18946W        W38480  11.432   5.188  12.569 -0.1981 -0.0722 -0.0002
18947W        W38481  11.581  15.358  11.533 -0.1903  0.0675 -0.1359
18948W        W38482  14.703  12.403   4.764 -0.2386  0.1182 -0.3176
18949W        W38483   8.642  14.830  15.748 -0.1168 -0.1900 -0.0600
18950W        W38484   3.551   8.491  13.846 -0.2449  0.1816  0.2210
18951W        W38485   4.056   8.468  10.172  0.0695  0.4283  0.1840
18952W        W38486   9.321  14.704  14.621 -0.2205 -0.3842  0.0946
18953W        W38487  14.966  16.240  12.829 -0.0166  0.0712  0.1309
18954W        W38488  11.257   4.449   4.514 -0.0679 -0.2549  0.0660
18955W        W38489  16.516   4.236  16.041  0.0191 -0.2950  0.1781
18956W        W38490   7.485  12.871   2.395  0.1724 -0.0916 -0.0164
18957W        W38491   4.049   0.232  14.023 -0.2726  0.1653 -0.2994
18958W        W38492  13.061  14.445   0.638  0.0932  0.1463 -0.3492
18959W        W38493   0.896   6.070   1.365  0.0056  0.2077  0.2233
18960W        W38494   8.138  12.182   0.930 -0.0340  0.1315 -0.2221
18961W        W38495  10.154  17.143  14.289  0.2751 -0.0600  0.0438
18962W        W38496   8.202  13.321   0.577 -0.0414 -0.2207 -0.3269
18963W        W38497   9.919  11.457  14.454  0.1235  0.1554  0.1445
18964W        W38498   5.722  14.186   0.546 -0.3035  0.0640  0.1131
18965W        W38499   3.130  16.635  10.965 -0.2107 -0.1308  0.1114
18966W        W38500  13.665  15.057   2.832 -0.1923  0.2814  0.0166
18967W        W38501  12.215   2.495  15.431 -0.2347 -0.0825 -0.2150
18968W        W38502   8.473   8.643   2.627  0.1338  0.0903 -0.1169
18969W        W38503  13.566  10.161   2.789 -0.2238  0.2391 -0.1824
18970W        W38504   5.482  10.198  15.675 -0.0735 -0.0118  0.0691
18971W        W38505   3.795  13.997   1.815  0.1678 -0.1025 -0.1936
18972W        W38506  13.694   3.592   2.546  0.2638  0.0376  0.0137
18973W        W38507  16.143  13.725   2.250  0.3667  0.0663 -0.0461
18974W        W38508   8.341  17.767  12.625 -0.0833 -0.1793  0.0175
18975W        W38509   3.769  12.355  13.266  0.1633 -0.2625 -0.0159
18976W        W38510  15.024  11.204   3.715 -0.1777 -0.1293  0.0476
18977W        W38511  11.074   3.871  11.981 -0.1503 -0.0039  0.0514
18978W        W38512   3.137   8.956   2.037  0.0177 -0.2718  0.0076
18979W        W38513  16.827  11.910  15.909 -0.1324  0.1489 -0.1466
18980W        W38514   2.121   4.239   2.761  0.3528  0.0315 -0.0565
18981W        W38515  11.953  16.006  11.208 -0.0054  0.1244 -0.1284
18982W        W38516  13.234   7.876   0.123 -0.1864  0.0565 -0.0110
18983W        W38517   0.484  14.270   0.683  0.0659 -0.1572 -0.1179
18984W        W38518   4.770  10.443  14.572  0.0437 -0.1171 -0.0148
18985W        W38519  11.878   0.818   2.998  0.1049  0.1233  0.0301
18986W        W38520  13.035  16.689  11.046  0.1678 -0.1130 -0.6015
18987W        W38521  14.747  13.379   0.376  0.2851 -0.2350  0.0855
18988W        W38522  15.110   2.844  13.029 -0.0620 -0.0275 -0.1052
18989W        W38523  14.124  10.293  12.221  0.0854 -0.0898  0.1141
18990W        W38524   1.847   7.402   4.582  0.1073 -0.2791  0.1650
18991W        W38525   1.441   4.346   1.472 -0.1537  0.0212  0.0922
18992W        W38526   7.090   0.054   2.951  0.3161 -0.1154  0.0547
18993W        W38527  15.121   7.524   0.717 -0.1599  0.1257  0.1941
18994W        W38528   9.589   1.458   0.623 -0.2823 -0.1645  0.2989
18995W        W38529   6.110   8.574  15.665 -0.3913 -0.0070 -0.0776
18996W        W38530  11.753   0.047   2.057 -0.0869 -0.2550 -0.2454
18997W        W38531  13.566  17.218   2.995 -0.0841 -0.0223  0.1862
18998W        W38532  11.720   2.815  15.478  0.1659 -0.0224  0.0896
18999W        W38533   8.595   9.653   3.898  0.1497 -0.2275 -0.1068
19000W        W38534  15.192  13.493   4.201  0.1965  0.1730 -0.1513
19001W        W38535   3.087   5.351  13.753 -0.3523  0.2313  0.2323
19002W        W38536  11.801  11.406  14.335  0.2510  0.2666  0.3171
19003W        W38537  14.133  18.120   4.914  0.2208  0.0188  0.2309
19004W        W38538  15.924   8.086  13.424  0.0532 -0.2114 -0.0728
19005W        W38539   8.454   5.327   3.341  0.1565 -0.0277  0.0174
19006W        W38540  15.141  13.530   2.060  0.0427 -0.1826 -0.3617
19007W        W38541   4.307  17.809   2.263 -0.2221 -0.2907  0.2769
19008W        W38542  13.092   6.359   4.188  0.0716 -0.0338  0.1624
19009W        W38543   8.878   6.155  10.939  0.3148 -0.1775  0.0583
19010W        W38544   6.090  13.591  13.947  0.3938  0.3735 -0.1221
19011W        W38545  13.790   9.641  14.002 -0.2734 -0.0204  0.1379
19012W        W38546  16.296  15.130  15.585 -0.0108 -0.0402 -0.1687
19013W        W38547  17.173   5.038   0.436  0.0826  0.3412  0.2347
19014W        W38548   2.719  12.536   2.530 -0.1074 -0.4621 -0.0472
19015W        W38549   9.484   4.451   1.599 -0.0712  0.0630  0.0844
19016W        W38550  10.669   3.111  13.396  0.0334 -0.0932 -0.2194
19017W        W38551  17.938   9.031   4.358  0.0871  0.1055  0.0968
19018W        W38552   2.538  10.165   2.626  0.0970  0.1980 -0.2932
19019W        W38553  14.479  17.805   0.904 -0.1013  0.0979  0.2703
19020W        W38554  13.218  12.554  12.941 -0.1170 -0.1482 -0.1822
19021W        W38555  17.958   1.292   4.452 -0.2961  0.1368  0.1510
19022W        W38556  10.837   3.846   0.161 -0.1436 -0.0258 -0.1536
19023W        W38557  16.433  14.168  13.190  0.3162 -0.3627 -0.0193
19024W        W38558   5.013  10.150  14.269  0.3189 -0.0036 -0.2683
19025W        W38559  11.031   1.826  14.290 -0.0214  0.2078 -0.1460
19026W        W38560   3.973   6.356  13.817 -0.1082 -0.1745  0.0472
19027W        W38561   6.147  12.813   0.902 -0.4265 -0.3011 -0.0291
19028W        W38562  17.659   2.376   0.650 -0.0318  0.1624  0.0708
19029W        W38563   5.504   2.747  13.282 -0.0389 -0.0280  0.0664
19030W        W38564   3.114   3.060   5.810  0.0041  0.2676  0.1077
19031W        W38565   7.449   3.216  12.866 -0.0420 -0.1055  0.1256
19032W        W38566   5.084  12.782   2.319 -0.2218  0.0378  0.1985
19033W        W38567   3.322  16.294  14.438 -0.1332  0.1838  0.0256
19034W        W38568  15.204   5.325   1.909 -0.0943 -0.0833 -0.1936
19035W        W38569  16.122   4.443   0.646 -0.3152 -0.1361  0.1220
19036W        W38570   4.003   0.216  12.378  0.2322 -0.1172  0.1334
19037W        W38571  10.127   5.581   2.515 -0.2383 -0.3544  0.2250
19038W        W38572  17.631   9.782  11.469  0.0359 -0.0481  0.1856
19039W        W38573   0.943   5.483  14.348  0.1040 -0.0082 -0.0931
19040W        W38574   4.307   6.416   0.918 -0.1097  0.0023 -0.0952
19041W        W38575  16.007   7.651  12.111  0.0075 -0.0141  0.0353
19042W        W38576  16.767   2.925   1.531  0.4056 -0.0681  0.1578
19043W        W38577   8.392   3.116  11.814 -0.1812  0.0399  0.1800
19044W        W38578  10.621  14.200   1.014 -0.0121  0.1668  0.1083
19045W        W38579   4.535  18.001  16.038 -0.0015 -0.0046  0.2287
19046W        W38580   3.202   2.834   4.457  0.1417  0.0313 -0.0824
19047W        W38581   6.446  12.673  12.198 -0.1013 -0.1036  0.0602
19048W        W38582   8.814  17.020  13.784  0.0353  0.1808  0.2672
19049W        W38583   3.206  11.186   4.363  0.0018 -0.2542 -0.0526
19050W        W38584  17.032  15.369   5.494  0.1700  0.2173 -0.2855
19051W        W38585  15.238   3.498   0.077 -0.1979  0.0412 -0.1038
19052W        W38586   4.603  10.178  13.366 -0.1643  0.0565 -0.0692
19053W        W38587  10.758   0.999  12.312 -0.1577 -0.3145  0.1077
19054W        W38588   4.507   8.908  12.186 -0.0575 -0.2039 -0.2331
19055W        W38589  10.242  16.413   0.606  0.2653 -0.1172  0.2901
19056W        W38590   5.180   3.407  11.599  0.0602  0.0856 -0.2768
19057W        W38591   6.382  11.704  15.577  0.0147 -0.0565 -0.3537
19058W        W38592   2.944   4.192  14.042  0.0152  0.0025  0.1956
19059W        W38593   7.324  12.466   2.108  0.1927  0.1984 -0.3335
19060W        W38594  11.096   9.389   2.197 -0.1965  0.3933 -0.0398
19061W        W38595   6.172   8.848  12.664  0.0416  0.0034 -0.2488
19062W        W38596   1.216   3.885  13.057  0.1865  0.0781  0.0057
19063W        W38597  18.032  16.924  14.895 -0.0470  0.0856  0.0127
19064W        W38598   6.858  16.422   1.578 -0.0031 -0.0241  0.2121
19065W        W38599   0.647   0.833   4.123 -0.0770  0.1134 -0.1155
19066W        W38600   0.358   1.801  15.531  0.1953  0.1174 -0.2113
19067W        W38601  15.270  14.065  14.170  0.2554 -0.0886  0.1075
19068W        W38602   4.399  10.576   1.973  0.0328 -0.2186 -0.2192
19069W        W38603   3.027   5.839  13.665 -0.1948  0.1519 -0.3744
19070W        W38604   9.610   0.423  14.658  0.1839  0.3475  0.0035
19071W        W38605   7.115   0.554  11.508 -0.0027 -0.0541  0.0365
19072W        W38606  16.362   6.740  11.521 -0.0410  0.0358  0.1206
19073W        W38607   8.011   3.085  11.517 -0.2928 -0.1469  0.0231
19074W        W38608  11.418   6.755   2.408  0.3205  0.0390 -0.0754
19075W        W38609   7.642  17.716  12.170  0.0734 -0.1080 -0.2059
19076W        W38610  12.532  15.097  13.221  0.1516  0.0397 -0.0136
19077W        W38611   8.576   6.131  15.374 -0.0934  0.1975 -0.2817
19078W        W38612  16.172   9.832  13.093 -0.3143 -0.0517  0.0902
19079W        W38613  14.542   2.547  12.899 -0.0307 -0.1627 -0.0774
19080W        W38614   0.458  11.579   4.199 -0.3450 -0.0502  0.1046
19081W        W38615   1.088  15.906  11.639  0.1945  0.2755 -0.0768
19082W        W38616   2.697  10.479  16.000 -0.1128  0.2153 -0.4935
19083W        W38617  10.903   5.527   3.464 -0.1506 -0.1381  0.0143
19084W        W38618   6.601   7.478  15.923  0.1617 -0.4958 -0.0747
19085W        W38619   3.459   7.223  11.727 -0.3908 -0.0328 -0.2498
19086W        W38620  14.976  13.425  14.342  0.0017 -0.1391 -0.1056
19087W        W38621  11.990   6.047   0.048 -0.1649 -0.0817  0.2211
19088W        W38622   4.806  14.226   3.525  0.0470 -0.1569  0.2319
19089W        W38623  15.554   5.160   4.832  0.1279 -0.2823  0.0828
19090W        W38624   5.741   0.929   2.828 -0.1433 -0.0623  0.3794
19091W        W38625  12.673  12.721   5.190  0.1441 -0.1444  0.0643
19092W        W38626  15.921  16.994  14.612  0.1454 -0.1991  0.0343
19093W        W38627   6.985  14.749   3.837  0.0263  0.1137 -0.0271
19094W        W38628  17.889   1.381   1.564  0.1779  0.1694  0.1138
19095W        W38629   3.450  12.848  12.123  0.2744  0.2788 -0.1195
19096W        W38630  16.378   0.389   4.676 -0.0443 -0.0820 -0.1802
19097W        W38631   5.301   4.002   0.052 -0.1477  0.2142 -0.0819
19098W        W38632   0.464   9.201  13.557  0.0542 -0.2592  0.3092
19099W        W38633  12.894  11.218  12.259  0.0888  0.0576  0.0974
19100W        W38634   8.040   6.592  15.137 -0.0336  0.0493 -0.0236
19101W        W38635  11.287  11.222   2.060 -0.0947 -0.0452 -0.0664
19102W        W38636   4.848  17.507  14.877  0.0549  0.0434  0.2358
19103W        W38637  11.807   8.882  11.874  0.0321 -0.0667 -0.2921
19104W        W38638  15.211   5.200  15.058  0.3977  0.1182 -0.1635
19105W        W38639  12.823  16.820   4.919 -0.0448 -0.2162 -0.2801
19106W        W38640  17.586   0.245  14.855 -0.3517 -0.1473 -0.2327
19107W        W38641   3.104  14.691  12.867  0.0584 -0.0764 -0.0082
19108W        W38642   2.490   3.382  11.633 -0.1129  0.1767 -0.1680
19109W        W38643  10.146   2.269   4.433  0.0802  0.0522 -0.0200
19110W        W38644   1.376  11.818  10.822  0.1995 -0.0417 -0.1818
19111W        W38645   5.946  13.019   4.004 -0.0516 -0.0470  0.0187
19112W        W38646  13.361   7.821   4.482  0.0761  0.2029  0.1914
19113W        W38647   8.798   8.844   2.261  0.0038 -0.2944 -0.0575
19114W        W38648   5.241   9.060  12.982  0.0080  0.2508  0.1436
19115W        W38649   4.292   2.771  15.971  0.0068 -0.2050  0.0537
19116W        W38650   1.525  11.441  14.306 -0.1456  0.0897  0.0536
19117W        W38651   1.649  15.386   3.639  0.0983 -0.0975  0.1555
19118W        W38652  11.203  11.322  12.434 -0.1709 -0.1848 -0.0582
19119W        W38653  17.887  17.467   4.469 -0.0888 -0.2056 -0.0614
19120W        W38654  17.085  10.042  14.166 -0.2523 -0.0217 -0.3670
19121W        W38655   8.245   0.941   4.154  0.2482 -0.2399  0.1640
19122W        W38656   4.302  13.185  13.762  0.1043 -0.0640  0.1392
19123W        W38657   3.335  15.759  11.909  0.0129  0.0226  0.3090
19124W        W38658  12.510   2.156  15.614 -0.1492 -0.1827 -0.1814
19125W        W38659   3.600  16.641  13.663  0.2407 -0.2688  0.1562
19126W        W38660   4.176   9.059   3.872 -0.0579  0.2058 -0.3178
19127W        W38661  14.823   3.240   4.572 -0.1725  0.0199 -0.1419
19128W        W38662   4.926  15.627   1.749 -0.0132  0.0321  0.1930
19129W        W38663   6.253   6.604  11.460 -0.0191 -0.0240  0.1996
19130W        W38664   1.367  10.785  13.008  0.2362 -0.2326 -0.2704
19131W        W38665  16.038   3.024   3.006  0.0889 -0.0363  0.0205
19132W        W38666   2.703  15.064  12.931 -0.1727  0.4894  0.0218
19133W        W38667   2.017   9.529  13.968  0.0680 -0.1776 -0.1015
19134W        W38668  13.922  16.614   2.181 -0.1667  0.1057  0.3101
19135W        W38669  12.067   2.070   0.528  0.2307  0.1665 -0.0490
19136W        W38670  12.440  17.571   1.054  0.1327 -0.1403 -0.1027
19137W        W38671   9.099  10.843  15.605 -0.4524  0.0326 -0.1196
19138W        W38672  11.711  11.028  14.019 -0.1783  0.1710 -0.0478
19139W        W38673  16.309  15.942   1.334 -0.0876 -0.1979 -0.1790
19140W        W38674  17.089   6.598   4.544 -0.0577 -0.1476  0.1983
19141W        W38675  16.653  14.338  15.287  0.1129  0.2460  0.2510
19142W        W38676   7.261  10.439   4.809 -0.0801 -0.0961 -0.0866
19143W        W38677  13.529   0.974  12.788 -0.1758 -0.0474 -0.1019
19144W        W38678   3.413   8.100  11.127 -0.1047 -0.1721 -0.0914
19145W        W38679   7.775   6.060   2.679  0.1214 -0.3111  0.0171
19146W        W38680  13.088   5.186  13.480 -0.0458 -0.0951 -0.0000
19147W        W38681  15.988   9.741   0.194 -0.1565 -0.1965  0.0804
19148W        W38682   5.594  11.833  13.980 -0.0679 -0.1045  0.1665
19149W        W38683   4.628  15.434   4.193  0.0319  0.0907 -0.1414
19150W        W38684  14.899   3.646   4.948  0.1077  0.1073 -0.0021
19151W        W38685   8.900  15.285   4.019 -0.0560  0.2531 -0.1499
19152W        W38686  18.024   5.851  16.036 -0.1575 -0.1939  0.1875
19153W        W38687   8.580   3.192  12.667  0.0412  0.2196 -0.0177
19154W        W38688  13.178  16.928   0.738  0.1660 -0.2850 -0.1340
19155W        W38689  14.529  10.389  15.052  0.1044  0.1234  0.2093
19156W        W38690   1.808   5.562  12.549 -0.1753  0.0283  0.0919
19157W        W38691   5.975  13.900  13.453  0.1594 -0.1941  0.1351
19158W        W38692   8.966  14.191   3.503 -0.2030 -0.0918  0.0140
19159W        W38693   4.205  12.129  12.927 -0.0361 -0.0598 -0.1445
19160W        W38694   5.293  10.525  13.934 -0.0739 -0.0597 -0.0686
19161W        W38695  13.409   2.863   3.338  0.0334  0.2986 -0.0803
19162W        W38696  13.175  13.845  15.217  0.5159  0.0498 -0.0411
19163W        W38697  14.256   6.117   0.205 -0.1045  0.0670  0.0278
19164W        W38698   5.938  14.805   2.283 -0.5183  0.0797 -0.1491
19165W        W38699   7.617  17.114  11.712 -0.0351  0.0986 -0.1079
19166W        W38700   3.036  12.949   4.728 -0.1653  0.1200 -0.1221
19167W        W38701   1.196  15.118  12.479 -0.1653  0.1611 -0.0361
19168W        W38702  13.367  15.989  11.828  0.1964 -0.1394 -0.1397
19169W        W38703   8.120   1.640  15.047 -0.1677 -0.0392  0.2102
19170W        W38704  14.278   8.148   1.210  0.0714  0.0033 -0.2382
19171W        W38705   1.894  12.145  13.178  0.0421 -0.0438  0.0455
19172W        W38706   1.486   0.707   3.602  0.3610 -0.1886  0.0661
19173W        W38707  11.340   6.419   4.434 -0.1760 -0.0012  0.1664
19174W        W38708   6.202   3.231  13.325  0.3175 -0.1969 -0.0768
19175W        W38709  16.602  11.453   4.644 -0.0952  0.0642  0.2676
19176W        W38710  10.911  16.550   4.166 -0.1231  0.1603  0.3312
19177W        W38711   8.912  10.787  12.700  0.3685  0.0288 -0.0231
19178W        W38712  15.048   3.172   2.209  0.2040  0.1375 -0.1604
19179W        W38713   2.973   6.723  12.027 -0.2032  0.0069 -0.0669
19180W        W38714   6.079  16.885  15.899  0.1286 -0.3758  0.0969
19181W        W38715   2.347   2.816  13.477 -0.0229 -0.0742 -0.0667
19182W        W38716  12.666  11.535  14.091  0.0159 -0.0544 -0.1071
19183W        W38717  11.454   4.094   0.013 -0.4406 -0.0427 -0.0029
19184W        W38718  14.264   6.091   4.021 -0.0980 -0.1903 -0.3280
19185W        W38719  10.583  17.871  14.674 -0.0812  0.1830 -0.0200
19186W        W38720  12.776   4.339   2.150  0.1006 -0.2437 -0.0632
19187W        W38721  11.167   3.006  13.453  0.0207 -0.2162  0.1351
19188W        W38722   6.560   9.154   3.326 -0.0813  0.0528  0.3259
19189W        W38723  12.917  17.281  11.914  0.1602  0.1555 -0.0364
19190W        W38724  14.079  16.327  15.357 -0.0310  0.1574  0.0164
19191W        W38725   1.885  13.949  11.980 -0.1303 -0.2347  0.1705
19192W        W38726  10.956  10.418   1.029  0.5192 -0.0723 -0.0861
19193W        W38727  16.299  16.541   2.347 -0.1424 -0.1145  0.0787
19194W        W38728  13.180   1.244   1.024 -0.3171  0.1194 -0.1107
19195W        W38729  11.215  11.756   4.246  0.2272 -0.0253 -0.2785
19196W        W38730   1.505  14.689   0.887  0.0680  0.2664 -0.2543
19197W        W38731  13.589  12.515  15.475 -0.1073 -0.3525  0.0465
19198W        W38732   0.869  10.432   0.075 -0.0826 -0.2519  0.0767
19199W        W38733  16.575  16.381   3.394 -0.2205  0.1277  0.0971
19200W        W38734   4.846   7.827   1.118 -0.0482  0.1141 -0.1875
19201W        W38735   8.559   9.874  13.144 -0.0609 -0.3860 -0.1222
19202W        W38736  10.670   8.489  12.598  0.2480  0.0056  0.1014
19203W        W38737   8.780   7.903  15.655  0.1849  0.0892 -0.0747
19204W        W38738  10.806  11.229  14.976  0.0204  0.0178 -0.0714
19205W        W38739   3.318   9.062  11.249 -0.0882 -0.0296  0.1097
19206W        W38740   7.883   3.048  14.793  0.0965  0.0394 -0.1972
19207W        W38741  11.954   4.287   2.838  0.0652 -0.0944  0.2136
19208W        W38742  16.246  14.385   2.191 -0.1824  0.0575  0.1090
19209W        W38743   9.297   9.821  13.812  0.0815 -0.0434 -0.0139
19210W        W38744  10.402   9.608   4.938 -0.1311  0.2931 -0.2332
19211W        W38745   0.821   6.473  14.751 -0.2649  0.1100  0.0542
19212W        W38746   0.430   2.510  15.482 -0.0781 -0.1941 -0.0541
19213W        W38747  15.258  15.487  13.259 -0.1424  0.2004  0.1355
19214W        W38748   5.693   6.028  15.326  0.0718  0.0763  0.4963
19215W        W38749   7.129  17.608  15.912 -0.1775 -0.0593  0.1032
19216W        W38750   6.393   9.339  12.058 -0.1433 -0.2511 -0.2910
19217W        W38751  13.470  13.110   3.963 -0.2931 -0.0451 -0.4019
19218W        W38752   4.580  16.726  13.996 -0.1037  0.0689  0.0361
19219W        W38753  17.192  11.050   1.530  0.0310  0.3108  0.0689
19220W        W38754  11.600  13.309   4.870  0.1092  0.0030 -0.1379
19221W        W38755  13.505   2.308   0.288 -0.0358  0.1054  0.1718
19222W        W38756  13.088   1.390  13.762  0.1845  0.0385 -0.1622
19223W        W38757  16.518   1.369  11.525 -0.1197 -0.0273 -0.4008
19224W        W38758   0.853  17.852  10.543 -0.0124  0.2668 -0.1460
19225W        W38759  11.581   8.866   1.165 -0.3476 -0.0683 -0.0641
19226W        W38760  14.468   0.629  11.745  0.0967 -0.0112  0.0620
19227W        W38761  16.038  17.356  13.160 -0.0914  0.3978  0.2478
19228W        W38762   8.837  12.485   5.511 -0.2691 -0.1802  0.2107
19229W        W38763  17.335   1.537   3.725  0.3507  0.0437 -0.0652
19230W        W38764   2.123   6.120  15.124  0.2080  0.0184 -0.0457
19231W        W38765  11.007   0.905  11.893  0.0182 -0.1540  0.1625
19232W        W38766  12.738   1.211  15.796  0.0279 -0.1764 -0.1575
19233W        W38767   2.869  14.459  13.905  0.1891  0.0452 -0.1619
19234W        W38768   3.841   9.787  12.346  0.2134 -0.2114  0.1669
19235W        W38769   1.304   1.979   2.798 -0.0355  0.0270 -0.0687
19236W        W38770  16.034   5.287  13.030  0.1030  0.0958  0.0585
19237W        W38771   4.666   6.815  14.100 -0.1425  0.0093  0.2885
19238W        W38772  14.187   7.408  13.767  0.0529 -0.1128 -0.1042
19239W        W38773  14.614   2.905  12.373  0.1321 -0.1332 -0.0497
19240W        W38774   3.403   4.042   1.978  0.0513 -0.2494 -0.1652
19241W        W38775  12.231   9.962   4.534  0.0397 -0.1451 -0.3130
19242W        W38776   1.394   7.560   3.296 -0.1685  0.1438 -0.0497
19243W        W38777   5.913   4.239  12.720 -0.1186  0.0557  0.1967
19244W        W38778   0.307  11.525  13.105 -0.1307 -0.0348 -0.2652
19245W        W38779  17.380   6.002   3.219 -0.0674  0.0331 -0.1327
19246W        W38780   9.960   9.536   1.411 -0.2038  0.2148  0.4572
19247W        W38781  10.116   6.767  15.329 -0.1298 -0.2086  0.2405
19248W        W38782  17.072  16.876  11.144  0.3348  0.0570  0.0224
19249W        W38783   4.199   6.635   4.214  0.2114 -0.0085 -0.0173
19250W        W38784  18.039   8.758   2.436  0.0091 -0.2075 -0.3834
19251W        W38785   5.806   7.600  11.627  0.1819  0.2335 -0.1860
19252W        W38786   4.640  12.033   0.175  0.1800 -0.0983  0.1905
19253W        W38787   6.614   1.240  13.359 -0.0367  0.1162 -0.0412
19254W        W38788   9.056   2.647  15.251  0.1447  0.0278  0.2959
19255W        W38789   5.251   3.864   4.473 -0.0309 -0.1104  0.5270
19256W        W38790  16.527   6.176   0.279  0.0554 -0.4003 -0.1880
19257W        W38791  17.067  12.717   2.652  0.3439 -0.0191  0.2095
19258W        W38792   4.337   7.598  11.799  0.1265  0.0588 -0.2453
19259W        W38793   2.817   5.338   3.230  0.1428  0.0924 -0.1326
19260W        W38794   3.628  15.469   3.909 -0.1727 -0.1681 -0.3033
19261W        W38795   6.329   9.667   4.126  0.1501 -0.0601 -0.3539
19262W        W38796  13.234  16.467  15.669  0.0149  0.1355  0.0405
19263W        W38797   1.972   8.838  15.098 -0.0846 -0.0234 -0.0068
19264W        W38798  14.870   7.413  12.515  0.4348 -0.0312 -0.1179
19265W        W38799  15.573   8.408  14.003 -0.1271  0.0693  0.1009
19266W        W38800  11.364  15.290  11.092  0.2879 -0.2523  0.1125
19267W        W38801   3.859   2.488   1.750  0.1834  0.0638 -0.1584
19268W        W38802  14.065  16.994  15.763 -0.0071 -0.0797  0.0504
19269W        W38803   9.809  11.065  14.938 -0.3742 -0.0142 -0.3099
19270W        W38804  13.846   7.741  14.663 -0.1277 -0.3663 -0.1230
19271W        W38805  16.991  17.226  14.736  0.2181  0.0062 -0.0221
19272W        W38806   4.993  17.739  11.546  0.3106 -0.1254  0.0525
19273W        W38807   5.066  12.530  12.432  0.1180  0.1616  0.0793
19274W        W38808  10.133  13.844   3.220 -0.0653 -0.0753  0.0769
19275W        W38809  11.167   4.782   1.049  0.1023  0.0252 -0.1544
19276W        W38810   2.900  10.167  13.791 -0.2045  0.1326 -0.2324
19277W        W38811  17.229  10.701  13.460 -0.1268 -0.0630 -0.2813
19278W        W38812  15.830   1.803   4.163 -0.0175  0.1922 -0.0058
19279W        W38813  18.165   2.251   4.453  0.3856  0.1053  0.0236
19280W        W38814   8.887   8.864  14.029 -0.1332  0.1855 -0.4513
19281W        W38815   0.738   5.314  15.711  0.2468 -0.2753 -0.1459
19282W        W38816  11.912  11.624  11.870  0.0882  0.1780  0.1226
19283W        W38817  15.472   5.998   4.315  0.0593  0.4895  0.0981
19284W        W38818   8.542  11.846   1.642 -0.0396  0.0783  0.1672
19285W        W38819   3.947   8.858   2.435  0.1503 -0.0238  0.0320
19286W        W38820  14.448   7.060   0.184 -0.1233 -0.2461  0.0794
19287W        W38821   8.362   3.830  15.514  0.1404 -0.0360 -0.2221
19288W        W38822  10.226  15.424   5.406 -0.1493  0.1811  0.2407
19289W        W38823  13.093  14.646  14.089 -0.1136  0.1743  0.0762
19290W        W38824   9.483  11.398  14.689  0.0910 -0.0565 -0.0111
19291W        W38825   2.026  11.614   2.240  0.1304  0.3228 -0.0371
19292W        W38826   1.671   5.191   3.921  0.0769 -0.1180  0.2465
19293W        W38827   1.428  10.689   3.716 -0.0835 -0.0761  0.1807
19294W        W38828   7.171   0.688   2.351 -0.0276 -0.2120 -0.0927
19295W        W38829   6.329   3.199   0.457  0.2201 -0.1646  0.2000
19296W        W38830   3.430  13.928  15.914  0.1556 -0.2406 -0.0119
19297W        W38831   7.705  12.698  15.096 -0.1908  0.1747  0.0090
19298W        W38832   3.915   0.509  10.701 -0.1118  0.1247  0.1119
19299W        W38833   7.587  13.608  15.852  0.4207 -0.0255 -0.1644
19300W        W38834  14.671  14.468   0.238  0.1474  0.0169 -0.2381
19301W        W38835   2.418   5.345  10.237  0.0114 -0.0403  0.1608
19302W        W38836   6.214   6.314   1.655  0.0703 -0.1346 -0.1374
19303W        W38837   1.316  13.648   2.507 -0.0086  0.5571 -0.1828
19304W        W38838   8.696   5.040   1.025  0.0285  0.0166 -0.0286
19305W        W38839   1.927  17.955  12.711 -0.2439  0.2458 -0.0401
19306W        W38840  14.289   2.861  11.504  0.1993  0.1747 -0.0803
19307W        W38841  10.782   3.221   3.291  0.1152  0.0633 -0.2069
19308W        W38842   2.649   2.529   0.653  0.2201  0.0667  0.0163
19309W        W38843   6.804  10.532  15.506 -0.0110 -0.0341 -0.3324
19310W        W38844   7.519   0.910  11.289 -0.0223  0.0496 -0.1913
19311W        W38845  11.843   2.443  15.768  0.2521  0.1898  0.1502
19312W        W38846   5.985   2.816   2.310  0.1142  0.0163  0.0312
19313W        W38847   3.748  16.596   4.230 -0.2709 -0.1768 -0.0820
19314W        W38848   0.610   4.636   1.809  0.1607  0.2205  0.1312
19315W        W38849   3.617  16.421  15.403  0.1287 -0.1617 -0.4759
19316W        W38850   1.550   4.980   2.700 -0.0490  0.2857 -0.1188
19317W        W38851  10.618  11.973   1.300 -0.0427  0.3533  0.0477
19318W        W38852   6.835   9.621  15.813 -0.1517  0.0752  0.3250
19319W        W38853  10.720   6.940  14.639  0.1556 -0.2996 -0.1302
19320W        W38854   6.330  14.456   3.931  0.0114  0.4679 -0.1287
19321W        W38855   8.332   9.752  14.731 -0.0854  0.1304  0.0346
19322W        W38856   8.749   2.263  14.997  0.4259  0.0306 -0.0434
19323W        W38857  17.494   6.254  13.828 -0.1259  0.0733  0.0654
19324W        W38858   0.230  11.310  13.600 -0.2207  0.0921 -0.2212
19325W        W38859  11.765  14.936   3.329  0.2871  0.1972  0.0496
19326W        W38860  14.958   7.474  15.677  0.2270  0.0174  0.0438
19327W        W38861  14.113  13.646   3.516 -0.0753  0.2237 -0.0440
19328W        W38862  13.684  15.158  12.925 -0.1363 -0.0708  0.4264
19329W        W38863   1.679   9.504   2.971  0.2109  0.0449 -0.0632
19330W        W38864   1.051  14.345   4.358 -0.1187 -0.2900  0.0667
19331W        W38865   3.608  16.279   3.774 -0.0086  0.1933  0.3510
19332W        W38866  17.592   4.979   4.725  0.1326 -0.0826  0.3070
19333W        W38867  14.524  13.575   5.160  0.1131 -0.0400 -0.0874
19334W        W38868  12.446  17.491   1.574  0.1496  0.0015 -0.1216
19335W        W38869   7.362  13.516  10.633  0.2521  0.1857  0.1458
19336W        W38870  10.074   1.867   2.541 -0.2892  0.1575 -0.0219
19337W        W38871  16.762   5.434  11.856 -0.2638  0.0730  0.0998
19338W        W38872   6.559  11.064   2.591 -0.2641  0.0876  0.3362
19339W        W38873   9.164  17.630   4.807  0.0947 -0.2286 -0.0396
19340W        W38874  11.135  14.594   2.272 -0.2468 -0.2055 -0.1767
19341W        W38875   5.747   6.479  11.424 -0.1608 -0.2756 -0.0521
19342W        W38876  17.897   4.137  15.907 -0.3454  0.1136  0.0465
19343W        W38877   5.336   9.343  15.949 -0.1653  0.1475 -0.1154
19344W        W38878  11.462  13.395  12.580  0.3416  0.3352 -0.0922
19345W        W38879  12.836   5.154  12.001  0.2660  0.1009 -0.0838
19346W        W38880  10.692  11.772   4.616  0.2232  0.1267 -0.0944
19347W        W38881   2.368  10.225  11.840  0.1304 -0.0570  0.0115
19348W        W38882  15.682   6.846  12.183  0.0243  0.1961  0.0777
19349W        W38883  13.802   5.520  14.075 -0.1941  0.5708  0.0823
19350W        W38884  13.240  16.007  14.961  0.1890 -0.1559 -0.1004
19351W        W38885  11.085   9.886   0.629 -0.1280  0.1574  0.0027
19352W        W38886   9.731   4.011   3.340 -0.3642  0.0218 -0.1342
19353W        W38887   4.652   4.150   2.554 -0.0213  0.1345 -0.3558
19354W        W38888  13.269   8.762  13.647  0.1521  0.2202 -0.1803
19355W        W38889   2.650   6.686  12.948  0.1943 -0.2388 -0.0390
19356W        W38890  17.377   7.315  15.465  0.2516  0.1719  0.0135
19357W        W38891   6.037   7.360   2.168 -0.1456  0.1112 -0.1591
19358W        W38892  17.484   3.610   4.892  0.0530  0.2765 -0.1029
19359W        W38893  18.055   0.364   0.504  0.1849  0.0726  0.0095
19360W        W38894  17.030   2.244  14.635  0.1080 -0.1246 -0.0531
19361W        W38895   3.521  12.545  12.814 -0.3491 -0.0424  0.0771
19362W        W38896   6.360   6.817   1.827 -0.0323  0.1888  0.1472
19363W        W38897  10.189  12.231   1.301  0.2005  0.1618  0.0430
19364W        W38898   2.609   5.620  12.960  0.2024  0.0541 -0.4015
19365W        W38899   3.768   2.458  14.122  0.1736  0.0210 -0.1904
19366W        W38900  12.117   3.904  15.013  0.1825  0.1775 -0.2572
19367W        W38901   6.556  10.895   3.043 -0.3550 -0.1241 -0.0076
19368W        W38902  12.728   9.321  13.846  0.0600 -0.0012  0.0933
19369W        W38903   4.119   6.838   1.294 -0.2385 -0.1357 -0.2895
19370W        W38904  10.580  12.181  11.797  0.1765 -0.1886 -0.0115
19371W        W38905  13.720  16.423  14.989  0.0698  0.1696 -0.0927
19372W        W38906   7.118  13.166  12.511  0.0914  0.2652 -0.3560
19373W        W38907   7.565  15.333   1.610  0.1972  0.1452  0.3008
19374W        W38908   6.486   3.454  15.168  0.1539 -0.1265 -0.0696
19375W        W38909  14.902   2.568  14.966 -0.0152 -0.3564  0.1305
19376W        W38910   1.556  15.474   1.716 -0.0081 -0.3159 -0.1061
19377W        W38911   5.893  17.819   0.470 -0.0567  0.1558  0.2610
19378W        W38912   1.909  16.640   0.647 -0.3244  0.0153  0.2090
19379W        W38913   3.916  10.608   0.489  0.0032 -0.0308  0.5070
19380W        W38914  17.022   6.580  15.205  0.1693 -0.1022 -0.1329
19381W        W38915  12.306  16.981  12.178  0.1309  0.0288  0.3196
19382W        W38916  11.895   1.175   0.869  0.2175 -0.0043 -0.2035
19383W        W38917   6.933  13.372   0.742 -0.0759  0.4397  0.0382
19384W        W38918  12.391   8.354  12.645 -0.0825  0.1157  0.0626
19385W        W38919   7.567   1.994   1.457 -0.1439  0.2507  0.0962
19386W        W38920   9.359   2.270   2.003  0.1788 -0.2003 -0.0955
19387W        W38921   8.518   9.169   2.604  0.0162  0.0156 -0.3975
19388W        W38922  14.256   3.743  12.968  0.6204  0.1807 -0.0262
19389W        W38923   7.711  15.751   3.561  0.0041  0.3305  0.0466
19390W        W38924   1.586   7.293   0.571 -0.0011 -0.2358 -0.0947
19391W        W38925   1.664  16.227   1.219  0.0691  0.0752 -0.3555
19392W        W38926   7.740  18.098  13.403 -0.1140 -0.0017  0.3974
19393W        W38927  13.321   0.083  14.194  0.3521  0.0007  0.2689
19394W        W38928   8.734   2.345  13.438  0.2360 -0.0631  0.0424
19395W        W38929   8.078   5.037   3.677  0.2165 -0.1935 -0.1400
19396W        W38930   3.205   1.982   1.740  0.0683  0.1496  0.2778
19397W        W38931   0.414   3.254  14.252 -0.2196  0.3409  0.0397
19398W        W38932   7.023  14.834   2.899 -0.1122 -0.0842  0.1883
19399W        W38933  17.299   7.851  12.567 -0.3148 -0.3685 -0.0988
19400W        W38934  15.762  11.875  11.582 -0.0063  0.0724 -0.3883
19401W        W38935   1.058   0.180   2.715 -0.2311 -0.3045  0.2244
19402W        W38936   9.500  11.414  12.607  0.3911 -0.0668 -0.1437
19403W        W38937   9.484  11.655   0.161  0.1713 -0.2072  0.0140
19404W        W38938  11.178   1.793   1.979  0.0581  0.1339 -0.0966
19405W        W38939  11.457  13.514  15.403 -0.0499  0.1374  0.1934
19406W        W38940   5.028  10.219  15.807  0.1582 -0.0555  0.0472
19407W        W38941   2.789   1.916  13.722 -0.1768  0.0548 -0.0063
19408W        W38942   4.835  13.884   0.273 -0.2937  0.1287  0.0243
19409W        W38943   3.643   2.921  15.307  0.0197  0.0855  0.1176
19410W        W38944  14.581  10.222   2.049  0.1301 -0.0799  0.0981
19411W        W38945  16.790   8.282  14.771  0.2444  0.0751  0.0740
19412W        W38946  13.485  16.691   1.376  0.1818 -0.2074  0.2128
19413W        W38947   6.053   8.267   0.501 -0.1166 -0.0900 -0.2644
19414W        W38948  17.268   0.512  11.228  0.0867 -0.0405 -0.0168
19415W        W38949   9.386   1.810  12.967  0.2728  0.2185 -0.1721
19416W        W38950   1.793  14.640   2.023 -0.0122  0.1643  0.0625
19417W        W38951   3.192   5.148   4.125 -0.0102  0.0739 -0.0376
19418W        W38952  16.891   6.440  12.688  0.1162  0.4653  0.0185
19419W        W38953  13.862   2.738  12.230 -0.0465 -0.2060 -0.0336
19420W        W38954   6.188  15.578   0.878 -0.1292 -0.1607 -0.2049
19421W        W38955   9.078  14.317   2.349  0.0009  0.0100 -0.3598
19422W        W38956   9.550   6.405   2.671 -0.2110  0.0271  0.0598
19423W        W38957   4.685  13.646  14.572  0.0784  0.1401 -0.2342
19424W        W38958  13.052  12.488   3.375 -0.1550  0.1318 -0.0748
19425W        W38959   4.271  15.030   4.393  0.0994 -0.1346  0.1258
19426W        W38960  16.156  17.998   4.330  0.0103  0.0188 -0.2718
19427W        W38961  17.132   9.011   4.206 -0.2462  0.1153  0.1614
19428W        W38962  17.742   5.061   2.864 -0.1207 -0.0772  0.0187
19429W        W38963  15.986  15.650   3.750  0.0686 -0.0557 -0.1481
19430W        W38964  15.940  11.779   0.233  0.0035 -0.1206  0.0606
19431W        W38965  15.487  15.855   0.836 -0.0496 -0.0314  0.2142
19432W        W38966   4.841   4.785  11.321 -0.0272  0.2328 -0.2761
19433W        W38967   2.644   9.731   2.328 -0.1968 -0.2211  0.1928
19434W        W38968  14.864  14.263  11.583  0.0734 -0.2416 -0.1447
19435W        W38969   5.494  17.835   1.499  0.0456 -0.2244  0.1009
19436W        W38970   9.885   3.443   1.591  0.0174 -0.1441  0.0115
19437W        W38971   2.346   5.345   3.599  0.2568 -0.0101  0.0271
19438W        W38972   7.855   1.598   0.800 -0.0748  0.2548 -0.1647
19439W        W38973   3.174  12.198  12.784 -0.3553 -0.2362  0.0924
19440W        W38974   6.688   8.689  11.290 -0.0185  0.0536 -0.1816
19441W        W38975   9.614   8.833   1.937  0.1132 -0.0375 -0.0085
19442W        W38976   0.736   2.832   0.292 -0.1311  0.0464  0.0940
19443W        W38977   0.450   5.560  13.154  0.1625 -0.1158  0.1067
19444W        W38978  12.868   9.228   0.422  0.1600 -0.0831 -0.1252
19445W        W38979  16.702  14.791   0.090 -0.0095 -0.2607  0.1603
19446W        W38980   0.414  17.848   2.057 -0.0819  0.1445 -0.1165
19447W        W38981  15.300   6.569  14.116 -0.2247 -0.2238 -0.2001
19448W        W38982  16.113  17.493   1.630 -0.1898 -0.0172 -0.0312
19449W        W38983   5.534  10.184   4.304  0.2589 -0.3093  0.0821
19450W        W38984   7.477  17.079   4.355 -0.3482  0.0988  0.0272
19451W        W38985   6.734   5.530  14.349 -0.1456  0.3260 -0.1146
19452W        W38986  10.921  16.544   0.219  0.0628 -0.1919 -0.0244
19453W        W38987   6.504  13.730  13.213 -0.2625  0.1055 -0.0657
19454W        W38988   0.183  15.814   4.095  0.3093 -0.0566 -0.0788
19455W        W38989  18.080   8.395  14.035  0.3827 -0.1787 -0.0612
19456W        W38990  12.195  18.156   3.794 -0.3689  0.2945  0.0431
19457W        W38991   7.029   8.989  13.983 -0.1245 -0.1299 -0.0897
19458W        W38992  16.052   9.203   4.228 -0.1430  0.0535  0.1849
19459W        W38993  13.589  10.793  15.237  0.2472 -0.0711  0.3859
19460W        W38994   1.071   6.009  15.050 -0.2056 -0.0237  0.2031
19461W        W38995   0.034  18.089  13.344  0.2002  0.0844 -0.1034
19462W        W38996   4.276  17.076   2.828  0.1018  0.0972 -0.1034
19463W        W38997   2.540   4.930   3.380  0.1354 -0.1260  0.1079
19464W        W38998   8.765  12.313   2.936 -0.1738 -0.2127 -0.0340
19465W        W38999   4.961   1.667  12.090 -0.0314 -0.1354  0.1442
19466W        W39000  18.017  15.119  16.024 -0.2581 -0.0408 -0.0714
19467W        W39001  15.151  13.109   0.160 -0.4113  0.2123 -0.0601
19468W        W39002   5.835  13.408  15.623 -0.1455  0.1175 -0.0749
19469W        W39003   2.018   7.570   2.940 -0.1170 -0.0630 -0.3361
19470W        W39004  10.615  10.162  12.760  0.0511 -0.1796 -0.0642
19471W        W39005  17.289  16.701   4.274 -0.1066  0.1140 -0.4429
19472W        W39006  14.070   3.652   4.092 -0.2684 -0.1491  0.0608
19473W        W39007   3.286  16.822  11.819 -0.0393 -0.1044 -0.4049
19474W        W39008  10.612   0.920  15.997 -0.0191  0.0908 -0.6056
19475W        W39009   0.300  10.602  12.017 -0.3505  0.1081 -0.1248
19476W        W39010   2.776   2.844   1.004 -0.0694  0.0548 -0.3390
19477W        W39011   7.996  15.299  12.847  0.0940 -0.0828  0.4637
19478W        W39012   9.821   4.651  12.856  0.0082 -0.1292 -0.0074
19479W        W39013  12.966   8.340   3.066  0.0556 -0.0952  0.3893
19480W        W39014   8.930  17.580   4.348  0.3319  0.2300  0.0845
19481W        W39015   0.444   8.178  13.067  0.2238 -0.3776 -0.0034
19482W        W39016  17.212  18.066  12.624 -0.1797 -0.2422 -0.5365
19483W        W39017  18.074   0.419   3.897 -0.0101  0.0142  0.1287
19484W        W39018  11.394  14.300  10.378  0.1094 -0.0840  0.2537
19485W        W39019  12.143   7.074  14.594  0.1979 -0.0287  0.1504
19486W        W39020   6.302  18.165  12.505 -0.2230  0.1896 -0.1329
19487W        W39021   0.295  17.328   0.800  0.0986 -0.2075  0.0166
19488W        W39022   5.798   0.884  13.503 -0.1271  0.2128 -0.1840
19489W        W39023  10.511  15.020   0.416  0.1738 -0.2121 -0.0515
19490W        W39024   5.769   3.072   3.874 -0.0305 -0.0518 -0.0071
19491W        W39025  17.523   6.358  15.211 -0.2469  0.0503 -0.4024
19492W        W39026  17.448   4.169  13.702  0.0507  0.1299  0.0721
19493W        W39027   6.482   7.051  12.650  0.1955 -0.4018 -0.0993
19494W        W39028  16.386  12.546  15.124  0.0094  0.1699  0.0660
19495W        W39029  14.212  14.575   2.279  0.1557  0.0485 -0.1613
19496W        W39030  11.156   1.369  13.409  0.1340 -0.1001 -0.1124
19497W        W39031   0.518  12.907  13.122 -0.3734 -0.3536 -0.1165
19498W        W39032  11.005   8.871   2.700 -0.1446 -0.0930 -0.2543
19499W        W39033   8.874   2.402  15.967  0.1454  0.1639 -0.1508
19500W        W39034  16.395   0.806  11.932  0.3864  0.0763 -0.2029
19501W        W39035  11.601   4.680   3.154 -0.1326 -0.2606  0.1361
19502W        W39036   3.350   6.469  12.204 -0.0079  0.0263  0.0986
19503W        W39037   5.237   5.731  12.677 -0.0249  0.1188  0.2838
19504W        W39038   8.345  10.473   0.369  0.1217  0.0668 -0.0356
19505W        W39039   2.381   1.364  11.159  0.1743  0.0512 -0.0792
19506W        W39040   8.347  16.369   2.985  0.1415  0.1973  0.1163
19507W        W39041   1.312   5.507   0.141 -0.1278 -0.0086  0.2025
19508W        W39042   1.385  11.930   4.031  0.2429 -0.1591 -0.1784
19509W        W39043   4.359   0.769  15.625  0.0991  0.2528 -0.0822
19510W        W39044   6.593  12.379   0.364 -0.0865 -0.0429 -0.0590
19511W        W39045   3.137   2.524   0.545 -0.0011  0.0631  0.1228
19512W        W39046   7.373   0.272  13.682 -0.1093 -0.2856 -0.1801
19513W        W39047  13.054  12.685   0.811  0.2744  0.1108  0.1018
19514W        W39048   2.336   1.994   2.461  0.1774  0.0144  0.3631
19515W        W39049   4.320  17.362   4.331 -0.1474 -0.0631 -0.1283
19516W        W39050   9.488   4.351   4.494  0.1041  0.2019 -0.0532
19517W        W39051   2.075   7.959  13.779  0.1046  0.0415 -0.0871
19518W        W39052  11.490   3.130   1.468 -0.1087 -0.0737 -0.2146
19519W        W39053   5.313  16.858   3.624 -0.1413 -0.0701  0.1812
19520W        W39054   3.981   6.516   0.258  0.0158 -0.1649 -0.0287
19521W        W39055  10.579  17.083   2.174 -0.1994  0.0677  0.1153
19522W        W39056  12.916   9.097   4.651  0.0617 -0.1404  0.2039
19523W        W39057   0.936  13.118   2.656 -0.0494 -0.0029 -0.0790
19524W        W39058   2.926   4.580   0.442  0.0336  0.4114  0.2621
19525W        W39059   1.216  11.178   1.777 -0.2347  0.1091  0.0271
19526W        W39060   6.083  16.131  14.674 -0.1857 -0.2349 -0.0139
19527W        W39061   5.418   6.817  14.977 -0.0906  0.2265 -0.0510
19528W        W39062  14.923  17.461   1.918  0.1009  0.2153  0.1164
19529W        W39063   1.357   6.849   2.804 -0.0769  0.0215  0.2437
19530W        W39064  10.388  18.000  12.027 -0.1250 -0.2434  0.0743
19531W        W39065   1.947   4.183  12.015  0.2095 -0.1197 -0.1808
19532W        W39066   9.818   1.411  14.480 -0.0730 -0.0527  0.1691
19533W        W39067  17.230  12.038  12.246  0.0578  0.0890 -0.2871
19534W        W39068   0.171  10.962   3.699 -0.2146 -0.0987 -0.2242
19535W        W39069  17.912   4.558   2.909 -0.0127 -0.3269  0.0724
19536W        W39070  10.034   5.831  12.337  0.0247 -0.1899 -0.0604
19537W        W39071   5.299   7.478  15.522 -0.1430  0.0149 -0.1335
19538W        W39072   8.001   0.945   0.225  0.0575  0.1232  0.2416
19539W        W39073   9.305   7.233  14.567  0.1363 -0.3231 -0.0537
19540W        W39074  11.544  15.326   3.645  0.2721 -0.1835  0.0823
19541W        W39075   9.951  11.136  12.017  0.0597  0.0594 -0.0814
19542W        W39076  13.671   6.976  14.451  0.0325  0.0101  0.0328
19543W        W39077   4.324  15.720   3.294 -0.0639  0.1687 -0.2342
19544W        W39078   2.827   1.427  10.821 -0.2231  0.0211 -0.0551
19545W        W39079  17.323   8.340   3.340 -0.1241  0.0419 -0.3460
19546W        W39080   0.552   4.774   4.237 -0.1320  0.0580 -0.0058
19547W        W39081  12.305   2.070  14.642 -0.1510 -0.0866 -0.3673
19548W        W39082  10.922  17.231   0.398  0.2773 -0.1128 -0.0448
19549W        W39083  11.836   1.011   4.602  0.1453  0.1099 -0.1351
19550W        W39084   0.546  13.516  13.444  0.0182 -0.2553  0.1694
19551W        W39085   5.264  14.807  11.383  0.0894  0.0066 -0.1825
19552W        W39086   7.047  17.383  14.915 -0.2283  0.1158  0.0002
19553W        W39087  13.313   3.950   4.811  0.1995  0.0323 -0.0592
19554W        W39088   2.423   5.609   3.989 -0.1262 -0.0160  0.2356
19555W        W39089   8.552   2.756  12.954  0.0794  0.1466 -0.2733
19556W        W39090   9.011  15.245  12.925  0.1834  0.0438 -0.0649
19557W        W39091  16.015  16.040   0.910  0.0221 -0.0907 -0.1895
19558W        W39092  13.560  13.020  15.596  0.0898  0.0122  0.3706
19559W        W39093  17.412  15.421   0.630 -0.0971 -0.3931 -0.1382
19560W        W39094  17.994   2.594   3.411 -0.1449  0.0891  0.1203
19561W        W39095  11.987   6.866   3.598 -0.1706 -0.2676 -0.1256
19562W        W39096  14.548  14.311   0.986 -0.1248  0.0453 -0.1129
19563W        W39097   0.921   6.483  13.273  0.0697 -0.1764 -0.1953
19564W        W39098  17.164   0.268   2.121  0.0151 -0.1314  0.1428
19565W        W39099  13.241  17.681   3.184  0.0198 -0.0618 -0.0671
19566W        W39100   8.644   3.470  13.656 -0.0426 -0.1576 -0.2476
19567W        W39101  10.425  13.678  13.704 -0.1726 -0.0172  0.2424
19568W        W39102  10.553   8.473   2.172 -0.2303  0.0743  0.0489
19569W        W39103  12.777  11.201  12.813 -0.1153  0.0978 -0.2925
19570W        W39104   4.650  12.621  12.175  0.2109 -0.1233  0.0452
19571W        W39105   0.714  14.289  13.126  0.1893  0.0285  0.0585
19572W        W39106  12.698  15.044   2.486  0.1042 -0.2769 -0.1173
19573W        W39107  10.801   6.993  15.956 -0.2194 -0.3206 -0.0515
19574W        W39108   9.513   1.946   1.134  0.1502  0.2780 -0.0963
19575W        W39109   0.886  12.793  11.634 -0.2464  0.1758  0.0433
19576W        W39110  10.590  12.802  15.500 -0.0371  0.1176  0.0313
19577W        W39111   2.951   0.027  13.309 -0.1051  0.1244 -0.0442
19578W        W39112   9.657   0.851   1.643 -0.0961  0.1367  0.2807
19579W        W39113   9.316   4.677  11.116  0.0631 -0.1063  0.2647
19580W        W39114   3.132  13.902   2.314 -0.1755 -0.0810  0.0689
19581W        W39115  10.027   7.280  14.339 -0.0521  0.0994  0.2016
19582W        W39116   8.042   0.592   1.575  0.0296  0.0724 -0.0706
19583W        W39117  13.962  11.404   0.718  0.2125 -0.0222  0.0347
19584W        W39118   8.525   9.934   0.464 -0.1685  0.1192  0.0096
19585W        W39119  13.474   1.511  12.169 -0.1016 -0.3107  0.1005
19586W        W39120   7.245  12.513  12.887 -0.0887  0.3558 -0.0904
19587W        W39121  10.736  14.107  12.477 -0.1891 -0.0132  0.0037
19588W        W39122   8.128  18.040   0.412  0.0359 -0.2173 -0.0458
19589W        W39123  12.401   9.860   1.901 -0.1695  0.3047 -0.1337
19590W        W39124   4.192   1.489  13.582 -0.0495  0.1906 -0.1412
19591W        W39125   9.130   6.026   3.679 -0.0159  0.0116 -0.0057
19592W        W39126  14.569   1.229  12.937 -0.0888  0.4311 -0.0486
19593W        W39127  15.029  12.065   0.008  0.1489 -0.0949  0.0262
19594W        W39128  17.339   8.864   0.757  0.1361 -0.0465 -0.1271
19595W        W39129  16.746  13.321  15.073 -0.0382  0.1069 -0.2664
19596W        W39130  16.615   7.957  11.794 -0.0959 -0.0287 -0.1281
19597W        W39131   0.238  13.411  14.944  0.0658 -0.0706 -0.2506
19598W        W39132   1.187   6.783  14.544 -0.3990  0.3387 -0.3101
19599W        W39133  11.079  15.490  14.603 -0.2677 -0.1764  0.0876
19600W        W39134   5.764   6.046  13.316 -0.0159 -0.3746 -0.1024
19601W        W39135  10.006  17.228  13.218 -0.1833 -0.0213 -0.0295
19602W        W39136   1.093  11.540  13.375 -0.0124 -0.1492  0.0498
19603W        W39137   7.286  16.909  12.061 -0.2398  0.1654 -0.1047
19604W        W39138  13.922   9.071  12.833  0.0910 -0.1589 -0.0576
19605W        W39139   2.641  10.258  15.303  0.3236  0.1048  0.1468
19606W        W39140  15.493  11.367   3.849  0.1010  0.2216  0.0079
19607W        W39141   6.010   1.460   1.981  0.0980 -0.1868 -0.0858
19608W        W39142   2.352   6.475   4.362  0.2269  0.1565 -0.1044
19609W        W39143   4.295   4.644   4.227  0.1216 -0.0317  0.1380
19610W        W39144   8.945   9.104   0.876 -0.0291 -0.1105  0.1906
19611W        W39145   4.229   6.952   3.073  0.0991 -0.1830  0.0396
19612W        W39146  15.536   8.335  15.910 -0.1946  0.1701 -0.3153
19613W        W39147  13.657  12.223  11.076 -0.1100  0.2320  0.0492
19614W        W39148  12.674  14.357  15.372 -0.0760 -0.0282  0.1521
19615W        W39149   0.450   0.430   0.270 -0.2584  0.1025 -0.0480
19616W        W39150  18.066   7.235  11.925  0.0518 -0.0787 -0.0956
19617W        W39151  10.138  11.601   0.467  0.1792 -0.0918  0.0475
19618W        W39152   3.222  18.049  11.525  0.3616 -0.4631  0.1623
19619W        W39153   2.775  13.540   1.408  0.2653  0.1894 -0.0201
19620W        W39154   5.511  11.702   3.076  0.1371 -0.2389  0.0965
19621W        W39155  10.397  11.228  12.745 -0.0370  0.1781 -0.0658
19622W        W39156   4.196  13.691   0.831 -0.2653 -0.3854  0.3972
19623W        W39157   8.924  18.087   4.392  0.0042 -0.0775 -0.1330
19624W        W39158   9.334  12.731   3.406  0.0952  0.1117 -0.2699
19625W        W39159  11.604  10.538  12.757  0.2886  0.1127 -0.0319
19626W        W39160   7.039   7.387  15.637 -0.1085 -0.1655 -0.0620
19627W        W39161   7.287  11.884   0.525  0.1859 -0.1310  0.1196
19628W        W39162  10.732   7.586   3.944 -0.1653  0.1606  0.0841
19629W        W39163   9.044  10.911  13.206  0.0085 -0.3313  0.0065
19630W        W39164  17.537   3.265   3.612  0.1308 -0.1516 -0.4225
19631W        W39165  14.864  12.975   1.249  0.3784 -0.0613 -0.0747
19632W        W39166  13.672  10.599   2.387 -0.1169  0.0199 -0.1274
19633W        W39167  14.847  16.491   2.995 -0.3063 -0.0738 -0.0176
19634W        W39168   8.445   9.614  14.122 -0.0121  0.2334  0.1913
19635W        W39169  16.411   7.087  15.130  0.3913  0.1267  0.2922
19636W        W39170  10.448   2.210  13.704 -0.0620  0.1453 -0.0901
19637W        W39171  15.889  13.773   2.684 -0.0593  0.2000  0.1625
19638W        W39172  14.752   7.098  15.132  0.0569 -0.3083 -0.2784
19639W        W39173   3.602   0.962  12.908  0.1078 -0.3629  0.1487
19640W        W39174   8.950   4.247  15.991  0.0187  0.0906  0.0053
19641W        W39175  16.964   6.404   3.645 -0.0821 -0.3341  0.0731
19642W        W39176  12.155   9.846  14.870  0.0034  0.1061  0.0032
19643W        W39177   7.817  17.231   1.210 -0.2814 -0.1084 -0.0884
19644W        W39178   6.912  10.912  12.746 -0.2126  0.2865  0.1622
19645W        W39179   4.973  13.733  14.151  0.1947 -0.0849  0.3577
19646W        W39180   2.787  13.503   2.677 -0.1147 -0.1888  0.1291
19647W        W39181   2.237  13.993   4.493  0.0014 -0.0613 -0.3735
19648W        W39182  12.649   0.383  11.780  0.1664 -0.2928  0.0589
19649W        W39183   1.764  10.349  15.492  0.1388  0.2751  0.0123
19650W        W39184   2.280   9.556   3.839 -0.2986 -0.1020  0.0569
19651W        W39185   6.864  17.652   4.155  0.1865  0.0506  0.0433
19652W        W39186  15.137  16.697   4.517 -0.2215  0.0933  0.0737
19653W        W39187  13.774  12.769   1.555  0.1561  0.1903 -0.0336
19654W        W39188  13.174   8.421  15.142  0.0455  0.2200 -0.2133
19655W        W39189   1.352   0.332  11.702 -0.0291 -0.1727  0.3010
19656W        W39190   2.054   2.762  11.299 -0.0670  0.0186  0.1906
19657W        W39191   0.091   5.205   1.327 -0.0455 -0.1092  0.1196
19658W        W39192   1.546   5.384  12.154 -0.2473 -0.0840  0.1115
19659W        W39193   2.777   9.074   3.252 -0.3397  0.0236  0.1282
19660W        W39194  10.935   5.479   1.971  0.0466 -0.0936  0.2201
19661W        W39195  11.134   7.205   1.611 -0.2198 -0.0799  0.0787
19662W        W39196   3.485   8.786  12.403  0.0968 -0.0227  0.3510
19663W        W39197  18.176   7.922  13.419  0.1265  0.2572  0.1162
19664W        W39198   3.540   2.254   0.291  0.1290  0.2391  0.1827
19665W        W39199   9.413   2.207   3.123 -0.2064 -0.0661  0.0765
19666W        W39200  12.361  17.071  12.720 -0.0600 -0.1110 -0.1050
19667W        W39201  13.136   3.160  11.841 -0.1990 -0.2525 -0.0819
19668W        W39202  11.790  10.109  12.105 -0.0345 -0.2366  0.7219
19669W        W39203  11.774  13.394  13.587 -0.1267  0.0899  0.1826
19670W        W39204  17.438   2.959  14.934 -0.1636 -0.3578 -0.0584
19671W        W39205  13.421   8.210   2.812 -0.0053  0.1842  0.1055
19672W        W39206  15.586  14.631  14.687  0.3318  0.0572 -0.4123
19673W        W39207   0.293  12.613   2.327 -0.3266  0.0863  0.0127
19674W        W39208  17.815  10.164   0.011  0.0337  0.0596  0.2602
19675W        W39209   1.879   0.143   0.459 -0.1154 -0.0019 -0.0484
19676W        W39210   2.356  11.921   2.528  0.1775  0.1098 -0.0577
19677W        W39211   3.924  11.114  11.499 -0.1046 -0.0790  0.1146
19678W        W39212   8.457   5.493  14.596  0.2306 -0.0773 -0.0126
19679W        W39213   1.659   7.899   2.639 -0.0866  0.1282  0.0452
19680W        W39214  13.719  12.772  12.927 -0.0222  0.0093  0.0560
19681W        W39215   9.985   8.914  12.585 -0.1645  0.2018  0.0808
19682W        W39216   8.091  13.578  12.131  0.1047 -0.1262  0.0366
19683W        W39217   3.734   8.959  12.930  0.0460  0.0067 -0.1435
19684W        W39218  10.985   2.894   0.884 -0.0356  0.0935 -0.0752
19685W        W39219   7.027   5.302  15.680 -0.0981 -0.1803 -0.2018
19686W        W39220   2.547   1.705  14.217 -0.1557  0.2886  0.0951
19687W        W39221  11.855   2.418  14.486  0.0419  0.0345 -0.0954
19688W        W39222   0.309   7.765   1.953 -0.1094  0.1485  0.0767
19689W        W39223   5.942   9.326  11.910  0.0595  0.2533 -0.2016
19690W        W39224   2.459   0.499  14.754 -0.0187 -0.3442 -0.0029
19691W        W39225   0.451  16.070   0.680 -0.0118 -0.1646  0.1890
19692W        W39226   6.932   4.303   2.999 -0.1125 -0.0950 -0.0770
19693W        W39227   8.372   8.555   4.203 -0.0991  0.1013 -0.0067
19694W        W39228  10.426   2.274   0.906  0.0482  0.1614  0.1012
19695W        W39229   0.707  17.209  14.923 -0.0761 -0.0086 -0.1779
19696W        W39230   2.823   4.916   2.920 -0.0044  0.0433 -0.0235
19697W        W39231  16.820   5.914   3.153 -0.1320 -0.2069  0.0625
19698W        W39232  11.993   3.712   1.526  0.0727 -0.2011  0.0551
19699W        W39233  16.601  16.197   2.090 -0.2808 -0.1003  0.2833
19700W        W39234   2.855  15.842   3.060  0.3277  0.3491 -0.1481
19701W        W39235  16.965   1.881   0.996  0.1566  0.2703  0.1431
19702W        W39236  13.791   9.619   0.208 -0.1269  0.0632 -0.0409
19703W        W39237  11.460   7.152   4.177 -0.1034 -0.0109 -0.1247
19704W        W39238   0.343   6.296  14.485 -0.4388 -0.0779 -0.2895
19705W        W39239   0.439  15.323  14.828  0.1491  0.1953 -0.0395
19706W        W39240   1.685   3.338  13.490  0.0607  0.0557  0.1896
19707W        W39241   3.314   9.895  15.508  0.1529  0.0389  0.2041
19708W        W39242   9.722  14.145  16.034 -0.0282  0.1195 -0.1377
19709W        W39243  14.608  10.058   4.325 -0.2443  0.0434  0.1783
19710W        W39244   7.938  15.073   2.815 -0.2951 -0.3642  0.2829
19711W        W39245  13.670   4.361  13.716 -0.3952  0.0974  0.0395
19712W        W39246   4.971  10.816  11.380 -0.2186  0.0173 -0.1019
19713W        W39247  15.116  10.849  12.251  0.1627 -0.2928  0.0220
19714W        W39248   2.887   3.455   3.587  0.2530 -0.0281 -0.0271
19715W        W39249   8.320   5.027  14.686  0.0608  0.1724 -0.3226
19716W        W39250   8.781  14.981  12.531  0.4674  0.1057 -0.2140
19717W        W39251   9.285   5.746  10.414  0.1429  0.0692 -0.0244
19718W        W39252  13.078   9.504   4.893 -0.2434 -0.0552  0.2407
19719W        W39253   7.025   5.894   1.385 -0.0353  0.1143  0.1870
19720W        W39254  11.467  11.618   2.944 -0.0170  0.1065  0.1847
19721W        W39255  13.328   4.881   4.767  0.0952  0.0059 -0.1262
19722W        W39256  15.158   6.516  14.592  0.1065 -0.0291 -0.3373
19723W        W39257   0.309   8.247  13.725 -0.0216  0.2290 -0.3935
19724W        W39258   1.195   0.034   3.570  0.1073 -0.0249  0.2877
19725W        W39259   3.944   5.605   3.828 -0.2067 -0.0601  0.3742
19726W        W39260   9.586   4.167   0.653 -0.1916 -0.3492 -0.0279
19727W        W39261   1.754  12.311   3.841  0.0940  0.0250  0.0486
19728W        W39262  14.329  16.981  12.933  0.2146  0.0883 -0.0400
19729W        W39263   1.387   0.391   1.479  0.0511  0.0057 -0.2279
19730W        W39264  15.408   1.825  11.925  0.1635 -0.1489  0.0447
19731W        W39265   9.705  18.023   5.662  0.0048 -0.0599 -0.1979
19732W        W39266   4.830   6.967   2.131 -0.1899 -0.2413 -0.2768
19733W        W39267   0.019   4.256  11.177 -0.2500 -0.0833 -0.4481
19734W        W39268   7.782   4.986   0.930 -0.0970  0.1160 -0.1887
19735W        W39269  15.723  16.151   6.031  0.1709  0.2875 -0.2302
19736W        W39270   4.796  10.325   4.179 -0.1887  0.1228 -0.3324
19737W        W39271   1.779  12.610   0.276  0.2421  0.1073  0.1210
19738W        W39272  11.181  13.379   0.609  0.1956  0.1607 -0.1279
19739W        W39273   6.003  15.758  14.353 -0.0355 -0.0723  0.1911
19740W        W39274   1.368   6.120  12.991 -0.0784 -0.0473  0.1896
19741W        W39275   0.115  11.145  14.754  0.1159 -0.1439  0.0298
19742W        W39276  11.584   6.042   3.961  0.0114  0.0504  0.1536
19743W        W39277  17.380  12.368  14.933 -0.3810  0.1059  0.0708
19744W        W39278  18.052   4.990   3.385 -0.1875  0.1172  0.1635
19745W        W39279  10.752   8.643  16.034 -0.0149  0.1054 -0.1351
19746W        W39280  12.348   3.666   5.274 -0.1030  0.0949  0.3222
19747W        W39281   3.055  13.440  15.065  0.2092 -0.1940 -0.1875
19748W        W39282   3.846   7.428   3.005 -0.1603  0.0667  0.1804
19749W        W39283  18.151   0.103  15.113 -0.0784 -0.0535 -0.0371
19750W        W39284   9.443  17.437   0.766  0.0803  0.3863 -0.0740
19751W        W39285  16.154   3.915  11.924 -0.1972 -0.2668 -0.1765
19752W        W39286  10.245   9.221   2.514  0.0099  0.0633 -0.0798
19753W        W39287   0.989   1.741   0.814  0.1153  0.0671 -0.1602
19754W        W39288   2.613   6.382   0.577 -0.1966  0.1317  0.3613
19755W        W39289  17.419   1.499  11.183  0.0572 -0.0432 -0.0154
19756W        W39290   7.277  14.260  13.733  0.0673 -0.2334  0.2448
19757W        W39291   5.201   7.582  11.986  0.0379 -0.0471 -0.0863
19758W        W39292   3.859   0.771   1.354 -0.2793  0.2184  0.2195
19759W        W39293   3.984  10.065   3.878  0.3124 -0.0858 -0.0285
19760W        W39294   1.477   1.163   1.695  0.0823  0.1573  0.2377
19761W        W39295  11.216  17.644   0.740 -0.0374  0.0582  0.1206
19762W        W39296   1.365   8.295  15.799 -0.2081  0.0757  0.1446
19763W        W39297   5.879  12.216  11.123 -0.0072 -0.2346 -0.0574
19764W        W39298   9.928   5.441   1.204  0.1416  0.1918  0.0961
19765W        W39299   1.855   5.335   2.958 -0.2714 -0.1696  0.0565
19766W        W39300   2.076  17.868  11.731  0.0056 -0.1463  0.1999
19767W        W39301   9.643  16.721   5.469 -0.1289  0.0095 -0.2937
19768W        W39302   9.153  14.428   3.969 -0.0508  0.1209  0.1156
19769W        W39303   9.453  15.099  13.767  0.0362 -0.4257  0.2221
19770W        W39304   7.190  17.142  13.011 -0.0504  0.0404 -0.2292
19771W        W39305   7.941   4.989  14.378 -0.3322 -0.1437  0.0637
19772W        W39306  11.779  16.372  14.984  0.1436  0.1486  0.2489
19773W        W39307   0.476   0.448   1.409  0.4761  0.0743  0.1347
19774W        W39308  17.111   9.488  12.747 -0.1479 -0.1508 -0.2738
19775W        W39309  15.914   3.213  13.558  0.3083  0.0694  0.2338
19776W        W39310   1.409  13.599   3.809 -0.0288 -0.0299  0.0254
19777W        W39311  16.116  10.732  12.084 -0.3058 -0.0903 -0.0899
19778W        W39312   1.103  13.129  12.414 -0.0760  0.1999 -0.0560
19779W        W39313  15.578  15.761   4.618 -0.0388  0.2023  0.0467
19780W        W39314   1.541   5.608  13.034 -0.3909 -0.0325  0.0835
19781W        W39315   9.133  13.809  12.416  0.1505  0.1563 -0.2056
19782W        W39316  14.092  17.654  14.294  0.2889 -0.2612  0.0732
19783W        W39317   1.134   6.378  14.259 -0.2355 -0.1284 -0.2054
19784W        W39318   9.900   0.149   3.167  0.0554  0.0265  0.0550
19785W        W39319  12.904   5.996   2.349  0.0944  0.0240  0.2405
19786W        W39320  12.261   0.264   0.783 -0.0806 -0.1048  0.0312
19787W        W39321  15.626   4.625   4.669  0.0535  0.0791  0.0256
19788W        W39322  17.937   4.780   0.741  0.0554 -0.3097 -0.0620
19789W        W39323   2.699   6.343  11.910 -0.0783  0.1611  0.0682
19790W        W39324  13.017  16.543   2.339 -0.1517 -0.2114  0.1646
19791W        W39325   8.818  14.576  14.636 -0.4296  0.1168  0.1389
19792W        W39326   5.428  13.304  15.301 -0.1843  0.0486 -0.1263
19793W        W39327   7.249  12.782  15.312  0.1071  0.3049  0.3796
19794W        W39328   9.803   1.936   4.417 -0.0762 -0.0178 -0.0111
19795W        W39329   6.107   6.384  15.472  0.0781  0.3486  0.2555
19796W        W39330   7.396  10.102  13.240 -0.0315  0.0277  0.2468
19797W        W39331   4.206   6.556  13.281 -0.0736  0.0909 -0.2474
19798W        W39332   3.860   1.906  15.991 -0.3009 -0.1741  0.0234
19799W        W39333   8.791   5.903   4.149  0.1253  0.3220 -0.1337
19800W        W39334  11.491   3.137  13.068 -0.2846  0.0183 -0.0199
19801W        W39335   6.668  11.780  12.310 -0.0508  0.2801  0.2465
19802W        W39336   4.802  15.834  16.002  0.0522 -0.0880  0.0046
19803W        W39337  12.540  16.412   2.520  0.2485 -0.1580 -0.2634
19804W        W39338  11.714  16.357  11.511  0.3185 -0.0422  0.0855
19805W        W39339   0.492   4.178  11.296  0.0763  0.0362  0.3749
19806W        W39340   3.577  11.288  13.576 -0.2051 -0.1293 -0.3961
19807W        W39341   5.059  13.966  15.231  0.1666  0.3053 -0.2298
19808W        W39342   0.751  16.930   1.885 -0.2361 -0.1044 -0.1937
19809W        W39343  17.102  11.231  12.792 -0.2148 -0.1108 -0.0345
19810W        W39344  12.506   7.622  12.408 -0.1527  0.0799 -0.0196
19811W        W39345   9.708  17.778  15.737 -0.1149  0.2362 -0.3535
19812W        W39346   2.589  13.656  14.881 -0.1266  0.1516 -0.1412
19813W        W39347  10.188   0.830  15.831  0.0599 -0.1032  0.1922
19814W        W39348   7.913  17.923  14.206 -0.0633  0.1951 -0.2480
19815W        W39349   4.389  15.084  11.083 -0.0165 -0.0785 -0.0607
19816W        W39350  13.054  10.864  13.104  0.0301  0.2786 -0.2957
19817W        W39351   0.734   7.978   4.569 -0.2316  0.0374  0.1858
19818W        W39352  16.302   7.398   2.188  0.0471  0.1145 -0.1193
19819W        W39353   2.507  11.963  13.545 -0.2203 -0.0561 -0.1861
19820W        W39354   3.345  11.138  14.217  0.0250  0.0774 -0.0318
19821W        W39355   5.140   2.603  14.710 -0.0390  0.2242 -0.1987
19822W        W39356  11.832  18.182   2.628 -0.1045  0.2487  0.1621
19823W        W39357   9.177  14.901  11.128 -0.0609  0.0588  0.2193
19824W        W39358  17.029  16.129  13.620  0.1505  0.1460 -0.1094
19825W        W39359  14.761  16.423   2.142  0.0106 -0.1106 -0.2938
19826W        W39360   0.081  14.639   1.898 -0.1945 -0.0428 -0.1069
19827W        W39361   4.986   7.288   3.535  0.0799  0.1929 -0.0850
19828W        W39362   0.864  14.017  11.748  0.0278 -0.0868  0.0040
19829W        W39363  12.589  11.949  13.846  0.0770 -0.1897 -0.1681
19830W        W39364  16.178  11.728   4.176  0.0866  0.1618 -0.3085
19831W        W39365  10.753  10.602  13.753  0.0098  0.1906 -0.1356
19832W        W39366  11.509  14.530  14.730 -0.1372 -0.0528 -0.1203
19833W        W39367   7.953   1.965   4.644 -0.2551 -0.2241  0.1683
19834W        W39368  10.821  16.141  14.876 -0.0881  0.1096 -0.0150
19835W        W39369  16.193  16.484   3.028 -0.0094 -0.0238  0.1482
19836W        W39370   1.979  14.025  15.952 -0.1501 -0.0322 -0.1434
19837W        W39371  10.370  17.563  13.417 -0.4167 -0.0760  0.0138
19838W        W39372  15.501  13.489   0.066  0.0679  0.0902 -0.0897
19839W        W39373   2.484   3.323   4.095  0.1299 -0.3073 -0.1976
19840W        W39374  13.358  17.477  13.185 -0.2237  0.1619 -0.1918
19841W        W39375  17.658  14.099   0.770 -0.1194  0.0531 -0.0371
19842W        W39376  11.533   4.915  15.600 -0.0380 -0.0186  0.0829
19843W        W39377   9.301   7.265   3.010 -0.0153 -0.0678 -0.1210
19844W        W39378  13.296   3.314   5.719  0.2118 -0.0767 -0.0939
19845W        W39379  11.681   8.011  12.206 -0.3144  0.3234  0.1769
19846W        W39380   6.564  17.797   3.723 -0.0227 -0.1048 -0.2112
19847W        W39381  10.974  16.999  11.543 -0.0372 -0.1954 -0.0250
19848W        W39382  14.426   6.785   2.356 -0.0998  0.0498  0.2616
19849W        W39383  17.242  14.311  13.544 -0.4650  0.0788  0.1610
19850W        W39384   6.548  15.508   3.942 -0.1058  0.3259 -0.2061
19851W        W39385   4.814  16.377   2.974  0.2052  0.2148 -0.2896
19852W        W39386  17.188   9.952  11.709  0.2865  0.3907  0.1480
19853W        W39387   3.395   4.546   2.244 -0.1363  0.4308 -0.4233
19854W        W39388  11.764   8.045   2.341 -0.1635  0.0172 -0.3351
19855W        W39389   8.814   5.562   0.872 -0.0506 -0.4424 -0.0237
19856W        W39390  14.607  14.714  13.008  0.0475 -0.0268  0.0372
19857W        W39391  10.938   0.868   1.802 -0.0261  0.0952 -0.2382
19858W        W39392   4.746   4.791  15.727  0.1621 -0.0718  0.0014
19859W        W39393  14.274  17.015   3.484 -0.0834 -0.0410  0.1450
19860W        W39394   5.830   2.306  15.327 -0.0436  0.3659 -0.0201
19861W        W39395  10.336   6.648   4.132  0.1364  0.0732 -0.3597
19862W        W39396  14.312  14.718  13.468  0.2589  0.0827 -0.1853
19863W        W39397   5.974   3.736  13.497  0.1345  0.0162  0.2602
19864W        W39398   6.605   9.481  13.801  0.1747 -0.0170 -0.1940
19865W        W39399  15.772   4.854  13.302 -0.0437 -0.1135 -0.0679
19866W        W39400  12.935   0.971  14.519  0.2227  0.0558  0.0184
19867W        W39401  11.836  11.443   4.152  0.2677 -0.3611 -0.3419
19868W        W39402   3.359  14.492   0.016  0.0169 -0.0958 -0.0404
19869W        W39403   7.915  17.383   3.283  0.1429  0.1190  0.2038
19870W        W39404  16.106  11.886  12.041  0.3440  0.0986 -0.2579
19871W        W39405  14.613  14.127  14.710 -0.2645 -0.0451 -0.1323
19872W        W39406   9.432   5.263   3.114 -0.0907 -0.1889 -0.2003
19873W        W39407  17.576  17.874   4.511  0.0550  0.2266 -0.1978
19874W        W39408   8.671   3.651  14.621  0.2616 -0.1508  0.2116
19875W        W39409  16.407   6.883   4.904  0.1356 -0.1359 -0.0641
19876W        W39410   9.707  11.268   0.269 -0.2210  0.1151  0.3178
19877W        W39411   8.909  13.840  11.038  0.1081  0.0131 -0.2315
19878W        W39412  17.624   3.247   0.270  0.1923 -0.0366 -0.0654
19879W        W39413  12.584   7.252   2.478  0.1809  0.1459 -0.1571
19880W        W39414   1.888   2.281  11.507  0.1848  0.2406  0.1582
19881W        W39415   4.478  14.487   3.240  0.0677  0.2685  0.0508
19882W        W39416   4.899   8.392   4.128 -0.1524 -0.0142  0.2291
19883W        W39417   5.772  14.900  11.673 -0.0174  0.0061 -0.0000
19884W        W39418  14.537   7.144   2.674  0.2861  0.2530 -0.0565
19885W        W39419   2.229   1.981   1.979  0.0672  0.1559 -0.2307
19886W        W39420  13.397  17.501  11.861  0.2809  0.1384 -0.1507
19887W        W39421   4.934   8.805   3.325 -0.0316 -0.2834 -0.0454
19888W        W39422   5.076  18.076   0.168  0.1195 -0.2826  0.0460
19889W        W39423  14.576  17.542  11.001 -0.1841 -0.0627 -0.1759
19890W        W39424   9.155   2.835  16.046 -0.2242 -0.1406  0.0666
19891W        W39425   0.107  12.733   0.541  0.1576 -0.0509  0.0842
19892W        W39426   0.139   9.379  15.952  0.0127  0.1376  0.1004
19893W        W39427  16.042   8.063  12.519 -0.0187 -0.2513  0.1742
19894W        W39428   3.493  12.301  11.421  0.0550 -0.1577 -0.1264
19895W        W39429   3.960  10.745   1.465 -0.1877 -0.0565  0.0498
19896W        W39430   8.467   1.255   0.069 -0.0169  0.3099 -0.2758
19897W        W39431  15.216  10.360  14.644 -0.0950  0.2664  0.0769
19898W        W39432  16.292   9.092  15.719  0.1389 -0.3623 -0.2040
19899W        W39433  14.428   0.800  14.047 -0.1350 -0.0165  0.2516
19900W        W39434   8.404   0.071  13.587 -0.1978  0.1260  0.3226
19901W        W39435  11.658   1.165  15.047 -0.0909  0.0439 -0.4918
19902W        W39436  14.974   8.153  15.377  0.0766  0.1661 -0.2842
19903W        W39437   3.566  14.100   2.536 -0.2512 -0.1780  0.1237
19904W        W39438  14.400   6.060  15.322 -0.0210  0.3117  0.1807
19905W        W39439   2.607   9.744   5.883  0.0999  0.0734  0.0204
19906W        W39440  10.927   1.966   4.033 -0.0114 -0.0429 -0.1808
19907W        W39441   6.909  14.662   0.257 -0.0366 -0.0164 -0.1591
19908W        W39442   4.310   6.986  14.466 -0.2171  0.0057  0.0958
19909W        W39443   6.113  15.233   3.210  0.2853  0.4264  0.2407
19910W        W39444  14.549   7.555  12.111 -0.2648  0.5929  0.0492
19911W        W39445  13.013   8.812   0.722  0.1472 -0.0168 -0.1817
19912W        W39446  11.321  16.161  11.680  0.2652  0.0140 -0.1640
19913W        W39447   6.105   5.181  11.788 -0.0253 -0.2743  0.3922
19914W        W39448   3.831  11.117  12.542 -0.0463  0.0391  0.1035
19915W        W39449   7.238   2.668   3.285  0.1708 -0.1737  0.0230
19916W        W39450   9.801  18.052   2.016  0.4132  0.0903 -0.3491
19917W        W39451   8.537   9.055  14.372  0.1647  0.2702 -0.1173
19918W        W39452   7.022  12.709   0.288  0.1676  0.0852  0.1997
19919W        W39453  14.658  14.757   0.649 -0.0168  0.3268  0.0472
19920W        W39454   2.809   2.900  13.806  0.0033  0.0764 -0.1874
19921W        W39455   9.428   8.847   2.986  0.1690  0.2386  0.2687
19922W        W39456  17.384   2.989  12.533  0.1983  0.6076 -0.1835
19923W        W39457  16.009   3.190  12.181  0.3150  0.1611 -0.2740
19924W        W39458  16.811   0.228  13.754 -0.1318  0.0885  0.1861
19925W        W39459  15.795  10.605   3.664  0.2565  0.0872  0.3843
19926W        W39460   5.382   0.420  12.863  0.3027  0.5332  0.0490
19927W        W39461   3.527  10.358  12.508 -0.0465 -0.1919 -0.1201
19928W        W39462  15.931  16.674  14.164  0.0483  0.1953 -0.0399
19929W        W39463  12.694   2.119   4.045  0.0853  0.2131 -0.1986
19930W        W39464   5.191   5.626  11.306 -0.2002  0.0163  0.4182
19931W        W39465  16.901  15.240   4.863  0.1179 -0.2150 -0.0553
19932W        W39466   9.808   5.701  15.182 -0.0822 -0.0232  0.1230
19933W        W39467   7.112   8.149  14.132  0.3610  0.2795 -0.3703
19934W        W39468   1.705   9.945   0.920 -0.0970  0.0792 -0.0986
19935W        W39469   3.320  10.275   4.381 -0.1976  0.1813  0.0311
19936W        W39470  16.242  17.512   4.183 -0.1994 -0.2877  0.1073
19937W        W39471   7.383  11.850  15.500 -0.0706  0.0674 -0.0163
19938W        W39472  13.677  11.822  11.462  0.0338  0.0881 -0.0937
19939W        W39473   5.223  14.963  14.983  0.0593 -0.0252 -0.1023
19940W        W39474  15.096   0.738  15.469  0.1936  0.2831 -0.1530
19941W        W39475   6.832   3.043  10.874  0.3224  0.0025 -0.1480
19942W        W39476   7.569   0.205   1.845 -0.1300  0.1458 -0.1878
19943W        W39477   4.950   8.211   0.165  0.0660  0.0569  0.0027
19944W        W39478  13.935  13.410  14.820  0.0042  0.1472  0.1035
19945W        W39479  10.950  16.654   1.500 -0.1802  0.2514 -0.0561
19946W        W39480  16.527   7.411   4.127 -0.0621  0.0276 -0.0526
19947W        W39481  16.449  12.701   0.959  0.3116  0.0443  0.1380
19948W        W39482  17.985   5.311   4.611  0.0083  0.3082  0.0887
19949W        W39483   2.991   4.437  14.478 -0.5915  0.0747 -0.0219
19950W        W39484  17.791  14.816   2.482  0.0315  0.1907  0.0427
19951W        W39485   4.404   9.029   4.847 -0.0631 -0.3327  0.0644
19952W        W39486   2.808   3.315   2.625 -0.0682 -0.1849  0.1474
19953W        W39487  18.107   2.321   0.393  0.0234  0.1974 -0.0990
19954W        W39488  12.315   6.233   4.752  0.4033 -0.2283  0.1063
19955W        W39489   6.041   2.785   5.230  0.1434 -0.3851 -0.0496
19956W        W39490  10.344  17.331   0.378 -0.0347  0.0994 -0.1488
19957W        W39491  10.572   1.698  15.520  0.0915 -0.0968  0.2467
19958W        W39492  17.971   3.627   0.006 -0.0564  0.0504  0.0271
19959W        W39493  13.095  18.019   3.494  0.0228  0.1082  0.1309
19960W        W39494  16.979   7.537  11.756 -0.0727 -0.1323  0.1412
19961W        W39495   3.134   2.395  12.355  0.1420 -0.2691 -0.0030
19962W        W39496  13.521   5.807  15.479 -0.2239 -0.0427  0.1118
19963W        W39497  12.988   6.555   3.722  0.3455 -0.3716 -0.0876
19964W        W39498   4.570  16.952   1.248  0.2377  0.0058 -0.2517
19965W        W39499   7.856   0.074   0.023 -0.0535 -0.2234 -0.0391
19966W        W39500   8.098  12.580   4.689  0.3661 -0.1612  0.1076
19967W        W39501  17.795   0.691  11.630 -0.1113 -0.2962 -0.1785
19968W        W39502   9.307   6.033   4.123 -0.0277 -0.2225 -0.4086
19969W        W39503  11.701   2.606   2.552  0.2529 -0.0091 -0.0684
19970W        W39504  16.101   4.764   1.077 -0.1155  0.0436 -0.1888
19971W        W39505   1.971  16.720  15.965  0.2617 -0.0578  0.0071
19972W        W39506   1.668   2.577  12.311  0.1640  0.3684  0.0864
19973W        W39507  16.827   9.660  12.357 -0.0513  0.1067  0.1214
19974W        W39508   6.875  17.759   0.316 -0.1657 -0.1075 -0.2601
19975W        W39509  16.448   8.082   2.986  0.1341  0.0109 -0.0357
19976W        W39510  14.176   4.624   1.030 -0.1518 -0.3053  0.0587
19977W        W39511  15.593  12.633   5.181  0.2522  0.0786 -0.2439
19978W        W39512  15.419  16.573  14.074 -0.2723  0.0306 -0.0544
19979W        W39513  14.466   4.267   0.841  0.1642  0.0322  0.0199
19980W        W39514   4.764   9.159  14.706  0.3526 -0.0251  0.1512
19981W        W39515   3.475   5.665   4.013 -0.0171 -0.2114  0.0165
19982W        W39516   0.528  15.606   2.959  0.1383 -0.0263  0.1683
19983W        W39517  10.517  16.713  15.254 -0.1904  0.0180 -0.1537
19984W        W39518  13.441  18.148   1.920  0.0494  0.0726 -0.3324
19985W        W39519   6.942  11.816   2.781  0.1388  0.0168  0.1106
19986W        W39520  15.119  10.018  12.527 -0.0803 -0.0694 -0.2114
19987W        W39521  11.891  16.333   4.584 -0.1767 -0.2504 -0.1392
19988W        W39522   0.402  15.002   1.320  0.0098  0.1635 -0.1154
19989W        W39523   3.561   9.749   2.868  0.0090  0.2488 -0.0750
19990W        W39524   4.155  11.516  15.964 -0.0288  0.0165  0.4535
19991W        W39525  14.740  16.166   6.292 -0.0362  0.1735 -0.0203
19992W        W39526   8.662   7.521   1.145  0.0709 -0.3311 -0.2434
19993W        W39527  11.767   6.304   1.079  0.1114 -0.1935  0.0104
19994W        W39528   8.944  12.944   4.160  0.0161  0.2642 -0.1810
19995W        W39529  12.538   7.977   3.070 -0.1619 -0.2589  0.0319
19996W        W39530   4.862   2.994  12.405 -0.1796  0.1600  0.2654
19997W        W39531   1.918   6.524   3.515  0.0450 -0.1841  0.0512
19998W        W39532   0.627   7.221   0.123  0.1853 -0.0431  0.0297
19999W        W39533   0.796   5.748   1.724  0.2568  0.2308 -0.1069
20000W        W39534   0.413  15.041  13.505  0.0538 -0.1478  0.1542
20001W        W39535  16.882  10.232   0.235 -0.0635 -0.0565  0.0122
20002W        W39536  11.273   3.692  14.431 -0.0837  0.3035 -0.0504
20003W        W39537   7.421   5.552   1.630  0.2649  0.0070  0.2463
20004W        W39538   5.779   9.085  13.928 -0.2276 -0.1159 -0.0294
20005W        W39539  14.715   8.678   3.871 -0.1678 -0.1817 -0.0578
20006W        W39540   3.988  12.266   4.600  0.0817  0.0383 -0.2576
20007W        W39541   8.494   1.866  14.823 -0.1300 -0.1132 -0.1366
20008W        W39542  11.386  15.347   3.173  0.0252 -0.2588 -0.1929
20009W        W39543  18.057  17.353   1.334 -0.1158 -0.2859  0.0925
20010W        W39544  12.342   5.708  12.460  0.2502  0.2175  0.1107
20011W        W39545   2.167   5.054   2.191  0.0073 -0.1330  0.1472
20012W        W39546   3.256  11.535  14.513  0.1076 -0.1212  0.1681
20013W        W39547   3.647  13.768  11.463 -0.2667 -0.0398  0.1515
20014W        W39548  12.337  10.067  15.290  0.0872  0.0193  0.0090
20015W        W39549  14.475  11.082  11.070 -0.1956 -0.1206 -0.2099
20016W        W39550  10.270  12.196  14.131 -0.0293 -0.4506 -0.0183
20017W        W39551   4.805   0.992  11.411 -0.1569  0.3954 -0.1013
20018W        W39552   8.808  14.385  15.746  0.1247 -0.0943 -0.1548
20019W        W39553  13.323   4.897   2.803  0.0256  0.0282 -0.0213
20020W        W39554  10.971  13.415   2.491 -0.0417 -0.1132 -0.0452
20021W        W39555  15.481  17.229   2.884  0.1904 -0.0231 -0.4234
20022W        W39556   0.013   5.298  13.654  0.0736  0.1982  0.2162
20023W        W39557  15.893   2.573   2.070  0.1559  0.1561  0.1630
20024W        W39558  17.200   6.120   0.231  0.0350 -0.0466 -0.1898
20025W        W39559   0.252   6.999  13.377  0.0053 -0.1403  0.1848
20026W        W39560   4.820  15.525   1.242  0.1679 -0.0359 -0.0135
20027W        W39561   9.638  15.822  14.658  0.2807  0.0089  0.3743
20028W        W39562   6.473  13.158  15.635  0.2365 -0.0352 -0.2524
20029W        W39563  11.298   2.644   3.682  0.0768  0.0644 -0.0253
20030W        W39564  13.637  11.156   2.257  0.0474 -0.0299 -0.2509
20031W        W39565   7.983  17.789   0.021  0.0226  0.2672 -0.1788
20032W        W39566   4.489  15.925  15.466  0.0243 -0.1337 -0.0090
20033W        W39567   6.087  11.565   2.275 -0.0152  0.0816 -0.0117
20034W        W39568  10.502  10.754   0.850  0.1980  0.0233  0.0214
20035W        W39569  13.980   6.162   3.612  0.1614 -0.0615 -0.1146
20036W        W39570  15.628  11.688   0.648  0.0615 -0.1834 -0.0915
20037W        W39571   6.572   9.558  12.853 -0.1175  0.1446 -0.1865
20038W        W39572   7.127   2.195  11.346  0.1568 -0.0494  0.4202
20039W        W39573  15.923   5.472  13.987  0.1649  0.1168  0.1688
20040W        W39574   0.770   0.892   0.415 -0.0741  0.1630 -0.1791
20041W        W39575  16.512   2.380  12.097 -0.2447 -0.0210  0.0334
20042W        W39576   4.584  13.627   4.193 -0.0321  0.1329 -0.0104
20043W        W39577   9.423  17.677   1.989  0.0044  0.0310 -0.1283
20044W        W39578   6.444  14.400  14.050  0.1300 -0.1003 -0.1154
20045W        W39579   1.275  14.687  14.814  0.0713 -0.0529 -0.2225
20046W        W39580  14.220  17.658   2.214 -0.0345  0.2008  0.0779
20047W        W39581  14.791  16.187   4.264 -0.1766 -0.1254 -0.0188
20048W        W39582   7.546   2.729   1.514  0.1258 -0.1199  0.2005
20049W        W39583  14.796  10.515  11.967 -0.1079 -0.1253  0.1867
20050W        W39584   6.665  10.130  15.789  0.0760 -0.0493  0.0299
20051W        W39585   5.380  11.846  14.455  0.0971  0.1898  0.3355
20052W        W39586   2.177  11.744   0.291  0.0224  0.1034 -0.2337
20053W        W39587  10.578  14.553   1.518 -0.0571 -0.0019  0.0552
20054W        W39588  10.025   5.020   4.230 -0.0477  0.3857  0.0168
20055W        W39589   8.415  12.993   3.943  0.0403  0.3170 -0.0528
20056W        W39590  16.461   3.640   3.852  0.3368 -0.2065 -0.0315
20057W        W39591  12.791  14.691  12.715 -0.1521  0.2535  0.0555
20058W        W39592   6.470   8.090  13.823 -0.0874 -0.0356  0.1016
20059W        W39593  15.652   6.007   1.320  0.1888  0.3169  0.3429
20060W        W39594  14.889   9.591  13.992 -0.3125 -0.1506  0.0481
20061W        W39595   5.297   3.184  12.418 -0.1653  0.1125  0.1896
20062W        W39596  11.515  12.928  13.758 -0.0555 -0.1252  0.0364
20063W        W39597   7.307   3.372  11.899  0.3067 -0.0535  0.1224
20064W        W39598  13.237   5.704  13.424 -0.1643 -0.2783  0.4130
20065W        W39599  16.686   1.976   1.831  0.1415  0.2008  0.1652
20066W        W39600  10.774   4.364   0.157  0.0614 -0.2145 -0.0266
20067W        W39601  13.900   5.725   4.433  0.1327 -0.0533  0.0298
20068W        W39602  10.801  10.526   2.806 -0.0051 -0.0403  0.1531
20069W        W39603   6.435  10.732   0.701 -0.1444  0.2575  0.0758
20070W        W39604   0.500  17.176  13.748 -0.0697 -0.0197  0.3151
20071W        W39605   0.982   2.997  15.044  0.0742  0.1839 -0.0023
20072W        W39606  17.167   0.382   2.647 -0.1024  0.0244 -0.0932
20073W        W39607   5.545  13.601  13.609  0.0358 -0.3498  0.1728
20074W        W39608   4.189   7.419   1.830  0.0062 -0.0253 -0.1036
20075W        W39609   5.758  11.474  12.427 -0.2409 -0.1929  0.2118
20076W        W39610  13.909   5.850  15.949  0.0093  0.0564  0.0119
20077W        W39611   9.755   9.915  12.660  0.1039  0.1642 -0.0072
20078W        W39612   4.857   7.657  12.852 -0.3985 -0.0552  0.1587
20079W        W39613  12.019  12.561  12.919  0.1524 -0.2463 -0.1566
20080W        W39614   5.967  10.957   4.585  0.4948  0.3458 -0.2687
20081W        W39615  15.202  17.523  11.968 -0.0179 -0.3141 -0.0292
20082W        W39616   5.801   9.554  14.647  0.2365 -0.2877 -0.2013
20083W        W39617  17.648   5.343  11.609  0.0457 -0.2532  0.0135
20084W        W39618   3.961   5.339  15.905  0.1223  0.0700 -0.0923
20085W        W39619  15.670  14.085   1.422  0.0179 -0.0612  0.3772
20086W        W39620  13.004  10.103   4.969 -0.0447 -0.1984 -0.0358
20087W        W39621  15.154   1.896  15.734  0.1235 -0.0582  0.1152
20088W        W39622   3.472   7.155  13.330 -0.2208  0.0090 -0.2439
20089W        W39623   0.119   8.703  11.848  0.3052 -0.1290 -0.1966
20090W        W39624  14.126   1.003  11.647  0.1385 -0.1494 -0.1289
20091W        W39625   6.110   2.071  14.956 -0.0233  0.0444  0.2604
20092W        W39626  17.855   1.554   3.204  0.1096 -0.1141 -0.2365
20093W        W39627  12.149  13.107  13.725  0.2668 -0.1494  0.3043
20094W        W39628  16.993  17.056   1.794 -0.3414 -0.2909 -0.1021
20095W        W39629   8.062   7.093   0.741  0.0857 -0.3037  0.1277
20096W        W39630   9.139  12.680  14.149  0.2179  0.1224 -0.1564
20097W        W39631  15.346   3.455   1.913  0.0188 -0.1197  0.2351
20098W        W39632   5.064  15.729   0.337 -0.1730  0.1415  0.3469
20099W        W39633  15.076   5.473  14.496 -0.0817  0.0523 -0.2073
20100W        W39634   9.459   3.228   3.896 -0.2675 -0.0289  0.0453
20101W        W39635   8.862   0.947   1.163 -0.0365  0.3200  0.0211
20102W        W39636  11.936   1.289   2.721  0.1375 -0.0787  0.1231
20103W        W39637   8.155   7.143  15.073 -0.1981 -0.0998  0.2159
20104W        W39638   2.726  13.324   0.001 -0.0928  0.1776  0.0728
20105W        W39639  11.484  16.198   2.785 -0.0033 -0.0834  0.0104
20106W        W39640  15.991  13.197  11.879 -0.0740 -0.1960  0.1719
20107W        W39641   1.782  10.313   3.503  0.1846  0.1241  0.1251
20108W        W39642   5.077  11.758   1.118  0.0104  0.1329 -0.0760
20109W        W39643   9.788   4.310   1.208 -0.3946  0.1105 -0.4601
20110W        W39644  16.226   6.736   5.599 -0.0968  0.2931  0.1858
20111W        W39645   9.732   8.140   2.886 -0.0321 -0.0599  0.1105
20112W        W39646   3.550   4.461   1.752  0.4151 -0.0529  0.0979
20113W        W39647   0.625   3.750  14.786 -0.0280 -0.0635 -0.0028
20114W        W39648  10.918   1.469  14.631 -0.4829 -0.0155 -0.2026
20115W        W39649   3.662  17.640   2.900  0.1625  0.1801 -0.1288
20116W        W39650  12.349  15.431  14.691  0.1141  0.1014  0.2792
20117W        W39651   4.116  17.779  15.963 -0.0808 -0.0551  0.4046
20118W        W39652   3.484   6.571  12.676  0.0624 -0.2263  0.1337
20119W        W39653   0.409   9.671   0.172 -0.0893 -0.0901 -0.0380
20120W        W39654  16.428  15.333  11.735  0.0129 -0.0138 -0.1670
20121W        W39655   2.868  16.307  11.294 -0.3876 -0.0578  0.1063
20122W        W39656   4.445   1.187   3.969 -0.2556 -0.1173  0.3999
20123W        W39657   4.430  12.708  11.283  0.0235  0.0747  0.3425
20124W        W39658   9.206  17.654  13.087  0.5054  0.0464  0.0148
20125W        W39659  10.281   4.855   3.206 -0.0046 -0.1582  0.1290
20126W        W39660   6.194   3.555  12.472  0.0909 -0.0629 -0.3174
20127W        W39661  17.346  10.413  11.620  0.0003  0.1620  0.1026
20128W        W39662   7.058   1.708  14.199  0.1830  0.0569  0.0962
20129W        W39663   2.623   5.199   0.727 -0.0649  0.2355  0.1117
20130W        W39664   8.879   6.780  13.418  0.2236  0.0329 -0.0783
20131W        W39665   9.480   1.776   3.432  0.0427 -0.0407  0.3228
20132W        W39666  17.025   3.962   1.413 -0.1419 -0.2318  0.1485
20133W        W39667   2.221  13.610   3.462  0.0812 -0.1958 -0.0209
20134W        W39668  13.200   5.294   5.008  0.0177 -0.1339  0.0017
20135W        W39669   1.896  16.716   3.366 -0.3801 -0.2972 -0.1372
20136W        W39670  17.793   2.867   3.815  0.1271 -0.1083  0.1641
20137W        W39671  15.518   1.218   0.141 -0.0999 -0.1229  0.0663
20138W        W39672  11.549   8.754  12.295  0.0903  0.0432  0.1280
20139W        W39673   6.536   1.424   2.544 -0.1534  0.0170 -0.2202
20140W        W39674   5.314   9.720   2.921  0.0391  0.0859  0.0336
20141W        W39675   3.926   1.540   1.716  0.1010 -0.2629  0.0806
20142W        W39676  18.126  11.777  11.888  0.0260 -0.0860  0.0747
20143W        W39677  10.870   1.948   0.789  0.3399  0.0493 -0.1586
20144W        W39678   3.034  18.061   5.004  0.0944 -0.0127  0.3564
20145W        W39679   4.008   7.969   0.188  0.2038 -0.4619  0.0095
20146W        W39680  15.387   3.974   1.909  0.1093  0.0509  0.0694
20147W        W39681  17.154   5.709   2.844 -0.2191  0.3320 -0.1723
20148W        W39682  12.004   5.353   4.949 -0.0814  0.0861  0.1135
20149W        W39683   4.637  15.101   0.863 -0.1390  0.1720 -0.3440
20150W        W39684   6.316   9.761  11.836 -0.3588  0.1465  0.1805
20151W        W39685   7.338  10.657  12.557  0.1718  0.0346 -0.5624
20152W        W39686   3.798   5.962   1.238  0.1232  0.0499 -0.1919
20153W        W39687   8.234   0.894  15.827  0.0523 -0.0864  0.1244
20154W        W39688  13.147  10.904  14.615  0.5323  0.0040 -0.2119
20155W        W39689   6.947  11.277   2.899  0.1446  0.0600 -0.2196
20156W        W39690   1.000  10.272  14.392 -0.1045 -0.0852  0.1206
20157W        W39691   5.164  17.086  14.892  0.0293 -0.0455 -0.0426
20158W        W39692  12.768  12.892   0.148 -0.2200  0.1275  0.1370
20159W        W39693  15.475  11.807   3.184  0.1024 -0.3013  0.1567
20160W        W39694  15.051   0.137  13.473  0.1291  0.0912 -0.2276
20161W        W39695  14.322  14.513   3.146 -0.0857 -0.0242 -0.1468
20162W        W39696   2.396  12.932  13.169 -0.0158 -0.1011  0.0784
20163W        W39697   3.599  10.033  13.370 -0.0506 -0.1590  0.2751
20164W        W39698   8.391  11.129  14.676 -0.0840  0.2083 -0.0691
20165W        W39699   6.589   3.374  12.781 -0.0340 -0.2409 -0.2258
20166W        W39700  11.569  16.864  14.296  0.2326  0.1866 -0.1945
20167W        W39701   6.520  10.485  14.707 -0.0647 -0.0796  0.1424
20168W        W39702  16.338   8.740   0.260 -0.1314  0.2063 -0.0804
20169W        W39703  17.734   4.680  14.712 -0.0741  0.2376  0.0713
20170W        W39704  15.530   3.816  14.642 -0.2211 -0.0839 -0.0498
20171W        W39705  14.032   5.857  14.382 -0.2316 -0.1701  0.0876
20172W        W39706   0.768   3.259   3.962 -0.0398  0.0646  0.1424
20173W        W39707  12.574   9.757  14.011 -0.2086  0.1623  0.1354
20174W        W39708   8.679   1.249   3.176 -0.0055 -0.0181 -0.4165
20175W        W39709  16.164   5.918   1.886  0.0244  0.0902  0.1804
20176W        W39710  13.678   1.760  14.799  0.1204  0.2578 -0.1482
20177W        W39711   8.737   1.097   2.713  0.1483 -0.2915 -0.0257
20178W        W39712   8.630  15.553   0.307  0.1036  0.0651 -0.2903
20179W        W39713  14.102   5.594  11.403 -0.0254  0.2115  0.1931
20180W        W39714   2.874  15.323  13.532 -0.2514  0.1151  0.2186
20181W        W39715   8.665  13.492   4.188 -0.1494  0.1440  0.2322
20182W        W39716   1.720  13.964   1.319  0.1024  0.0431  0.0676
20183W        W39717   6.541   5.254  15.780  0.1211 -0.1885 -0.2899
20184W        W39718   0.799  17.953   2.518  0.3172 -0.0712  0.0830
20185W        W39719  11.342  14.984  14.989 -0.2611 -0.3284 -0.1608
20186W        W39720  12.108   9.991  13.527 -0.1111 -0.0135  0.1759
20187W        W39721   1.818   4.632   1.492  0.0263  0.0402  0.1054
20188W        W39722   7.336  15.747  14.043 -0.1938  0.0082 -0.2881
20189W        W39723   4.029  14.802   1.930  0.1692 -0.1729  0.1005
20190W        W39724   7.698   5.846  13.445  0.0605  0.1941  0.0247
20191W        W39725   1.623  14.873   3.525  0.2473 -0.2117  0.0327
20192W        W39726   3.657   6.431  11.435  0.0261 -0.0082  0.0033
20193W        W39727   5.962  11.024  12.463 -0.1043  0.0899 -0.2395
20194W        W39728   3.034  14.776  14.282 -0.1369  0.1075 -0.1574
20195W        W39729  12.283   1.865   3.613  0.1460 -0.2178 -0.1948
20196W        W39730   6.973   8.061  12.014 -0.0393 -0.3143  0.3915
20197W        W39731   7.222   5.964   1.899  0.1240  0.0286 -0.0736
20198W        W39732  12.600  12.620   3.634  0.1899  0.1821  0.0844
20199W        W39733  14.486  14.069  13.701  0.0618 -0.2429  0.1436
20200W        W39734   3.046  14.329   4.469  0.2235  0.0157  0.0557
20201W        W39735   9.629  12.522  11.736 -0.0470 -0.0660 -0.0484
20202W        W39736  14.393  11.024  11.649 -0.2372 -0.0135 -0.0213
20203W        W39737   1.956  16.565  11.625 -0.2288  0.3429 -0.1467
20204W        W39738   6.037   2.599   2.767 -0.0862 -0.0514  0.0318
20205W        W39739   7.969  16.551  13.524 -0.0752 -0.0438 -0.2451
20206W        W39740   4.955   6.562   0.152  0.0512 -0.0507 -0.2485
20207W        W39741   0.030   2.539  11.993 -0.0148 -0.1165 -0.0373
20208W        W39742   2.516  14.083  15.064 -0.2031 -0.0604 -0.1414
20209W        W39743  12.741   0.056  15.973  0.0562 -0.2772  0.0516
20210W        W39744   1.976   5.974   5.497  0.2801 -0.4186  0.0593
20211W        W39745   6.218   8.386  11.938  0.2187 -0.1922 -0.2313
20212W        W39746  13.841  15.715  12.087  0.0208 -0.2077  0.2479
20213W        W39747   4.279   3.091  11.261 -0.2555  0.1604  0.0386
20214W        W39748  13.833  17.960   2.155 -0.1393 -0.4192  0.1763
20215W        W39749  17.029   9.692   3.277  0.1723  0.0233 -0.1475
20216W        W39750  14.760   4.986   1.900  0.0336 -0.1601 -0.0862
20217W        W39751   1.801  13.117  13.734  0.2176 -0.1692  0.0294
20218W        W39752  16.483  18.121   4.695 -0.2599  0.0609  0.2523
20219W        W39753  16.821  13.662  11.523  0.0455  0.0168  0.1058
20220W        W39754   9.227  12.926  14.832 -0.2478 -0.3159 -0.1441
20221W        W39755   0.973  15.714   2.472  0.4017  0.1399  0.3853
20222W        W39756   4.826   1.377   2.630 -0.0135  0.2706  0.5217
20223W        W39757  16.305   9.549  15.955  0.0259  0.2356 -0.2158
20224W        W39758  16.850   4.544   1.183  0.2340 -0.2139  0.1385
20225W        W39759  13.995   3.858  14.203  0.0530  0.1051 -0.1535
20226W        W39760   3.410   1.320  13.187  0.2678 -0.1790 -0.3485
20227W        W39761   0.637  13.461   4.421 -0.2930  0.1124 -0.1518
20228W        W39762   1.032   7.655  15.236  0.0111 -0.0388 -0.0070
20229W        W39763   9.893   8.571  15.603  0.0417 -0.0013  0.0458
20230W        W39764  18.138   5.721   3.629  0.0356 -0.0374  0.1469
20231W        W39765   8.848   3.925  12.989 -0.3367  0.2342  0.1344
20232W        W39766  11.274   6.808   0.302 -0.0439 -0.0114  0.2003
20233W        W39767  10.105   5.710   0.811  0.0119 -0.0271  0.0519
20234W        W39768   2.196  17.339  12.781  0.2365  0.1848  0.2421
20235W        W39769  12.620   3.326  15.577 -0.1238  0.0374  0.1036
20236W        W39770   1.959   6.862  11.695 -0.1157 -0.1744  0.0539
20237W        W39771  17.817   7.866  12.549 -0.0065  0.3693 -0.0486
20238W        W39772  14.566  16.943  15.888  0.2109 -0.4030 -0.2885
20239W        W39773  10.941  13.075  14.660 -0.0513 -0.2507 -0.0559
20240W        W39774   7.261   0.212   2.524 -0.0656 -0.0777  0.2192
20241W        W39775   8.428   3.894   0.311 -0.0958 -0.0085  0.1001
20242W        W39776   9.515  14.371   2.637  0.0505 -0.1309  0.3623
20243W        W39777  12.125  10.638   3.794 -0.0908  0.2107  0.2179
20244W        W39778   7.697  14.533  13.875  0.2668  0.0069 -0.0874
20245W        W39779  15.687  10.290   4.008  0.0216  0.2683 -0.1730
20246W        W39780   0.232  10.642  14.896  0.0665  0.0526  0.1888
20247W        W39781  12.729   4.407  13.712  0.0341 -0.0277 -0.1551
20248W        W39782  10.086  16.506  11.755  0.0449  0.2346  0.0167
20249W        W39783   6.669   2.207   0.497  0.1823  0.1471 -0.0400
20250W        W39784  13.832  11.889  13.172  0.1668  0.1165  0.2309
20251W        W39785   0.039   6.961   0.762  0.2118 -0.1752  0.0028
20252W        W39786   7.720   6.395  15.746  0.1866  0.0686  0.3058
20253W        W39787   4.927   7.123   0.716 -0.4399 -0.1922  0.0958
20254W        W39788  10.715   3.928   4.103  0.0519 -0.0613  0.2356
20255W        W39789   3.794  14.277  12.508  0.1946  0.1956  0.0190
20256W        W39790   3.181  11.139  12.897 -0.0840 -0.4904  0.1379
20257W        W39791  11.366  14.889   4.392  0.0922 -0.0071 -0.0288
20258W        W39792   4.672  10.327  15.458 -0.0326 -0.0320  0.1842
20259W        W39793   3.448   4.267  14.296  0.2124 -0.2630  0.2815
20260W        W39794  11.412  12.935  13.239 -0.0258  0.0593 -0.0218
20261W        W39795  11.133  16.496  13.547  0.2857 -0.0129 -0.0190
20262W        W39796   0.577  12.665   3.002  0.1174  0.1598  0.1259
20263W        W39797  14.211   1.326  13.295  0.1115 -0.2109 -0.0724
20264W        W39798   4.714   1.347  10.234  0.1503 -0.1153  0.1630
20265W        W39799  10.068  13.359  15.473 -0.1729  0.2375 -0.0555
20266W        W39800  13.279  13.102   1.631 -0.4419  0.0778 -0.1994
20267W        W39801   5.069   3.440  13.809  0.1207  0.0192 -0.1415
20268W        W39802   3.459   1.402   2.412 -0.0393  0.2355 -0.0775
20269W        W39803   9.713  12.126  13.947 -0.0494 -0.1360 -0.0309
20270W        W39804   6.068   5.813  12.936  0.1044  0.0650  0.2929
20271W        W39805   5.800  17.692   1.958 -0.4704  0.1858  0.1559
20272W        W39806   5.569  11.218   0.679  0.0444  0.0145  0.3659
20273W        W39807   1.434  13.075  14.350 -0.0504  0.0184 -0.2132
20274W        W39808  11.083   5.911  15.284  0.0809  0.1512 -0.1682
20275W        W39809  10.613  10.271   3.596  0.0806 -0.2168 -0.2893
20276W        W39810  17.791   6.784   1.205 -0.2277 -0.1450 -0.0287
20277W        W39811  11.082   9.306  13.823  0.2811  0.4039  0.1485
20278W        W39812   0.671  10.890   3.823 -0.2334 -0.1365  0.0082
20279W        W39813   0.208  11.164   0.198  0.2014 -0.0884  0.1089
20280W        W39814  12.469   4.906   0.781  0.0411 -0.2253  0.0587
20281W        W39815  15.165   0.811   1.974  0.0354 -0.1323  0.0910
20282W        W39816   0.644  13.579   3.319 -0.3291  0.0820  0.1018
20283W        W39817  12.341   4.090  13.802 -0.1249  0.0301  0.1355
20284W        W39818   0.441   9.411   3.111  0.0627 -0.0088  0.0102
20285W        W39819   7.290  17.002  14.686  0.0469 -0.2924  0.1342
20286W        W39820  12.675   3.930   2.443 -0.1224 -0.0929  0.1381
20287W        W39821   4.450  14.566   2.216 -0.2807 -0.0686  0.3840
20288W        W39822   9.973   3.761   0.638 -0.4331 -0.2757  0.0609
20289W        W39823  10.897   1.639   3.575  0.0031 -0.2148 -0.1227
20290W        W39824   8.907   3.529   1.646  0.1392  0.0038 -0.0511
20291W        W39825   7.595   2.312  15.635  0.0596  0.2320  0.0430
20292W        W39826   5.068   6.506  11.281  0.0968 -0.1038 -0.1158
20293W        W39827  12.375   2.097   2.786  0.0385 -0.0931 -0.0502
20294W        W39828   7.216   5.247   2.949 -0.0266  0.2224 -0.0923
20295W        W39829  13.982   7.642   0.084 -0.1390 -0.1778 -0.1380
20296W        W39830  15.183   4.014  15.784 -0.3030 -0.2771 -0.0478
20297W        W39831  10.045   6.104  15.139 -0.0353 -0.1362  0.2723
20298W        W39832   7.886   8.551  13.084  0.0261  0.1931  0.3305
20299W        W39833  13.733  17.166   1.293 -0.0435 -0.0170  0.1094
20300W        W39834   7.275   7.711   5.122 -0.0372 -0.1055 -0.1498
20301W        W39835  10.506   5.196   1.938  0.2389 -0.0045 -0.0032
20302W        W39836   8.745  16.534   1.722  0.0750 -0.3317  0.2423
20303W        W39837   0.851   5.591  13.453  0.0073  0.1903  0.1471
20304W        W39838   6.024   9.500  13.662  0.1196  0.1620 -0.0764
20305W        W39839   3.900   5.529   4.316  0.2732 -0.0077  0.0640
20306W        W39840  14.774  16.219  11.719 -0.0996  0.1416  0.1994
20307W        W39841  10.552  15.505   0.244  0.3348 -0.2247  0.0149
20308W        W39842  13.423   9.688   2.586  0.1128 -0.0296  0.0451
20309W        W39843   5.568  15.658   0.204 -0.1117  0.2917 -0.1897
20310W        W39844   0.656  14.054   4.139  0.0070  0.0025  0.0833
20311W        W39845   1.997   6.159   3.170  0.1223 -0.1704 -0.1610
20312W        W39846   5.294   8.574  15.255 -0.1640 -0.0514 -0.1334
20313W        W39847  13.811  10.792   3.427 -0.1773 -0.1970  0.2751
20314W        W39848   8.123  16.386  15.849 -0.0095  0.2063 -0.0600
20315W        W39849   5.601  15.236  12.050  0.2992 -0.2306 -0.0330
20316W        W39850   3.265   8.486  12.020  0.1074  0.1542 -0.0382
20317W        W39851   7.817  14.363   2.663 -0.1354  0.0020  0.1218
20318W        W39852  16.579   8.928   2.889 -0.0317 -0.1009  0.3459
20319W        W39853  13.172   2.299  14.958 -0.1161 -0.0630  0.1166
20320W        W39854   6.465  13.239  13.153 -0.0012 -0.1242  0.0816
20321W        W39855  17.290   3.812   4.194 -0.0178  0.0551 -0.2004
20322W        W39856   8.478   1.828  11.940 -0.1208  0.0735 -0.1621
20323W        W39857  10.126  11.854   3.015  0.0916 -0.0377 -0.1208
20324W        W39858   6.358   0.599  15.714  0.1339  0.1500 -0.2007
20325W        W39859   6.794   4.958  15.259 -0.0343 -0.0351 -0.0703
20326W        W39860   8.062   4.035  11.546 -0.1225  0.2051 -0.1477
20327W        W39861   0.553  16.216  15.817  0.0762  0.1679 -0.0826
20328W        W39862   1.459   1.644  11.129 -0.0963 -0.0110 -0.1124
20329W        W39863  12.740  16.687  12.699 -0.0510 -0.0092  0.4105
20330W        W39864   5.100   4.075   1.369  0.0203  0.0964 -0.2132
20331W        W39865   9.770   1.124  15.759 -0.2330 -0.1363 -0.1438
20332W        W39866  12.498   1.632  12.352  0.0443  0.2672  0.0065
20333W        W39867   3.023  10.620   1.382 -0.0764  0.0094 -0.2040
20334W        W39868   9.724  14.486   3.926  0.1042 -0.2282  0.0939
20335W        W39869   2.228  10.027   1.017  0.1581  0.2408 -0.0575
20336W        W39870  17.946   5.733  10.390 -0.2090 -0.0714  0.3130
20337W        W39871  17.923  13.889  14.549 -0.1075 -0.1107  0.0775
20338W        W39872   6.781   0.082   1.151 -0.0791  0.1650  0.6718
20339W        W39873   7.196   4.221   1.945 -0.1374  0.0500  0.0817
20340W        W39874   2.171   7.191   1.670  0.0125  0.1276  0.0510
20341W        W39875  11.677  16.181  15.931 -0.0531  0.1392  0.4456
20342W        W39876   0.929   6.789   2.584 -0.0983  0.1099 -0.2082
20343W        W39877  14.828   5.648   3.512  0.1160 -0.0477 -0.1260
20344W        W39878   4.266  17.747  15.093  0.1009 -0.1120 -0.0969
20345W        W39879   9.584  12.567   4.238  0.0945  0.3607 -0.2089
20346W        W39880  16.254   0.561   1.674  0.0108 -0.2069  0.0664
20347W        W39881  13.588  14.850  11.653 -0.1854  0.0808 -0.2386
20348W        W39882  10.748   8.843   4.643  0.2129 -0.1308 -0.0353
20349W        W39883   4.906  13.834  11.930  0.1692 -0.2780  0.0198
20350W        W39884  10.548   2.261   4.024  0.1559  0.0731  0.0395
20351W        W39885  16.784   1.550   4.513 -0.2716  0.0812 -0.3942
20352W        W39886  12.482  11.629   0.493  0.0220 -0.1748  0.0557
20353W        W39887   0.916   6.179   4.193 -0.0951 -0.0786 -0.1896
20354W        W39888  11.938  14.132   0.622 -0.0094 -0.0582  0.3188
20355W        W39889   8.938  17.057  11.991  0.3155  0.0947 -0.1365
20356W        W39890   7.912  16.414  14.859 -0.0524 -0.2828 -0.1622
20357W        W39891   9.815  16.864  14.566  0.0139 -0.0487 -0.1084
20358W        W39892  10.375  13.723  12.240 -0.1328  0.1333 -0.2367
20359W        W39893   2.826   3.200  15.624  0.1809 -0.1711 -0.0243
20360W        W39894   7.526  10.655  13.998  0.3512  0.1922  0.0993
20361W        W39895  14.298   1.376   2.786 -0.0428  0.4276  0.0740
20362W        W39896   5.915   5.755  12.466  0.1773 -0.1687 -0.1235
20363W        W39897  16.755   4.577  14.146 -0.1211 -0.0199  0.3997
20364W        W39898  10.431   4.375   1.655  0.0352  0.0868 -0.0169
20365W        W39899   6.318   3.195  14.679  0.0584  0.0762 -0.1233
20366W        W39900   5.244  13.984   0.742  0.1779 -0.0008 -0.0253
20367W        W39901  17.594  17.914   3.647  0.0337 -0.0529  0.0952
20368W        W39902   8.786   6.549  12.403 -0.1005 -0.0561  0.0042
20369W        W39903   3.540   3.357   0.084  0.0695  0.1155 -0.0980
20370W        W39904  13.164   7.465  14.067  0.3106 -0.1413 -0.0079
20371W        W39905  12.472  17.104   3.645  0.2719  0.1073  0.2594
20372W        W39906   3.612  14.446   1.711 -0.1314 -0.4138  0.2743
20373W        W39907   6.800  10.644  11.752  0.0819  0.2532  0.1091
20374W        W39908  17.185  10.883   1.007 -0.2090  0.0762 -0.3494
20375W        W39909   6.887   9.749  14.091 -0.1475 -0.0152  0.0213
20376W        W39910  17.984   7.491   3.940 -0.2526 -0.2210  0.0548
20377W        W39911  10.900   5.352   1.454 -0.0436  0.3010  0.0680
20378W        W39912   9.853   5.840  15.642 -0.0416  0.1457 -0.0587
20379W        W39913  14.836   3.467   1.835 -0.0630  0.2624 -0.3252
20380W        W39914   6.652  13.003  13.970  0.0483 -0.2344  0.1556
20381W        W39915   8.143  14.458   1.049 -0.0020 -0.2257 -0.2366
20382W        W39916   1.340   7.817  13.142  0.0510 -0.0631 -0.2206
20383W        W39917  17.225   3.505   2.973 -0.2095  0.3440  0.0695
20384W        W39918   7.414  14.423  15.453  0.2113 -0.1193 -0.4612
20385W        W39919  15.467  16.519  15.213  0.1245  0.0032 -0.1023
20386W        W39920  17.016  12.327   2.296  0.1924 -0.2094  0.1679
20387W        W39921   6.525  17.781  11.443 -0.2547  0.3763 -0.2241
20388W        W39922  16.339   6.541  13.386 -0.0420  0.1430  0.1242
20389W        W39923  17.610  17.204   1.543  0.1102 -0.1883  0.2750
20390W        W39924   9.888   9.441  12.603  0.0222  0.3951 -0.0090
20391W        W39925   7.355   7.955  12.572  0.2485 -0.1725  0.0934
20392W        W39926  16.897  15.794  14.664  0.0880 -0.2038  0.2454
20393W        W39927  10.079   7.082   4.834 -0.2796 -0.1164  0.0234
20394W        W39928   9.139  12.486   4.347  0.0080 -0.1445 -0.1224
20395W        W39929  18.138  12.014   0.190 -0.1176  0.1243 -0.0519
20396W        W39930   9.945  15.917  12.033  0.1272  0.0343 -0.0481
20397W        W39931   0.838   2.133  12.100 -0.1296  0.1108  0.0025
20398W        W39932   1.660  15.248  15.865 -0.0841 -0.0916 -0.5539
20399W        W39933  17.624   7.782   4.650  0.1884 -0.0118 -0.2400
20400W        W39934   6.951   4.690   1.965 -0.1018 -0.0912 -0.0962
20401W        W39935  16.674   6.822  15.544 -0.1457 -0.2828 -0.2645
20402W        W39936   1.021  14.765  14.356 -0.0728 -0.1600  0.0108
20403W        W39937  16.328  13.636   2.841  0.1265  0.0780  0.0031
20404W        W39938  16.541   6.661   0.217  0.2643  0.1862  0.2273
20405W        W39939  12.025   4.259   1.859  0.1771 -0.0028  0.1351
20406W        W39940  10.128  17.946  13.206  0.0906  0.3198 -0.2708
20407W        W39941  12.250   0.228  16.052  0.0682  0.0293 -0.2012
20408W        W39942  17.095   8.616  11.546  0.4926  0.0235  0.0741
20409W        W39943  17.898   6.157   2.672  0.2688 -0.0083  0.2830
20410W        W39944   1.543  13.505   2.913  0.0003 -0.1757 -0.2434
20411W        W39945   7.007   8.300  12.487 -0.2727 -0.1724  0.2150
20412W        W39946   0.198  11.899   1.792 -0.0768 -0.2140  0.0142
20413W        W39947  15.098  13.843   5.186 -0.2089  0.0432  0.0972
20414W        W39948   6.402  11.551  14.198  0.1496 -0.1133 -0.3195
20415W        W39949   7.329   4.185  13.784 -0.1697 -0.0339  0.0684
20416W        W39950   7.850  13.366  12.894  0.1926 -0.1735  0.0219
20417W        W39951   8.935   5.252  14.066 -0.1057 -0.0726 -0.2212
20418W        W39952  10.243  10.867  15.168  0.2600 -0.0898 -0.0665
20419W        W39953   6.985  12.827   4.310  0.0430 -0.0477  0.0963
20420W        W39954  10.348   6.243   3.304 -0.0289 -0.2830  0.1498
20421W        W39955  13.407  10.593  13.288 -0.1007  0.1117  0.1582
20422W        W39956  12.666  12.901  11.503  0.2722  0.1042  0.0752
20423W        W39957   6.113  13.208   5.658  0.3479  0.0583 -0.3164
20424W        W39958   9.152   7.246  14.021 -0.1046 -0.0112  0.1328
20425W        W39959   3.454  17.965  15.364 -0.3608  0.0890 -0.2329
20426W        W39960   8.816   8.529   4.517  0.1950  0.0421  0.1615
20427W        W39961   2.454  15.795  15.013 -0.0827  0.3232  0.3050
20428W        W39962   0.223   1.221  15.231  0.3747 -0.0334  0.0377
20429W        W39963   2.607   7.150  10.593  0.0128 -0.0997  0.1508
20430W        W39964  16.400   5.797  13.958 -0.0891 -0.2317 -0.0375
20431W        W39965   9.755  12.166  12.707 -0.0981  0.1578 -0.2709
20432W        W39966  11.752   9.405  15.580 -0.2859  0.0234  0.1970
20433W        W39967  13.422   8.322  13.794  0.0937 -0.3039  0.0909
20434W        W39968   2.857   2.774   2.832  0.1882 -0.0935 -0.2496
20435W        W39969   4.811   8.722  13.935  0.1992  0.0531 -0.0435
20436W        W39970   9.374  10.832  14.629 -0.0356 -0.0644 -0.0926
20437W        W39971   9.086  13.652   1.378 -0.1152  0.0389  0.0769
20438W        W39972   3.146  14.627   1.841 -0.2813  0.4737  0.0947
20439W        W39973  10.835   3.598  14.161 -0.1103  0.1740 -0.0683
20440W        W39974  12.152   0.385  12.654 -0.0079 -0.0285 -0.3357
20441W        W39975   8.592  12.701   4.410  0.2537 -0.0956 -0.1128
20442W        W39976   2.565   0.256  13.596  0.0835  0.1361 -0.0013
20443W        W39977  15.782   4.359  12.686 -0.1882  0.2189  0.6023
20444W        W39978   3.135  17.477   0.668 -0.2480 -0.2144  0.0260
20445W        W39979   6.149   4.088   4.205 -0.1000  0.0596 -0.0119
20446W        W39980  16.366   8.524   3.190 -0.2328 -0.0399  0.0793
20447W        W39981   8.495  11.777  15.716  0.1827  0.0186 -0.1772
20448W        W39982  13.608  11.071  13.238  0.0989 -0.1114 -0.2182
20449W        W39983  15.101  10.056   3.376 -0.0557  0.1171  0.0237
20450W        W39984   7.193   1.956   0.511  0.0321 -0.1766  0.0477
20451W        W39985   3.144   6.645   0.209 -0.0240 -0.0917 -0.0476
20452W        W39986  14.317  16.534  11.955  0.1671 -0.4258  0.0183
20453W        W39987   5.885   8.737   0.039  0.1980 -0.1813 -0.1198
20454W        W39988   9.246  10.518   3.842 -0.1009 -0.0968 -0.0952
20455W        W39989   6.036   0.546  13.778  0.1755  0.2519  0.0112
20456W        W39990   5.440   5.827   3.868  0.1290 -0.0019  0.2667
20457W        W39991  16.660   1.905  11.529 -0.0378  0.1174 -0.1694
20458W        W39992  13.578   5.523  11.819 -0.1571 -0.4526  0.1922
20459W        W39993   3.317  17.010  15.336 -0.0248  0.1113 -0.0937
20460W        W39994   9.634   2.345  13.044  0.0926 -0.0087  0.0200
20461W        W39995  17.007  14.187   1.362 -0.0539 -0.0222 -0.1574
20462W        W39996  15.219   8.922  13.984 -0.1224  0.1304 -0.1041
20463W        W39997  17.453  14.051  14.803  0.1286 -0.1967  0.1615
20464W        W39998  17.786  15.370  14.672  0.0832  0.2763  0.1148
20465W        W39999  10.868  11.126   3.983  0.5320 -0.0943  0.0975
20466W        W40000   8.814   2.764   4.454  0.0486 -0.0518 -0.4173
20467W        W40001   4.823   6.635  11.998  0.1146  0.0223  0.2116
20468W        W40002  10.824   2.643   2.506 -0.2604  0.2844 -0.1841
20469W        W40003  16.018  16.776  12.131 -0.0852 -0.3143 -0.6936
20470W        W40004   8.379   1.420  14.701 -0.1905 -0.2031 -0.4503
20471W        W40005   4.581   4.313  15.778 -0.1928  0.1256 -0.0725
20472W        W40006  17.273  12.175   3.378 -0.2530  0.1696  0.0918
20473W        W40007  16.807   3.543  15.253 -0.2496 -0.0415  0.3677
20474W        W40008   7.091   7.383  14.243  0.0821  0.0986  0.2445
20475W        W40009   0.204   3.897  13.158 -0.1268 -0.2738 -0.1274
20476W        W40010  12.848   1.569   0.153  0.3644 -0.0028 -0.0634
20477W        W40011   1.809  14.092  14.304 -0.0089 -0.3151  0.1335
20478W        W40012  10.249   0.866  15.342 -0.0906  0.2219 -0.0025
20479W        W40013   7.400   8.884   4.295 -0.2359  0.3664  0.0309
20480W        W40014   8.096   7.782   1.715  0.0847 -0.3850 -0.3768
20481W        W40015   5.737   4.019   3.895  0.0554  0.0739 -0.0116
20482W        W40016   1.344  14.062  15.471  0.1503 -0.1101  0.1804
20483W        W40017   6.812   4.656  12.892  0.1862  0.0805  0.0283
20484W        W40018  10.983  17.135  12.032  0.3089  0.1918  0.0529
20485W        W40019   5.880  17.544  12.138  0.0606  0.0413  0.2170
20486W        W40020  15.029  12.215  15.149 -0.1076 -0.2338  0.3762
20487W        W40021  15.955   9.864   4.133  0.2173  0.1066  0.1792
20488W        W40022   5.307  15.174  14.518 -0.1104 -0.0096  0.0454
20489W        W40023   2.931  13.768   3.064  0.0069 -0.0472 -0.1393
20490W        W40024  13.326   8.867   1.663 -0.2572  0.1388  0.2600
20491W        W40025  18.066   8.846  14.242  0.0298  0.1998 -0.0650
20492W        W40026   5.109  14.448  15.006  0.0918 -0.0202  0.1107
20493W        W40027  11.409   9.327   4.589 -0.1018 -0.0321 -0.0533
20494W        W40028   3.505  11.528   2.916  0.0051  0.1067 -0.2164
20495W        W40029   3.596  15.869   1.838  0.0623  0.2240 -0.0004
20496W        W40030  18.116  15.294   4.792  0.3248 -0.0285  0.3618
20497W        W40031  15.598  15.097   4.446  0.0535 -0.0573 -0.3900
20498W        W40032  12.725   1.418   1.142 -0.0118 -0.1484  0.3272
20499W        W40033   3.042   6.741  13.527 -0.1858  0.0358  0.0779
20500W        W40034   6.246  16.457  11.582 -0.0447 -0.0134  0.0395
20501W        W40035  13.809   0.996   4.114 -0.3956 -0.1940 -0.0159
20502W        W40036  14.760  12.292   1.940 -0.1913 -0.0786 -0.1034
20503W        W40037  13.300  16.495  12.779  0.0442 -0.1378  0.4178
20504W        W40038  13.702  11.301  11.601  0.1322  0.0394  0.2261
20505W        W40039   5.608   5.552  12.889 -0.3302 -0.2311 -0.0843
20506W        W40040   8.300   4.372  12.265 -0.0299  0.1160 -0.0752
20507W        W40041   9.188   7.661  14.218 -0.1756 -0.0608 -0.0808
20508W        W40042   7.225   5.752  15.975 -0.4376  0.0856 -0.2511
20509W        W40043   6.190  13.968   1.201 -0.0405  0.3003  0.2846
20510W        W40044   4.074   8.696  13.840 -0.0336  0.0895 -0.1578
20511W        W40045  14.679   4.753  15.567 -0.1220  0.0432 -0.0225
20512W        W40046  15.510   9.383  13.626  0.0985  0.0337  0.0168
20513W        W40047   5.704  14.424   3.882  0.1714  0.1724 -0.1932
20514W        W40048  14.257   6.918  15.014 -0.2415  0.2287  0.1128
20515W        W40049   3.607   9.078   3.767 -0.2702 -0.2055 -0.0968
20516W        W40050   8.426   9.276   5.852 -0.0200  0.3703  0.0252
20517W        W40051   6.044   5.055  10.820  0.0465  0.0048  0.1482
20518W        W40052   3.290   7.783   3.374 -0.0346 -0.0953 -0.0610
20519W        W40053   3.024  17.655   3.417  0.1498 -0.2482 -0.1451
20520W        W40054   8.490  17.809   4.197  0.3671 -0.3112  0.0535
20521W        W40055   5.704  10.795   1.341  0.0782 -0.0796 -0.1654
20522W        W40056   9.928   4.531   0.784  0.0608  0.1575  0.1488
20523W        W40057  14.146  11.193   1.473 -0.0626 -0.1542  0.0644
20524W        W40058  14.638  13.300  11.510 -0.1241 -0.1261  0.1406
20525W        W40059  10.003  16.525   1.044  0.2737  0.0198 -0.2475
20526W        W40060   6.037   3.190  15.085  0.0323 -0.2316 -0.1211
20527W        W40061   4.316   1.653   1.425  0.0819 -0.2142  0.1751
20528W        W40062  16.254   5.582   1.456  0.1289 -0.0528 -0.0132
20529W        W40063   1.256   5.301  13.280  0.0133  0.2175 -0.0829
20530W        W40064  12.967  11.944  11.594  0.0335  0.1579 -0.3560
20531W        W40065   7.688  12.760  14.092 -0.1423 -0.1711  0.1754
20532W        W40066  10.328  18.062   1.974 -0.1643 -0.0727 -0.3464
20533W        W40067  16.863  11.619  12.984 -0.0649 -0.0542 -0.1007
20534W        W40068   4.385  12.936   0.460  0.2212 -0.1211 -0.2459
20535W        W40069  12.994  10.153  11.429  0.0158 -0.1345 -0.1117
20536W        W40070  16.756   4.989   2.021 -0.2495 -0.0224  0.3327
20537W        W40071   6.312  13.438  12.346 -0.1333  0.1916 -0.1656
20538W        W40072  17.854   0.997  14.539 -0.0960 -0.0512  0.1851
20539W        W40073   9.800  10.521  12.426 -0.0772 -0.1026 -0.1861
20540W        W40074  17.784  17.236   2.032  0.0606 -0.1057 -0.3637
20541W        W40075   9.099  12.822   1.174  0.0590  0.0337  0.1285
20542W        W40076   5.358   3.158  14.809  0.0169 -0.0051 -0.0297
20543W        W40077   5.764  16.225  11.641  0.0757  0.4052 -0.1308
20544W        W40078   0.945   2.486  15.183 -0.0625 -0.0063 -0.0332
20545W        W40079   9.004  15.291  14.119  0.0627  0.0078  0.2371
20546W        W40080  16.433   8.833  12.922 -0.1651  0.1857  0.1192
20547W        W40081   0.046  18.184   1.806  0.2080  0.2546  0.1630
20548W        W40082  12.544   3.055   3.502  0.2143  0.3553  0.2621
20549W        W40083   9.838  10.784   2.644  0.0857  0.0784  0.0312
20550W        W40084  12.943   9.217  14.453 -0.0561  0.4520 -0.0534
20551W        W40085   3.377  11.984  13.217  0.0569  0.2878 -0.0900
20552W        W40086   9.036  11.479   1.681 -0.2227 -0.6288  0.6136
20553W        W40087  17.696   8.742   0.088 -0.1911  0.3375  0.1361
20554W        W40088   9.770   5.237  14.173  0.2425  0.2321 -0.1082
20555W        W40089   9.862  10.027   3.338  0.0316 -0.0208 -0.1402
20556W        W40090   6.713  15.111   3.649  0.3436  0.0082 -0.2569
20557W        W40091  15.365   8.681  15.507  0.0836  0.0096 -0.1278
20558W        W40092  13.984   7.889   4.912 -0.3791 -0.0631  0.2924
20559W        W40093  17.711  15.231   1.294 -0.0893  0.2776  0.2891
20560W        W40094  10.840  10.963   1.108 -0.3059  0.1849 -0.0271
20561W        W40095  12.938  12.981  12.777  0.2590  0.1584 -0.0593
20562W        W40096   7.656  16.371   0.360  0.1919 -0.1244 -0.1296
20563W        W40097  11.875   9.087   2.492 -0.3220  0.3929  0.2584
20564W        W40098   4.809  16.178  12.730 -0.0666 -0.0338  0.0670
20565W        W40099  12.839   3.585   1.924 -0.1396  0.2578  0.2177
20566W        W40100   7.134   7.947   2.480  0.1952  0.2168  0.3783
20567W        W40101   4.623  15.860   0.476  0.2636  0.2535 -0.0614
20568W        W40102   3.603   3.190  13.487  0.0640  0.2658  0.0078
20569W        W40103  16.629  14.061   2.193  0.1821  0.1939 -0.2313
20570W        W40104  11.633   6.439  13.969 -0.0481  0.0734  0.0294
20571W        W40105  11.598   7.862  15.756  0.0186  0.2843  0.1617
20572W        W40106   4.992   6.714   1.040 -0.4319  0.1069  0.0989
20573W        W40107  13.658   2.745   1.252 -0.1449 -0.0636 -0.0990
20574W        W40108  11.155  16.674  11.893 -0.0032 -0.5061  0.1259
20575W        W40109   5.543  11.281   4.634 -0.2867  0.0067 -0.2433
20576W        W40110  15.230   1.722  14.282  0.1597 -0.4699  0.0579
20577W        W40111  15.466  11.317  13.822 -0.1731 -0.0906  0.1477
20578W        W40112   8.820   2.954   0.371  0.0411 -0.0129 -0.1380
20579W        W40113  17.514   8.410  11.777  0.0221 -0.1422 -0.2542
20580W        W40114  13.212   9.530  10.471 -0.0916  0.1201 -0.0738
20581W        W40115   1.194  16.640   2.063 -0.2816 -0.1576  0.0820
20582W        W40116  12.126   0.406  11.090  0.2426 -0.0249  0.1477
20583W        W40117  15.992   3.906   3.545 -0.2010  0.0329  0.1803
20584W        W40118  13.978   9.005  13.370  0.1597 -0.1363  0.2051
20585W        W40119   7.042   0.108  14.878 -0.1249  0.0235  0.0116
20586W        W40120   2.620   7.654   1.548 -0.3168  0.1344 -0.0286
20587W        W40121   1.998  14.804  15.222 -0.2546 -0.1542  0.0725
20588W        W40122   8.727  14.649   3.272 -0.0691  0.0485 -0.1766
20589W        W40123   5.906   6.658   4.072 -0.3389  0.0626 -0.1146
20590W        W40124  15.338  17.511  14.406 -0.1178 -0.2433  0.4173
20591W        W40125  15.964   5.238   3.469  0.0057  0.0659 -0.0938
20592W        W40126  15.078   9.201   2.346  0.1800  0.2661 -0.0735
20593W        W40127  16.128   5.732   3.613 -0.0042 -0.1528 -0.0070
20594W        W40128  10.068  10.002   3.865  0.1245 -0.3646  0.0636
20595W        W40129  10.278  11.835  14.658  0.0556 -0.5110 -0.4506
20596W        W40130  13.709  11.886  12.465 -0.1045  0.0785 -0.1222
20597W        W40131  15.915  13.551  13.546 -0.0976 -0.1051 -0.0184
20598W        W40132   5.603   3.631   0.026 -0.2612  0.0757  0.1456
20599W        W40133   2.221  16.168  12.513  0.3065  0.0791 -0.0779
20600W        W40134   4.061  14.730  13.288 -0.4021 -0.1295  0.0497
20601W        W40135   0.291   6.444  15.027 -0.5384 -0.1413  0.4079
20602W        W40136   0.919  13.700   1.754 -0.3333 -0.1290 -0.0541
20603W        W40137  14.032  17.350  15.225 -0.0927  0.1058  0.2939
20604W        W40138   8.125   0.243  13.261 -0.1601  0.1697  0.0262
20605W        W40139   3.658   5.204   3.862  0.2585  0.1149 -0.0431
20606W        W40140   9.452  11.693  14.187 -0.2335  0.2157  0.2913
20607W        W40141   5.067   0.303  15.152 -0.0702 -0.0062  0.2715
20608W        W40142   7.863   6.975   2.766  0.0906 -0.1068 -0.0843
20609W        W40143   7.379   6.555  12.825 -0.0369 -0.1185 -0.0473
20610W        W40144   2.689   4.262  15.546 -0.2385  0.0082 -0.3199
20611W        W40145  15.671  16.473  14.541  0.0266  0.0689  0.1908
20612W        W40146   4.600  10.835   2.920  0.1512  0.1289  0.1528
20613W        W40147  10.168  14.212  12.104  0.1438 -0.0853 -0.1550
20614W        W40148   5.102   5.107  14.272  0.0283 -0.1464  0.2124
20615W        W40149  12.539   4.309   0.833  0.2535  0.2281 -0.0444
20616W        W40150  16.779   1.135  15.950 -0.2537 -0.5085 -0.0988
20617W        W40151  11.522   1.872  11.562 -0.0512  0.0273  0.1253
20618W        W40152  16.663  12.423  15.538 -0.0021 -0.2361  0.1641
20619W        W40153   6.102   2.829   0.063 -0.3314  0.1645 -0.1663
20620W        W40154  10.654  14.575  13.394  0.1219  0.1021 -0.1018
20621W        W40155   7.957   6.140   2.238  0.0304  0.1873 -0.0040
20622W        W40156  13.548   0.422   1.859  0.0503  0.1845  0.4040
20623W        W40157  13.552   9.770   1.247  0.1793  0.1302  0.0713
20624W        W40158   9.655  11.894  11.790 -0.1545 -0.0619 -0.0586
20625W        W40159   8.752  10.114  12.728  0.1660 -0.1055  0.2021
20626W        W40160  10.156   7.970   0.994  0.1039  0.1023 -0.0366
20627W        W40161   5.701   1.831   2.785  0.1873 -0.0802  0.0913
20628W        W40162   0.995   9.729  15.551 -0.2200  0.3849 -0.5244
20629W        W40163   2.058   8.690  11.998 -0.1313 -0.0772 -0.3510
20630W        W40164   4.498   9.986   3.893  0.1827 -0.2028 -0.0020
20631W        W40165  12.884  15.486  14.789  0.0396  0.0765 -0.1190
20632W        W40166   1.309  11.844  14.441 -0.0998  0.2000 -0.2008
20633W        W40167  12.228   1.900  15.285  0.1905  0.0481 -0.0825
20634W        W40168   8.084   1.350  11.950 -0.2947 -0.0316  0.1986
20635W        W40169   2.783  14.056   2.715 -0.1502  0.0991  0.1937
20636W        W40170  13.114   7.596   0.498 -0.0765 -0.0625 -0.2219
20637W        W40171   4.376   1.305  14.435  0.3187 -0.2012 -0.2036
20638W        W40172  15.083   4.226  13.185 -0.2953  0.0639 -0.0639
20639W        W40173   7.261  13.674  11.089  0.0676  0.1630  0.0118
20640W        W40174  13.971  14.193  15.626  0.2535 -0.0048  0.1163
20641W        W40175   4.272   4.729  15.635  0.4765  0.2309  0.0857
20642W        W40176   3.151   5.907   0.211  0.0338  0.0785 -0.2481
20643W        W40177  13.806  17.907   4.573 -0.0393  0.0324 -0.1947
20644W        W40178   2.643   1.503   1.386 -0.1371  0.1147  0.0072
20645W        W40179  14.320  10.069  13.626 -0.2306 -0.1248  0.0073
20646W        W40180  11.660  10.687  15.437 -0.0248  0.1350 -0.2568
20647W        W40181  14.423  15.293   0.080  0.1439  0.2282 -0.0824
20648W        W40182   0.064  12.474   1.897 -0.1616 -0.2391  0.4026
20649W        W40183   6.540   8.894  13.462 -0.0140 -0.1722  0.1285
20650W        W40184  12.874   5.753   2.839 -0.2442 -0.0705  0.2834
20651W        W40185   3.707   1.877   2.258  0.3583 -0.2151 -0.0523
20652W        W40186  11.686   9.347   1.159  0.0200  0.2372 -0.2450
20653W        W40187   7.199   7.329  13.130 -0.0641 -0.0049 -0.1653
20654W        W40188  13.807   0.171   0.092  0.0942  0.2257 -0.1397
20655W        W40189   1.750   9.110  13.077 -0.1469 -0.1435 -0.3455
20656W        W40190  15.942   6.916  14.988 -0.3581  0.0725 -0.0866
20657W        W40191  11.037  10.864   3.190  0.0999  0.0216 -0.4425
20658W        W40192   5.036  13.769  12.411 -0.0802  0.0658 -0.1406
20659W        W40193  11.089   5.686   2.464 -0.1106  0.3003  0.0484
20660W        W40194   4.769   3.825  13.696  0.1299 -0.2947 -0.1446
20661W        W40195  14.799   7.923   0.491 -0.2591 -0.0402 -0.3399
20662W        W40196   1.957   7.751  14.305  0.0345 -0.1700 -0.0346
20663W        W40197   8.450   0.346   2.106  0.0629 -0.0677  0.1038
20664W        W40198   8.971   3.842   2.557  0.2384 -0.1401  0.3543
20665W        W40199  11.728   2.568   3.928  0.0193  0.3946  0.1253
20666W        W40200   5.717   5.269  12.513  0.0387  0.0311 -0.0422
20667W        W40201  17.846   7.303   3.480  0.3183  0.1974 -0.1009
20668W        W40202  14.279   5.925  13.400 -0.1797 -0.3853 -0.0766
20669W        W40203   2.312  11.565  14.779  0.1086  0.3145 -0.0720
20670W        W40204   7.155   7.154  15.180  0.0392 -0.2225 -0.0191
20671W        W40205  11.938  13.700  15.339 -0.1628 -0.2543  0.1041
20672W        W40206   1.166   2.920   2.824  0.2235 -0.1249 -0.3874
20673W        W40207   9.069   7.481   2.655 -0.1014 -0.0444 -0.0376
20674W        W40208   9.739   9.668  12.173  0.3585 -0.1626  0.0674
20675W        W40209  15.304  12.107   1.383 -0.1705 -0.1009 -0.0944
20676W        W40210  13.240  10.124  13.430 -0.0931 -0.1740  0.1403
20677W        W40211  11.994  14.348   4.632  0.0114  0.1853  0.2451
20678W        W40212   3.201   4.309   4.138  0.1449  0.1509  0.1265
20679W        W40213  13.223   9.505  14.834 -0.1451  0.2266  0.0842
20680W        W40214   3.678  16.155   2.251  0.0836 -0.3293  0.0324
20681W        W40215   5.815   4.446   0.594 -0.0306  0.0720  0.2025
20682W        W40216   9.229  13.219  12.657  0.2321 -0.1429  0.1460
20683W        W40217  13.428  15.340  11.525  0.1856 -0.0166 -0.0791
20684W        W40218  10.111   2.416   3.159 -0.1729 -0.2528 -0.2376
20685W        W40219  13.853   2.380  11.731  0.1945 -0.2390 -0.3211
20686W        W40220   6.370   4.512  14.756 -0.2678  0.0291 -0.0783
20687W        W40221   6.532   4.234   0.617 -0.1420 -0.1636  0.1199
20688W        W40222  13.824  13.585  13.636 -0.0436  0.2500  0.1561
20689W        W40223   8.228   8.909  12.885  0.1298 -0.2444  0.1771
20690W        W40224   6.120  15.459   4.278 -0.3214  0.0262 -0.0169
20691W        W40225  11.819  10.338  13.344  0.1585 -0.0833  0.4866
20692W        W40226  10.584  17.368   3.137  0.1273 -0.4542 -0.1154
20693W        W40227  10.019  12.957   2.156 -0.0769 -0.0010  0.3071
20694W        W40228   0.470  12.367  13.358 -0.1381 -0.1897  0.2225
20695W        W40229  16.519  10.363   1.704 -0.0259 -0.3217 -0.0149
20696W        W40230   9.316   2.682  12.192  0.1795  0.0759  0.0730
20697W        W40231  10.740  11.212  13.968  0.0074  0.1373 -0.1051
20698W        W40232  14.081   6.143   2.343  0.4095 -0.4910 -0.1830
20699W        W40233  13.044  13.132  13.624 -0.2092 -0.0688  0.2032
20700W        W40234  10.272  11.480   4.810 -0.0355  0.0595 -0.1661
20701W        W40235   5.712  13.404  14.644  0.2256 -0.2714  0.0814
20702W        W40236  18.035   4.709  14.152  0.0700  0.1255  0.1549
20703W        W40237  12.560   5.037  12.369 -0.1507  0.1554  0.0487
20704W        W40238   8.996   4.439   3.227  0.0218  0.0563  0.1707
20705W        W40239   5.880   1.108  13.958  0.0898 -0.1260 -0.0509
20706W        W40240   5.364   2.390   0.828 -0.0841  0.0027 -0.0054
20707W        W40241  15.273   2.605  13.456  0.0511 -0.1434 -0.0796
20708W        W40242   6.166   2.596  12.666 -0.1215 -0.0474  0.0089
20709W        W40243  11.866  15.309  12.971  0.2466  0.2556  0.2017
20710W        W40244   2.771  14.378   4.000 -0.0924 -0.2305  0.0030
20711W        W40245   5.623   6.849  13.111 -0.0819 -0.2504  0.0700
20712W        W40246  13.362   9.111   3.895 -0.0485  0.0680  0.1544
20713W        W40247  12.981  11.372  14.895  0.2806 -0.2327  0.1453
20714W        W40248  11.461   9.113  13.548 -0.1077  0.2004  0.0661
20715W        W40249   9.124   5.112   1.221  0.0084 -0.0256 -0.0431
20716W        W40250  13.233   7.287  11.886 -0.0235  0.1583 -0.0686
20717W        W40251   8.634   0.244  10.967 -0.2103  0.3174  0.1467
20718W        W40252   1.872  10.336   0.476 -0.4321  0.0728  0.3832
20719W        W40253   8.405   2.375  15.779 -0.2742  0.5588 -0.0264
20720W        W40254   9.657   6.500  12.547  0.0342  0.1810  0.1838
20721W        W40255  15.192   6.367   4.089 -0.1711 -0.2000 -0.1782
20722W        W40256  15.754   2.436  13.564 -0.4195 -0.2978  0.1424
20723W        W40257   2.904   8.930   2.601  0.4455  0.0033 -0.0323
20724W        W40258  11.225   4.230   0.421 -0.0684 -0.1039 -0.2371
20725W        W40259  17.069   7.371  14.714 -0.0273  0.0156 -0.0365
20726W        W40260   5.204   5.117   3.062 -0.0036  0.0445  0.1644
20727W        W40261  11.801   1.131   3.603 -0.0216 -0.0749  0.0672
20728W        W40262  17.031  16.169   0.619 -0.4000 -0.2012 -0.5747
20729W        W40263   3.667   1.236  14.524 -0.3042  0.0934  0.1885
20730W        W40264  16.590  17.236   4.508  0.2208  0.0323 -0.2231
20731W        W40265   3.233   0.357   3.895 -0.3297 -0.2179  0.0930
20732W        W40266  11.679  13.414   0.049 -0.0764  0.1159 -0.1597
20733W        W40267  15.944  11.933  14.439  0.0891  0.1690 -0.2303
20734W        W40268  11.335  11.606   2.437 -0.0242  0.1311 -0.1601
20735W        W40269   9.466  17.836   1.076  0.0624 -0.0986  0.1864
20736W        W40270  17.822  15.532   0.916  0.0106 -0.0236  0.0015
20737W        W40271   6.165   4.084  12.364 -0.2547  0.1789 -0.0928
20738W        W40272  15.775  10.474  13.367 -0.0056 -0.2519 -0.2283
20739W        W40273  15.223  11.082   4.332  0.2392  0.1309  0.0734
20740W        W40274  10.615   5.832   4.514  0.0678 -0.0401 -0.2817
20741W        W40275   5.928  17.602   0.982  0.0019  0.0777 -0.0148
20742W        W40276  17.755   8.833  11.870  0.3825  0.0859 -0.3245
20743W        W40277  10.215  10.552   0.416  0.1270 -0.2680  0.0167
20744W        W40278   6.013   9.280   4.237 -0.0159 -0.0324  0.1308
20745W        W40279  12.267   8.530   0.755  0.1311  0.2969 -0.0755
20746W        W40280  12.086  16.308   3.663  0.2149  0.0383  0.3089
20747W        W40281   8.912   6.500   3.194  0.0805 -0.0914 -0.0244
20748W        W40282   9.213   6.382   1.786  0.0158 -0.2379 -0.0204
20749W        W40283  11.319  15.065   2.291 -0.1690 -0.0097  0.1629
20750W        W40284   9.162   8.784  12.820 -0.1431  0.3118 -0.1306
20751W        W40285  16.405  11.600   1.929  0.5462  0.1205 -0.0160
20752W        W40286  14.126  17.560   3.482  0.0357 -0.1788  0.0545
20753W        W40287  17.907  12.070   1.946  0.1184  0.0866  0.1089
20754W        W40288  10.481   7.930   1.818 -0.1717  0.1419 -0.1253
20755W        W40289   2.932   1.776  12.433 -0.1633  0.2682  0.0964
20756W        W40290   0.513   8.401  12.106 -0.0742 -0.0288  0.5062
20757W        W40291  11.347  11.301  16.050 -0.2318 -0.1550  0.3352
20758W        W40292   2.864   6.338   1.160 -0.0874 -0.2550  0.0435
20759W        W40293   6.370  10.263  15.240  0.1559 -0.1373  0.1461
20760W        W40294  16.249  17.272   3.692 -0.1217  0.0939  0.0556
20761W        W40295   5.695   5.548  15.165 -0.1638 -0.1801  0.0934
20762W        W40296   4.202   9.279  13.156  0.1581 -0.4331  0.0843
20763W        W40297  10.079   8.026  15.747  0.1674  0.0072  0.0132
20764W        W40298   0.557  15.043  14.398  0.1920 -0.5760 -0.1036
20765W        W40299   0.517  14.780  12.228  0.0719 -0.1786  0.1804
20766W        W40300   7.456   9.500   1.803  0.0305  0.0465  0.1634
20767W        W40301   5.882  11.606  14.851 -0.0995 -0.0060  0.1102
20768W        W40302  17.038  15.640   1.664  0.1781  0.3536  0.3308
20769W        W40303  16.320   0.239   1.300 -0.1857  0.1909 -0.0166
20770W        W40304   0.030   5.726   4.291 -0.0253 -0.0055  0.2524
20771W        W40305  16.975   6.724  14.410  0.1012  0.0134 -0.0380
20772W        W40306  10.552  13.229  15.261  0.1180  0.0695 -0.2173
20773W        W40307  10.371   4.418   4.418 -0.0367  0.0806 -0.0124
20774W        W40308  16.066   1.601  15.472 -0.3661 -0.1086 -0.1207
20775W        W40309  11.066   8.265   3.344 -0.3144 -0.0429 -0.0614
20776W        W40310  16.927   5.016   1.452 -0.0246 -0.3812  0.0218
20777W        W40311   0.392  13.923   4.488 -0.2450  0.1064 -0.0598
20778W        W40312  14.450   7.146  11.800 -0.2094 -0.1412 -0.1311
20779W        W40313  14.850   7.137   4.225  0.0791  0.0064  0.2278
20780W        W40314   8.749  17.350   1.427 -0.0534  0.2249 -0.0047
20781W        W40315  12.874   7.407  13.661  0.0690 -0.0285 -0.2425
20782W        W40316  17.169  12.357  15.435  0.1020 -0.2135 -0.1724
20783W        W40317  14.410  10.717  12.811 -0.1467 -0.3357  0.2888
20784W        W40318  15.249   8.212   2.941 -0.4663  0.1281 -0.3854
20785W        W40319   6.508  16.481  12.700  0.1215  0.1279 -0.1108
20786W        W40320   6.284   9.233  11.564 -0.0713  0.4004  0.3216
20787W        W40321   8.513   4.971   3.012  0.1338  0.1261 -0.0560
20788W        W40322  17.656  14.273  15.809 -0.1225 -0.1304 -0.3157
20789W        W40323   2.532  17.672  15.154  0.5314  0.0559  0.1538
20790W        W40324  12.862  16.130   0.058 -0.1155 -0.1410  0.0221
20791W        W40325   1.356  16.276   3.200 -0.0069  0.0557  0.2676
20792W        W40326   0.264   5.485  15.652  0.0725 -0.2203  0.0378
20793W        W40327  14.428   3.729   0.637  0.1542  0.3095  0.0502
20794W        W40328   5.580  14.324  14.682  0.0889 -0.1191 -0.0422
20795W        W40329  11.413  13.804  11.717 -0.1027 -0.0800  0.0451
20796W        W40330  14.621   1.434  16.042  0.0834 -0.0315  0.0257
20797W        W40331   2.368   9.123  12.250  0.3317  0.0337 -0.1270
20798W        W40332  17.632   0.520  12.062 -0.1719 -0.0687 -0.2556
20799W        W40333   0.281  12.297  14.803  0.0663 -0.1157  0.1818
20800W        W40334  15.179   9.568   0.708  0.2839 -0.0449  0.1656
20801W        W40335  14.440   0.252  15.333 -0.1664  0.2244  0.2858
20802W        W40336  17.226   5.258   3.834 -0.2633  0.2847  0.2725
20803W        W40337   0.649  16.937   2.730 -0.1985  0.0207 -0.1119
20804W        W40338   2.278   3.603   1.630 -0.1607  0.0388 -0.0222
20805W        W40339   7.635  16.210  15.710  0.0327 -0.1231  0.2094
20806W        W40340   2.598   6.269   2.168  0.2524 -0.3023  0.3801
20807W        W40341  11.370  15.700   2.395  0.2381  0.0762 -0.1964
20808W        W40342   1.906   9.813   4.181  0.0692 -0.1971  0.0043
20809W        W40343   7.386   0.394  14.643 -0.1434 -0.1194  0.4168
20810W        W40344  17.274   3.169   0.697  0.1079 -0.0104 -0.1224
20811W        W40345  17.058   0.384   4.012 -0.0679  0.0109 -0.1446
20812W        W40346  18.118   2.139  12.877  0.1852 -0.1215 -0.1321
20813W        W40347   2.866  14.205  12.328 -0.0530  0.0756  0.0234
20814W        W40348  10.559   2.677   4.605  0.3192 -0.1903 -0.1343
20815W        W40349   1.750   0.152  12.389 -0.1740  0.0865 -0.0374
20816W        W40350  16.969   3.401  14.785  0.2036 -0.1179 -0.0067
20817W        W40351  10.200  15.102   1.384 -0.1093  0.3024  0.1724
20818W        W40352  13.806   1.923   4.216  0.0093  0.0474  0.2803
20819W        W40353   8.689  12.049  14.431  0.0611 -0.0107  0.1847
20820W        W40354  14.301  15.125   1.151 -0.0084 -0.1281 -0.0080
20821W        W40355   3.957   0.138  15.824 -0.3846  0.2132 -0.0174
20822W        W40356   9.506  10.081  14.183  0.2154 -0.2265 -0.1393
20823W        W40357   1.145   3.689   4.034  0.1164 -0.1862  0.0728
20824W        W40358  16.503  17.367  15.368  0.0317 -0.1104 -0.0153
20825W        W40359  11.042  10.142   0.182 -0.1826 -0.1126 -0.2163
20826W        W40360   7.671  13.864  12.002 -0.2047 -0.1026  0.0064
20827W        W40361   2.319  10.144   3.270  0.1489 -0.0761  0.1553
20828W        W40362  17.091  11.451  15.833 -0.2519 -0.0201 -0.1695
20829W        W40363   8.903   6.948   2.822 -0.1844 -0.0416  0.0146
20830W        W40364  17.557   8.623  10.678  0.1228 -0.0795 -0.0008
20831W        W40365  14.899   2.347   1.572 -0.1389  0.2076 -0.2886
20832W        W40366   9.650   9.345   4.744  0.0694  0.2284  0.0947
20833W        W40367   5.248   7.427   0.068 -0.0907 -0.0638  0.0415
20834W        W40368  12.152   7.397   2.717  0.1779 -0.3112 -0.6041
20835W        W40369  17.381   7.616   0.671 -0.0259  0.4127  0.1241
20836W        W40370   5.871   0.845   3.645  0.0879 -0.2206  0.2632
20837W        W40371  14.666   4.194  13.753  0.0650 -0.1189 -0.3743
20838W        W40372  15.136  17.532   3.103  0.1037  0.1644 -0.0613
20839W        W40373   0.912   7.915  10.767 -0.2165  0.0550 -0.1164
20840W        W40374  10.196   2.221   1.803  0.1799  0.1941 -0.3100
20841W        W40375   5.255   8.551   3.668 -0.0668  0.1794  0.0844
20842W        W40376  17.384   3.854  14.085 -0.0327  0.1024  0.0495
20843W        W40377  12.336  16.301   3.019  0.1927  0.0005 -0.0078
20844W        W40378   8.447   5.061  14.192  0.0543  0.1052 -0.1031
20845W        W40379   4.068  16.226  13.793 -0.0229 -0.1504 -0.2046
20846W        W40380   4.090  14.894   5.658  0.1443 -0.1887 -0.0709
20847W        W40381  16.259   3.432   4.903  0.1084  0.1626 -0.0132
20848W        W40382   9.519  12.881  14.406  0.1897 -0.1029  0.0045
20849W        W40383  11.057  11.761  13.151 -0.1639 -0.2786 -0.0094
20850W        W40384  13.000  15.192   2.112 -0.1508 -0.1108  0.1638
20851W        W40385  18.140   3.283   4.478  0.2792 -0.0063 -0.1805
20852W        W40386   3.366  17.540  14.641 -0.3110 -0.0494  0.1708
20853W        W40387  12.054   2.668   2.845  0.5100 -0.0672  0.2751
20854W        W40388  11.128  10.084  12.664 -0.1293 -0.0553 -0.1014
20855W        W40389   9.667   3.471  13.837  0.0004  0.3820 -0.2417
20856W        W40390  16.382   2.466   0.297 -0.0346 -0.2185  0.2117
20857W        W40391   1.396   8.130   3.944 -0.1000  0.1306  0.1952
20858W        W40392  18.146   1.434  14.839  0.1572  0.0775  0.2904
20859W        W40393   6.362   5.361   2.228 -0.0998 -0.1689  0.0726
20860W        W40394  10.027   7.516  12.433 -0.4127  0.0150  0.2866
20861W        W40395   5.279   1.996   3.213  0.2052 -0.1461  0.0960
20862W        W40396  12.621   2.706   1.569 -0.4354  0.3257  0.2467
20863W        W40397  15.205   0.417  13.826 -0.3083  0.0080  0.0174
20864W        W40398  11.024  14.200   0.158 -0.1881 -0.0143 -0.0778
20865W        W40399  15.515  15.001  12.554  0.0735 -0.1446 -0.1784
20866W        W40400   7.075  11.178  11.642 -0.0295  0.2449 -0.1319
20867W        W40401  14.358  15.498  12.678 -0.2664  0.3930 -0.0595
20868W        W40402   8.090  16.762  12.833 -0.3026  0.1218 -0.3052
20869W        W40403   7.394  14.442  14.650 -0.2291 -0.2212  0.0325
20870W        W40404  15.567   7.751   0.958 -0.0417  0.0613  0.3930
20871W        W40405   2.547  16.781   2.940 -0.2985 -0.3083 -0.2519
20872W        W40406   7.073   6.611   0.279 -0.0090  0.4411  0.0677
20873W        W40407   2.324  10.743  14.207  0.1253 -0.2184  0.3000
20874W        W40408   7.554   7.511  12.428 -0.0629 -0.0462  0.0853
20875W        W40409  15.916   9.869  12.289  0.1284  0.3112 -0.0868
20876W        W40410  10.709   5.275  11.842  0.1728 -0.0703 -0.0219
20877W        W40411   5.486   8.063  15.468  0.1483  0.0444 -0.2865
20878W        W40412  14.096   1.514  12.841  0.1936 -0.2007  0.1089
20879W        W40413  16.674   5.139   0.597  0.1004  0.1823  0.0051
20880W        W40414   8.731   4.032   1.337 -0.3187  0.0137 -0.1220
20881W        W40415  15.413   6.550   0.577  0.1846 -0.0228  0.1910
20882W        W40416   6.934   2.860   0.741 -0.0903  0.3622  0.0307
20883W        W40417  18.149  11.119   1.919  0.1821  0.3117 -0.2727
20884W        W40418  12.761   9.824  11.693  0.2189  0.0434 -0.0244
20885W        W40419  12.557  10.853  13.415 -0.2594  0.3085 -0.0136
20886W        W40420   5.192  10.984  14.573  0.1797 -0.2050 -0.0952
20887W        W40421  14.830  15.237  13.903  0.2594 -0.1749  0.2564
20888W        W40422   7.878  10.605   1.618  0.1988 -0.0528 -0.0926
20889W        W40423  10.155   9.176   4.886  0.0425  0.1577 -0.0812
20890W        W40424   8.196  14.976   4.634  0.0324  0.1610 -0.0510
20891W        W40425  14.533   0.227   1.818 -0.0619 -0.1710  0.0221
20892W        W40426  17.397  10.228   1.488  0.2233 -0.0551  0.0886
20893W        W40427  11.202   8.749  15.860 -0.1368 -0.1637  0.0599
20894W        W40428  14.972   7.870   2.038 -0.0949 -0.2609  0.1141
20895W        W40429  12.132  15.353   3.427  0.2986  0.0122  0.0812
20896W        W40430  18.104   4.866   2.469 -0.0499  0.1356 -0.0252
20897W        W40431   9.961   3.107  15.843  0.3016 -0.1476  0.0300
20898W        W40432   5.155   2.806  15.541 -0.0985 -0.0187  0.0167
20899W        W40433  17.627   2.550  15.249  0.3227  0.2459  0.1009
20900W        W40434  11.330  15.668  13.100 -0.1771  0.0292 -0.1357
20901W        W40435   9.189   1.267  11.592 -0.1088  0.0261  0.0044
20902W        W40436  14.160  10.638  13.599  0.0855 -0.1034  0.1090
20903W        W40437   2.692  11.323  12.758  0.1067  0.2007  0.0858
20904W        W40438  16.124   0.003  12.764  0.0209 -0.1238  0.0334
20905W        W40439  16.634   0.048   0.796  0.2145  0.1293  0.2785
20906W        W40440  12.159   9.560   2.222  0.1198 -0.0739 -0.0103
20907W        W40441   0.159   1.648   3.740  0.1687  0.0374  0.2014
20908W        W40442   7.790   7.762   0.135 -0.0465 -0.0464 -0.2960
20909W        W40443   1.396  17.378  15.354  0.2802 -0.0065  0.3432
20910W        W40444   2.238  18.073   1.506 -0.2474 -0.2005 -0.0899
20911W        W40445   4.359  17.679   3.062 -0.4077 -0.1098  0.0968
20912W        W40446  11.435  13.081   3.995  0.0168  0.2630  0.1273
20913W        W40447   7.911   1.986  10.967 -0.0984  0.0357 -0.0808
20914W        W40448   3.354  11.205  12.391 -0.0650 -0.0577  0.0793
20915W        W40449   4.809   7.740   3.308 -0.1700  0.1777 -0.0063
20916W        W40450  17.258  13.310   2.527 -0.0208  0.3008  0.0019
20917W        W40451   4.426  13.072  12.090 -0.0465 -0.1300  0.1466
20918W        W40452   3.232   4.625  13.954  0.0769  0.0121 -0.0480
20919W        W40453   9.549   7.321  11.503 -0.3035  0.1928  0.0052
20920W        W40454  17.098  10.584   1.395  0.1532  0.3062 -0.2458
20921W        W40455  11.947   9.926  11.659  0.2391  0.0326  0.1752
20922W        W40456   5.118  12.172  13.291 -0.0529 -0.2134  0.0717
20923W        W40457   2.772   1.982   4.439  0.0322 -0.0204  0.0235
20924W        W40458  13.741  15.973  13.483 -0.3118 -0.0026 -0.0224
20925W        W40459   1.292   4.303  13.390  0.0820  0.1414  0.2060
20926W        W40460   2.147   0.565  15.925  0.1098  0.0257  0.2456
20927W        W40461   9.322   4.718  12.986 -0.1218 -0.0189  0.1704
20928W        W40462  17.429   8.392   0.931  0.2582  0.0562  0.2050
20929W        W40463   4.539  10.151   0.693 -0.0263  0.1207 -0.0078
20930W        W40464   3.612   6.663  11.859  0.1620 -0.2410  0.0092
20931W        W40465   2.803   4.339   1.388 -0.0143  0.2064  0.0843
20932W        W40466   7.900  11.595  13.634 -0.0784 -0.0512  0.0529
20933W        W40467  11.846  17.853  15.204  0.0086  0.0043  0.0994
20934W        W40468   3.693   7.366   4.078  0.0881 -0.0265 -0.0571
20935W        W40469   1.064   1.634  15.182  0.3307 -0.1149  0.2229
20936W        W40470  15.115  12.386   5.117 -0.0216  0.0601 -0.1470
20937W        W40471   1.635  11.681   3.644 -0.3821 -0.1315 -0.2815
20938W        W40472  11.255   9.806  14.004  0.0219 -0.0805  0.0307
20939W        W40473   3.238   7.409   3.812  0.0714 -0.1778 -0.3005
20940W        W40474  11.734   1.311   2.263  0.1206  0.0541 -0.3259
20941W        W40475   8.029  12.645   3.242  0.2341  0.1024 -0.0421
20942W        W40476   3.692   1.973  15.500 -0.0798  0.1149  0.1730
20943W        W40477   6.881   7.576   2.267  0.2526  0.1027  0.1330
20944W        W40478   0.447  11.885   2.717  0.3290 -0.2957 -0.0792
20945W        W40479  17.681   2.439   4.676  0.0677  0.0842  0.0515
20946W        W40480  17.202  12.523   1.271  0.2609  0.2979  0.1974
20947W        W40481  10.167   7.921   5.474 -0.4723  0.0268 -0.1330
20948W        W40482  16.739  18.146   2.091  0.2575  0.5234 -0.0681
20949W        W40483  11.215  15.907  15.251 -0.2489  0.2162 -0.0412
20950W        W40484  11.612   1.382  15.899 -0.1132  0.1085 -0.0730
20951W        W40485  11.138  11.952   2.099 -0.0801 -0.1191  0.0634
20952W        W40486  14.773   7.934   2.827  0.2519 -0.1451 -0.1087
20953W        W40487   8.310  15.819   1.417  0.0441 -0.1616 -0.2119
20954W        W40488  14.516   2.909  14.727 -0.0400  0.3636  0.1494
20955W        W40489   9.483  14.192   3.565  0.0643 -0.2962 -0.2082
20956W        W40490  13.018   0.047   3.974  0.0326 -0.0011  0.1704
20957W        W40491  16.613  11.571  15.568  0.2283  0.5665 -0.3362
20958W        W40492   3.589   3.743  14.453 -0.2829 -0.1957 -0.2988
20959W        W40493   8.645   4.418  13.582  0.2340  0.3591 -0.4099
20960W        W40494  17.948   6.675   1.973 -0.2776 -0.2703  0.1698
20961W        W40495  17.491  16.878   0.622  0.1046  0.1899 -0.0511
20962W        W40496   4.848   7.662   0.147 -0.0965 -0.2960  0.1030
20963W        W40497  12.869  17.692  14.716  0.1411  0.1321 -0.0370
20964W        W40498  15.523   9.862   1.068  0.0720 -0.2103 -0.1396
20965W        W40499   5.542   7.615  11.167 -0.2938 -0.0083  0.0997
20966W        W40500  16.610   0.453  14.636 -0.1048  0.1206 -0.2978
20967W        W40501  10.026  13.909   0.406  0.1464 -0.0726  0.1553
20968W        W40502  16.651   7.610  16.016 -0.4152  0.2566  0.0554
20969W        W40503   9.620   3.684  14.274  0.1728  0.1336  0.1053
20970W        W40504  17.504   1.041   1.642 -0.0152  0.0029  0.2349
20971W        W40505  11.187   4.279   0.904 -0.0679 -0.1317 -0.0195
20972W        W40506  11.819   0.376  15.063  0.2211  0.1558 -0.1388
20973W        W40507  15.835   5.934   5.683  0.2319 -0.2953  0.1413
20974W        W40508   2.939   7.705  12.319 -0.0891  0.1503 -0.1677
20975W        W40509   8.262   4.567  14.445  0.0752  0.0371 -0.0190
20976W        W40510   6.436  11.660  11.798  0.0182 -0.3565  0.1566
20977W        W40511   4.195   3.679  11.493 -0.2031 -0.0510 -0.2995
20978W        W40512   6.897  17.502   1.639  0.2830  0.1054  0.0686
20979W        W40513   4.976  13.568   4.551 -0.2368  0.1311  0.1178
20980W        W40514   6.521   7.770  15.481 -0.0341 -0.1891 -0.1402
20981W        W40515  13.796   0.105  12.872  0.1449  0.1300  0.1463
20982W        W40516  17.699  15.306  14.159  0.0113 -0.0628  0.0709
20983W        W40517  10.172   0.814  12.957 -0.0483  0.0885 -0.1474
20984W        W40518  11.776   0.188   0.831  0.1275 -0.0195 -0.1216
20985W        W40519   7.900  10.809  14.602  0.0891 -0.4701  0.2526
20986W        W40520   4.161  18.162  11.428  0.1136 -0.1943  0.0364
20987W        W40521   2.835   2.589  11.961  0.1034 -0.0068 -0.3143
20988W        W40522   4.736  13.061   3.318 -0.0458 -0.0115  0.1123
20989W        W40523   1.841  10.309   4.036  0.0577 -0.1430 -0.0073
20990W        W40524   4.712  16.182  14.051  0.0310  0.1032 -0.1871
20991W        W40525  12.747   6.898  13.465 -0.0357  0.1529  0.0233
20992W        W40526   4.531   1.096  13.369 -0.1724 -0.0052 -0.0076
20993W        W40527   2.337  10.433  11.019  0.1155 -0.0349  0.0530
20994W        W40528   7.388  14.393   3.775 -0.1498 -0.0000 -0.0196
20995W        W40529   3.333   3.661  14.902 -0.4531  0.1239  0.0233
20996W        W40530  15.670   3.856  12.662  0.2018  0.0352  0.2421
20997W        W40531  12.308   2.470   1.913  0.0268 -0.2209 -0.1427
20998W        W40532  11.305  17.789  15.370  0.2500  0.0650 -0.2753
20999W        W40533  14.036   0.213   1.878 -0.1204 -0.0561  0.3101
21000W        W40534   5.818   9.492  15.342 -0.3154 -0.0350 -0.0527
21001W        W40535  14.177   4.118   4.311 -0.0455 -0.2988 -0.1913
21002W        W40536  12.805  14.536  13.308  0.2634  0.0933  0.1507
21003W        W40537   0.159   4.457  12.194  0.4474  0.0482  0.0384
21004W        W40538  11.306   6.076  13.138  0.2810  0.2168 -0.1784
21005W        W40539   6.581  12.079   3.029  0.1384 -0.0895 -0.1712
21006W        W40540  12.405   0.576  13.157 -0.0549 -0.1165 -0.1725
21007W        W40541   9.708  12.079   1.448 -0.0748 -0.1575  0.0306
21008W        W40542   5.440   5.722   2.023  0.1539 -0.3140 -0.0845
21009W        W40543   3.264  13.991   4.910 -0.2817  0.0105  0.4309
21010W        W40544   2.768  14.667  12.560  0.0961  0.0117  0.1404
21011W        W40545  12.934  10.774  12.628 -0.4103 -0.2523 -0.2290
21012W        W40546   9.270   2.565  15.681 -0.0965  0.0484  0.0597
21013W        W40547  17.810  10.092   0.588  0.2466 -0.0258  0.1498
21014W        W40548  11.631   0.957  15.560 -0.0078 -0.2133 -0.0324
21015W        W40549   0.585  11.584  14.173 -0.3328 -0.2956 -0.2795
21016W        W40550   6.596  12.025   2.453  0.1629 -0.3898  0.3128
21017W        W40551   4.203  16.670  11.499 -0.4715 -0.2562  0.1182
21018W        W40552  17.946  13.646  11.657  0.1698 -0.1528 -0.0267
21019W        W40553   1.623   4.904  10.410 -0.1384  0.2967 -0.0912
21020W        W40554  14.990   7.566  15.189 -0.0200 -0.2303 -0.4631
21021W        W40555   7.967   7.743   4.142  0.1917  0.1041  0.1947
21022W        W40556  15.794   4.357   3.600  0.0626 -0.2550 -0.0684
21023W        W40557   2.894  11.283  11.984 -0.1698 -0.0674 -0.2775
21024W        W40558  13.238   7.438   3.403 -0.1515 -0.2230 -0.3178
21025W        W40559  11.460  14.306   0.463  0.1093 -0.0149  0.2345
21026W        W40560   1.508   1.752  13.860 -0.1103 -0.1335  0.1061
21027W        W40561  13.323   4.383   0.425 -0.1504 -0.1705  0.2163
21028W        W40562   4.073  16.877   4.509 -0.0083 -0.0830 -0.1539
21029W        W40563  15.385  10.103   4.403 -0.1101 -0.0347 -0.0351
21030W        W40564   1.714   5.394  11.547  0.1039  0.0129 -0.4662
21031W        W40565  10.312   6.408   1.096  0.1079 -0.2995  0.4073
21032W        W40566  18.065   6.032  11.936 -0.0552 -0.0179 -0.1448
21033W        W40567   5.359  15.764   4.265 -0.2702  0.1366 -0.2028
21034W        W40568  11.401   5.694  13.402  0.0567 -0.1514  0.2655
21035W        W40569   0.553  17.216  15.781  0.1141 -0.0093 -0.0879
21036W        W40570  11.234  17.268  14.578  0.0234  0.3846 -0.0692
21037W        W40571   7.995   7.615  14.419  0.1390 -0.3568  0.1651
21038W        W40572   7.849   0.294  12.133  0.1282 -0.0001 -0.1390
21039W        W40573  13.552   5.854   5.713  0.1106 -0.0561 -0.0180
21040W        W40574  16.859  18.093  12.261  0.2313 -0.0990  0.0869
21041W        W40575   7.711  10.824  13.485  0.3344  0.0085 -0.1260
21042W        W40576  12.213  12.495   1.606 -0.0969  0.2161  0.1988
21043W        W40577   0.371   5.342   1.009 -0.2807 -0.0404  0.0906
21044W        W40578  14.050  15.627   4.383  0.2740 -0.2266 -0.2615
21045W        W40579   0.693   3.652  15.974  0.0181 -0.2923  0.1633
21046W        W40580   4.197  11.182   2.596 -0.1552  0.0684 -0.1043
21047W        W40581  10.540  10.536  13.304 -0.1843 -0.1199 -0.2571
21048W        W40582   1.256   7.955   0.183 -0.0017  0.1806 -0.1360
21049W        W40583  16.246   0.645  15.989  0.0090  0.1884  0.0031
21050W        W40584   9.569   2.605   2.388 -0.0095  0.0721  0.0629
21051W        W40585  11.882  12.823   4.082  0.1750 -0.2349  0.3948
21052W        W40586   5.598  10.645  13.171  0.0592  0.3050 -0.3156
21053W        W40587   2.783  17.225  11.308 -0.2374 -0.2991  0.2326
21054W        W40588  13.053  17.444   0.600 -0.0600  0.1163  0.1130
21055W        W40589  17.556   4.647   0.447 -0.1880 -0.3924 -0.3802
21056W        W40590   1.385   7.500   0.151 -0.2208 -0.0392  0.4619
21057W        W40591  14.586  15.504   4.911  0.0311  0.1235  0.1880
21058W        W40592  14.382   8.057  14.162 -0.1105  0.1856 -0.2550
21059W        W40593   3.245   9.694  11.821  0.0659 -0.1846  0.2827
21060W        W40594   3.317  17.535   3.860 -0.1604  0.0380  0.0511
21061W        W40595  17.238  12.238  11.777 -0.1215  0.0072 -0.1599
21062W        W40596  16.062   3.274  13.026  0.2892 -0.0606 -0.1586
21063W        W40597  17.779   0.313   4.941  0.0481 -0.4476 -0.2343
21064W        W40598  14.382  11.459  15.173 -0.0271 -0.0386 -0.0736
21065W        W40599  10.246  13.581  14.662  0.4819  0.1382 -0.1002
21066W        W40600   5.175   0.591  11.293 -0.0204 -0.0601 -0.1356
21067W        W40601  10.734   2.325   0.030 -0.2970 -0.0439 -0.2694
21068W        W40602   7.749  15.071  12.384 -0.1918  0.0723  0.1579
21069W        W40603  16.734  15.625   3.228  0.2221 -0.0758  0.1818
21070W        W40604  16.056  11.332   0.691  0.1040  0.1756  0.3142
21071W        W40605   3.831   3.488   1.419 -0.2720  0.2332  0.0287
21072W        W40606   8.545  15.501  13.988  0.1905 -0.0799  0.0037
21073W        W40607   7.751  15.754   2.979  0.1391 -0.1233 -0.1299
21074W        W40608   6.314  14.280   2.925 -0.1384 -0.5192 -0.1625
21075W        W40609   7.292   5.963  15.070 -0.0763 -0.0093  0.1608
21076W        W40610   0.118  17.356   2.170 -0.0336 -0.1271  0.0463
21077W        W40611   8.780  11.972  13.534  0.1340  0.4817 -0.2017
21078W        W40612   6.132   9.426   0.937 -0.1137 -0.1845 -0.1650
21079W        W40613  11.442  17.542   3.745 -0.1570  0.2495 -0.2021
21080W        W40614  15.481  16.833  14.803 -0.0586  0.0830 -0.2070
21081W        W40615   2.692   7.510   0.410  0.2483  0.2043  0.1392
21082W        W40616  12.428  16.185  13.921 -0.0309 -0.3169 -0.1399
21083W        W40617  16.616   8.447  13.806  0.0863  0.1539 -0.2515
21084W        W40618   9.511  11.049  15.400 -0.0722 -0.1450 -0.0680
21085W        W40619   1.245  16.290   0.439  0.0144  0.2168  0.0625
21086W        W40620   7.463   3.361  15.340  0.1886 -0.2074  0.0151
21087W        W40621   3.674   3.463  15.210  0.0196  0.4051 -0.1667
21088W        W40622   1.893   8.647  15.584 -0.1242 -0.0915  0.2979
21089W        W40623   6.910  16.396   4.827  0.2238 -0.2548 -0.2056
21090W        W40624   6.010  11.551   3.089 -0.2430  0.1328 -0.0698
21091W        W40625   3.941  12.716   1.642 -0.3704 -0.1383  0.3409
21092W        W40626  15.124  17.139   3.462 -0.2471  0.0537 -0.0544
21093W        W40627  13.790   0.692   3.129  0.1568  0.1007  0.1874
21094W        W40628  17.458   0.743   2.815  0.0676  0.0546  0.2196
21095W        W40629  17.222  13.888  11.216 -0.0383  0.3235  0.1063
21096W        W40630   8.570   6.896   3.350  0.0767 -0.2265  0.2175
21097W        W40631   1.072   6.394  13.752  0.1424 -0.1490 -0.0170
21098W        W40632  15.901  14.111  13.538 -0.0127  0.1504 -0.0317
21099W        W40633  15.235   4.950  12.728  0.1168  0.2293 -0.0696
21100W        W40634   4.816  14.748   3.556  0.0907  0.1361 -0.1216
21101W        W40635   2.237   2.184  15.466  0.1831  0.0656 -0.3375
21102W        W40636   1.279   4.590   4.412  0.0430  0.1812 -0.0631
21103W        W40637   5.670   5.416   1.705  0.0723  0.1765 -0.0750
21104W        W40638  11.180   3.319   2.967  0.0968  0.1016  0.0939
21105W        W40639  15.343  10.444   0.986  0.0768 -0.1457  0.2608
21106W        W40640   8.298   5.395   0.560 -0.1262  0.2915 -0.0953
21107W        W40641   8.938  14.574  13.701  0.1268  0.2107  0.1248
21108W        W40642  14.513   8.313   0.771 -0.2247 -0.4855 -0.2461
21109W        W40643   2.262   1.904  11.389 -0.0161 -0.0244 -0.0488
21110W        W40644   9.031   1.870  11.794 -0.0753  0.1056 -0.1719
21111W        W40645   9.454  14.080  13.798 -0.0684  0.3066 -0.0767
21112W        W40646   6.922   3.058  11.512 -0.1052 -0.2212 -0.2574
21113W        W40647  14.430  15.581   0.888  0.0934 -0.2905 -0.2042
21114W        W40648  10.625  15.357  11.660  0.0136 -0.1333  0.3780
21115W        W40649  12.583  10.142   1.399  0.2427 -0.3177  0.0663
21116W        W40650  11.165  10.721   1.952  0.0460  0.1234 -0.0040
21117W        W40651   0.229   0.011  12.283 -0.0369  0.1259 -0.0316
21118W        W40652  11.954   1.259  13.686  0.2445  0.2223 -0.1965
21119W        W40653   2.593  15.657   0.786 -0.0244  0.0742  0.1041
21120W        W40654   7.326  10.520   0.507 -0.0188  0.1097 -0.0281
21121W        W40655   5.980   1.791  12.311  0.0639 -0.1420 -0.1331
21122W        W40656   9.597  13.832   0.665 -0.2165 -0.1193 -0.1233
21123W        W40657   2.027   0.781   1.120 -0.1637  0.0732 -0.0953
21124W        W40658  18.067   5.827  12.456 -0.3658  0.0015 -0.0879
21125W        W40659   3.132   3.085   1.919 -0.4542 -0.2933  0.3130
21126W        W40660   0.134  17.139  12.433 -0.0235 -0.2452  0.0171
21127W        W40661   8.279  15.443  11.723 -0.2552  0.1231 -0.1508
21128W        W40662  11.838  12.864  14.672 -0.0296  0.1513  0.3578
21129W        W40663  17.024   8.198   1.933 -0.3368  0.3253 -0.0638
21130W        W40664  13.998   7.142   4.183  0.4920  0.0559 -0.2900
21131W        W40665  10.394   1.656   3.235 -0.0038  0.0857 -0.1803
21132W        W40666  13.195   2.866   4.809  0.2323 -0.0579 -0.0429
21133W        W40667   0.898  18.042   4.507  0.1730  0.0049  0.0906
21134W        W40668  14.916   2.152   2.856 -0.1202  0.4179 -0.0945
21135W        W40669   9.364   0.826   2.071  0.2334 -0.1003 -0.0360
21136W        W40670  15.084  12.731   4.701 -0.4516  0.3722 -0.0383
21137W        W40671  16.268  14.729   0.412  0.3053  0.1225 -0.1294
21138W        W40672   1.113  15.983  14.858  0.0920 -0.0611 -0.2891
21139W        W40673   2.771   4.599  15.987  0.3253  0.0184 -0.0911
21140W        W40674   1.347  13.989   1.686 -0.0628 -0.1345  0.1514
21141W        W40675   4.453   3.070   2.534  0.1190  0.5473 -0.0753
21142W        W40676  17.426   4.233  15.274 -0.2222  0.0604  0.1128
21143W        W40677   4.558  17.498  16.058 -0.0727  0.0160 -0.2450
21144W        W40678   1.452   1.624   1.464  0.1036  0.1078  0.5846
21145W        W40679   2.403   6.150   1.021 -0.0453 -0.3248  0.1091
21146W        W40680  11.307  16.696  15.266 -0.4431 -0.1501  0.0561
21147W        W40681  12.435  15.116  11.822  0.0495 -0.1790  0.0124
21148W        W40682  13.679  14.754  14.785  0.0246  0.1513  0.1634
21149W        W40683  14.049  10.949  10.918 -0.1682  0.2269 -0.1538
21150W        W40684   4.346   6.442  15.448 -0.0044  0.0051  0.0380
21151W        W40685   1.772  14.988  14.347  0.0559  0.0054 -0.1243
21152W        W40686  15.718   3.820   3.039 -0.1317  0.4442  0.2435
21153W        W40687  11.195  16.575   0.747 -0.2624  0.0471 -0.0926
21154W        W40688   9.354  12.924   3.886  0.0401  0.2783 -0.0989
21155W        W40689  13.476  12.870  11.329 -0.0503  0.2331 -0.0477
21156W        W40690   2.880   9.972  10.303 -0.0079  0.1463 -0.0718
21157W        W40691   8.375   7.494  14.702  0.0140  0.0426 -0.1368
21158W        W40692  13.681   4.840   3.740  0.1926 -0.1876  0.1837
21159W        W40693   3.061  12.433  11.170  0.1375  0.0745  0.0693
21160W        W40694  13.681  13.763   4.699  0.1939  0.3387 -0.0512
21161W        W40695   8.429   7.387  12.624  0.2664  0.2698  0.0039
21162W        W40696   6.127   9.709   2.333  0.2717 -0.2280  0.1505
21163W        W40697   4.023  14.329   3.293 -0.1907 -0.3376  0.1404
21164W        W40698   2.310   4.227  14.184 -0.0380 -0.2335  0.2833
21165W        W40699  14.674  12.376   3.550  0.3649  0.1822  0.2596
21166W        W40700   3.627  16.961   5.467  0.4049 -0.0109  0.0966
21167W        W40701  16.963   9.022  12.776  0.0620  0.1884 -0.1028
21168W        W40702   6.881   0.558  14.510  0.2531 -0.2254 -0.0955
21169W        W40703   4.909  12.612   3.380 -0.1963  0.2448  0.0630
21170W        W40704   8.164  16.111  15.238 -0.1009 -0.0831 -0.0276
21171W        W40705   4.870   3.493   2.433  0.0656  0.1577 -0.1427
21172W        W40706   0.321  12.516  12.899 -0.0850  0.1351  0.1954
21173W        W40707   5.780   2.029   0.986  0.2004  0.1064  0.0092
21174W        W40708  13.508  13.671   5.215  0.1627  0.1974  0.2777
21175W        W40709   5.306  14.022   1.396  0.1437 -0.0865 -0.0240
21176W        W40710   6.017   7.028   3.222  0.1856 -0.2086  0.0509
21177W        W40711   4.409  10.024  12.966 -0.3113 -0.1064 -0.0497
21178W        W40712  13.706   8.076  12.212  0.0820  0.1980  0.1258
21179W        W40713  16.301   5.269  11.618 -0.1245 -0.0991 -0.0697
21180W        W40714  13.999   1.671   3.062 -0.1178 -0.1604  0.0595
21181W        W40715  16.514   9.788  15.520 -0.1883  0.1787  0.3870
21182W        W40716   5.814   0.053   2.141 -0.0305 -0.0814 -0.0665
21183W        W40717  14.872   3.447   0.822  0.1452  0.1429  0.2632
21184W        W40718   2.326  17.021  11.463  0.1114 -0.1061  0.1868
21185W        W40719  15.935   1.913   1.121  0.2142 -0.0675  0.1196
21186W        W40720  12.546  12.947   4.605  0.2609 -0.1074  0.3037
21187W        W40721   9.768  16.853  10.967 -0.0119  0.2125 -0.3351
21188W        W40722   3.947   8.843  14.317 -0.3783  0.1557 -0.0353
21189W        W40723   2.052   1.749   0.262 -0.0556 -0.2310  0.0269
21190W        W40724   4.331  16.062  11.040  0.0474 -0.2757  0.0328
21191W        W40725  12.629  12.121  15.633 -0.4390 -0.0357  0.0736
21192W        W40726  17.132   2.565  14.969 -0.2104  0.0395  0.0465
21193W        W40727  10.482  12.360  13.537  0.0619 -0.2339 -0.3734
21194W        W40728  10.398  15.297   2.192  0.1817 -0.2951 -0.2864
21195W        W40729  13.240   6.924  13.428  0.1536 -0.1201 -0.1059
21196W        W40730   2.194  17.416   0.291 -0.0306  0.0328 -0.1449
21197W        W40731  17.301  11.600  15.232  0.0926  0.2066 -0.2614
21198W        W40732  13.573  16.880  13.720  0.2651 -0.2259  0.2486
21199W        W40733   6.868   2.234  14.537 -0.1902 -0.1665 -0.1852
21200W        W40734  17.196   2.501  12.655  0.2814 -0.1837  0.0819
21201W        W40735  11.748  17.597  13.287 -0.1291  0.1002  0.1049
21202W        W40736   0.156  17.519   4.674  0.4201  0.0414 -0.0126
21203W        W40737   9.957  16.837   0.272 -0.0156 -0.1366 -0.1123
21204W        W40738   9.006   8.019   2.073 -0.0258  0.1462  0.2765
21205W        W40739   0.439   8.872   0.600 -0.0951  0.0835  0.1322
21206W        W40740   3.947  16.384  14.686 -0.2572 -0.0457 -0.1794
21207W        W40741   3.879  17.327   3.298  0.0113  0.0767 -0.0071
21208W        W40742  16.962   2.130  11.963  0.1552 -0.0137 -0.0462
21209W        W40743  15.252  12.475   1.738 -0.2403 -0.1674  0.1488
21210W        W40744  11.364   7.494  14.658  0.0187 -0.0138 -0.1868
21211W        W40745  17.349   2.761   0.412 -0.0177 -0.1438  0.0862
21212W        W40746  12.732   9.520   1.742  0.0463 -0.1347  0.1995
21213W        W40747   2.788  16.365  13.323  0.0279 -0.0058  0.1620
21214W        W40748  17.944   3.342   2.728 -0.3520 -0.0181 -0.1859
21215W        W40749   7.709  16.358   4.779  0.2748 -0.0377 -0.1270
21216W        W40750   3.714   7.801   2.416 -0.0084 -0.2063  0.1322
21217W        W40751  16.242   4.852  13.517  0.2564 -0.0226 -0.2822
21218W        W40752  17.398   8.242  12.242  0.0878 -0.1561  0.1348
21219W        W40753   1.358  10.503  15.737  0.0576  0.0229  0.0083
21220W        W40754   6.633   2.074  13.154 -0.1215  0.2114 -0.2056
21221W        W40755   9.223   5.077  14.957 -0.2615 -0.3587 -0.2621
21222W        W40756  10.351  14.933  11.650  0.1929 -0.0614  0.0181
21223W        W40757   7.398  16.599   2.995 -0.0284  0.1411 -0.0167
21224W        W40758  15.375  12.781  12.732  0.1865  0.1198 -0.0534
21225W        W40759  13.040   2.264   3.080 -0.0177 -0.0072  0.0666
21226W        W40760  13.825  14.744  15.604 -0.2689  0.1300 -0.2267
21227W        W40761   4.117  17.618  10.157 -0.4045  0.1953 -0.1281
21228W        W40762  11.689   8.885  15.691 -0.2854  0.2179 -0.1340
21229W        W40763   8.677   5.117  12.425  0.2592  0.2691  0.0522
21230W        W40764   3.410   0.748  14.546  0.1623  0.0107 -0.1078
21231W        W40765   0.389   3.751  11.580  0.1712  0.1610  0.1563
21232W        W40766  14.679   4.424   4.345  0.2738 -0.0803  0.4731
21233W        W40767   7.692  13.817  11.318 -0.0264  0.0731 -0.3200
21234W        W40768  11.404  10.055   4.409 -0.2850  0.2927 -0.1839
21235W        W40769  13.914  14.332  11.964 -0.3203 -0.0799 -0.0908
21236W        W40770   0.428   2.767  14.370 -0.0177 -0.2562 -0.1481
21237W        W40771  16.992   0.882  14.546 -0.0831  0.1490 -0.1127
21238W        W40772   9.302   4.285  12.663  0.1178 -0.1047 -0.2800
21239W        W40773   9.881   1.175  15.246  0.2733  0.2591  0.0940
21240W        W40774  11.545   4.711   1.846 -0.0352 -0.0263 -0.2936
21241W        W40775  12.227   6.470  11.785  0.0043 -0.0898  0.1699
21242W        W40776   1.134   8.713  12.611  0.3023 -0.1371 -0.3566
21243W        W40777   1.884  15.627  15.662 -0.0875 -0.0351  0.2566
21244W        W40778   2.600   7.048  13.296 -0.3694  0.3132  0.0746
21245W        W40779  11.137   6.287  14.055  0.0531 -0.1178  0.0443
21246W        W40780   4.172  15.148   1.569  0.1763 -0.3461  0.2555
21247W        W40781   5.450  16.384   3.563 -0.1146 -0.0166  0.1763
21248W        W40782  12.678  15.817   3.228 -0.0418 -0.0932  0.1951
21249W        W40783  16.342   7.403   2.701 -0.2359 -0.2120  0.0502
21250W        W40784  18.101   4.780   3.851 -0.1266 -0.1751 -0.0434
21251W        W40785  14.289  10.163   0.751  0.0495  0.1559 -0.3340
21252W        W40786   0.196   9.983  13.348  0.0520 -0.0319 -0.1043
21253W        W40787   4.646   3.462  15.424 -0.1893 -0.1262  0.1417
21254W        W40788   6.137   6.757  12.538  0.1058  0.1281  0.0295
21255W        W40789  12.813   4.120   1.200 -0.1120  0.0511 -0.3259
21256W        W40790  11.590   5.233   3.974 -0.1389 -0.0450 -0.2588
21257W        W40791  11.133   9.899  11.712  0.1814  0.0653  0.1755
21258W        W40792   9.819   8.639  10.752 -0.0863  0.1384 -0.3675
21259W        W40793   8.724  11.767  12.065 -0.1149 -0.1063  0.0951
21260W        W40794   9.583  16.114   2.657  0.2685  0.0631 -0.1353
21261W        W40795  17.936   6.516  14.461 -0.0889 -0.0932 -0.2711
21262W        W40796  15.653   0.222   3.206  0.2787  0.0146  0.2021
21263W        W40797  14.694  13.320  12.315  0.0554 -0.3963  0.3057
21264W        W40798   6.023  12.511  11.960  0.0029 -0.0031 -0.3722
21265W        W40799  13.657   1.278   1.119  0.2669  0.0841  0.0563
21266W        W40800  16.918  10.084  13.544 -0.0580  0.1900  0.1636
21267W        W40801   0.427  12.660  15.099 -0.0505  0.0812 -0.1817
21268W        W40802   4.616  13.842  15.503  0.0443 -0.2180 -0.0615
21269W        W40803  17.406   0.205   4.481  0.0256  0.1010  0.0009
21270W        W40804   3.847   9.232   0.912 -0.0483  0.0576  0.1634
21271W        W40805  10.711   3.051   0.482 -0.1733  0.0438  0.1129
21272W        W40806   8.729   4.535  14.214 -0.1888  0.0351 -0.1612
21273W        W40807   3.731  12.814  14.946  0.1691 -0.2877  0.2728
21274W        W40808   0.190   4.967  12.338 -0.1896  0.1253  0.0744
21275W        W40809   4.069  16.980  11.155  0.1612  0.2286 -0.0083
21276W        W40810   5.190  10.630   1.737 -0.0090 -0.1310 -0.1441
21277W        W40811  15.415   9.886  14.787 -0.2333  0.2597  0.4120
21278W        W40812   1.387   0.828  13.745  0.0629  0.3747  0.0275
21279W        W40813  15.696   6.730   2.994 -0.1223 -0.2440  0.1887
21280W        W40814  18.156   5.385  11.169  0.2422  0.0611  0.1752
21281W        W40815  15.870   5.936  15.151 -0.1452 -0.0530  0.1104
21282W        W40816   6.904  10.070   4.369 -0.1437  0.2357 -0.1111
21283W        W40817   5.318  16.472  12.821 -0.0792  0.0174 -0.0355
21284W        W40818   7.695   0.115   4.148 -0.0141 -0.1159  0.2414
21285W        W40819  16.090  13.093   4.116  0.1830  0.0915  0.0728
21286W        W40820  11.737  13.696  14.867 -0.0118  0.2607 -0.0536
21287W        W40821   6.662   5.949   1.741 -0.2200 -0.1476  0.1087
21288W        W40822   3.500   1.535   4.994  0.2041  0.3793  0.0484
21289W        W40823   1.800   0.771   3.201  0.0263  0.0876 -0.0898
21290W        W40824  17.324   4.282   3.553  0.1360 -0.3347 -0.2698
21291W        W40825  14.637   6.713  15.819  0.4071 -0.1099 -0.0540
21292W        W40826  10.930   7.335  14.916  0.0639 -0.2063 -0.0815
21293W        W40827   2.156  12.773   0.574  0.1111 -0.1577 -0.4818
21294W        W40828   1.051   4.475  14.820 -0.0824  0.0362 -0.0019
21295W        W40829   5.296   0.149   2.531  0.1958  0.1508  0.0039
21296W        W40830   4.384  13.705   2.215  0.0491 -0.1738  0.0871
21297W        W40831  10.651   3.279   1.030 -0.1541 -0.5036  0.1506
21298W        W40832   4.347   4.059   0.241 -0.1282  0.0513 -0.3615
21299W        W40833  14.519   4.039  15.165 -0.3057 -0.0135 -0.0473
21300W        W40834   4.650  13.269  13.311 -0.0438 -0.0427  0.3780
21301W        W40835   7.450  14.987   0.422  0.0990  0.2814  0.0805
21302W        W40836  14.971  14.822  14.277 -0.2124  0.2346 -0.1487
21303W        W40837  12.420  13.975   0.652 -0.0080 -0.0436  0.0631
21304W        W40838  11.804   5.379   0.466  0.2303 -0.0891 -0.2600
21305W        W40839   6.873  16.585  12.269 -0.0272  0.1244  0.2147
21306W        W40840   9.840  16.228   3.392  0.1142  0.0284 -0.1428
21307W        W40841  17.642  12.774   1.451  0.3943 -0.2204  0.0322
21308W        W40842   6.512   2.402   2.971 -0.1794 -0.0381  0.1391
21309W        W40843   8.941  15.907   0.348 -0.0667 -0.0130  0.2279
21310W        W40844   4.519   9.071   3.426  0.0164 -0.1030 -0.2091
21311W        W40845   0.099   3.709   2.971  0.0816  0.3230 -0.1658
21312W        W40846   8.032  12.594  14.473  0.0190 -0.0453 -0.2018
21313W        W40847  13.720   8.632   0.298  0.1720  0.0278 -0.0915
21314W        W40848   8.297  14.058  12.141 -0.1053 -0.0233  0.2178
21315W        W40849   4.732  16.565   2.048  0.0240 -0.2324 -0.4400
21316W        W40850   0.611  11.046  11.814 -0.0191  0.0680  0.1049
21317W        W40851   0.334   6.054   2.392 -0.0584 -0.1810  0.2941
21318W        W40852   6.064   9.113  13.332 -0.0147 -0.0266 -0.1377
21319W        W40853   1.722  11.045   1.874  0.2606 -0.2409  0.1245
21320W        W40854  17.705   7.010   1.644  0.0699  0.0128 -0.0020
21321W        W40855  15.009  17.063   2.969 -0.1015 -0.2147 -0.0193
21322W        W40856   2.231  12.302   4.056 -0.0130 -0.0215 -0.1844
21323W        W40857   4.868  11.190  13.256 -0.1097 -0.2039  0.1284
21324W        W40858   6.934  14.843   2.368  0.1633 -0.0973  0.1064
21325W        W40859  15.447  17.103   0.770 -0.2160  0.0662  0.2970
21326W        W40860   8.264   8.005  14.694 -0.0416 -0.0073 -0.3909
21327W        W40861  15.181  17.990   4.751 -0.0905  0.2191 -0.2515
21328W        W40862   0.569  15.914   0.237 -0.0569 -0.1088 -0.2895
21329W        W40863   1.132  12.230  14.752 -0.0243 -0.0815  0.0110
21330W        W40864   1.862   2.688  14.169 -0.2966  0.0893  0.0939
21331W        W40865   2.119  14.385  13.374  0.1350  0.0027  0.0019
21332W        W40866  11.423  15.577   0.548  0.1557  0.3432 -0.0367
21333W        W40867   1.236   4.800  13.327  0.0766 -0.0927 -0.0994
21334W        W40868  10.325   9.381   0.977 -0.0518 -0.0823  0.0969
21335W        W40869   7.842   1.655  15.458  0.0267 -0.0576 -0.1328
21336W        W40870   1.005  17.654   2.167 -0.0739  0.0742  0.0720
21337W        W40871  16.526   9.262  15.230  0.1881  0.1974  0.0050
21338W        W40872   9.788   7.151  12.737 -0.1331 -0.2797 -0.3145
21339W        W40873  11.403  12.127   2.739 -0.0994  0.2474 -0.2031
21340W        W40874  14.071  11.500  15.567 -0.0179 -0.2767 -0.2303
21341W        W40875   1.188   2.621  11.223  0.0010  0.0322  0.2484
21342W        W40876   1.597   3.477   4.306 -0.0940 -0.4440  0.0503
21343W        W40877   8.943  12.839   0.662 -0.1659 -0.0503  0.2647
21344W        W40878  12.300   9.628  11.521 -0.1033  0.0648  0.3845
21345W        W40879  10.397  12.492   2.181 -0.0896 -0.0991 -0.1226
21346W        W40880   5.951   2.772   0.521  0.0341  0.0751 -0.1861
21347W        W40881  15.858   1.381   4.518  0.1836 -0.1535 -0.1606
21348W        W40882   5.415  16.999   4.079 -0.3612  0.0995  0.0375
21349W        W40883   7.428   8.459  12.632  0.0057 -0.2683 -0.0932
21350W        W40884   6.929  10.037   3.569  0.4049 -0.2741  0.0143
21351W        W40885   0.567   9.859  12.383 -0.1481  0.0812 -0.1013
21352W        W40886   6.133   0.427  10.888  0.0893  0.2821 -0.1670
21353W        W40887   2.868   2.652  13.398  0.0475  0.0952  0.2677
21354W        W40888   5.056   1.098   3.215  0.3846  0.0478 -0.1434
21355W        W40889  15.460  13.914  12.181  0.1536 -0.3532  0.0009
21356W        W40890   8.043   7.558  12.202  0.1283  0.2716  0.0776
21357W        W40891  12.504  15.922  14.929 -0.2328 -0.3299 -0.0121
21358W        W40892   6.194   3.064  12.815 -0.0295 -0.1073  0.1856
21359W        W40893   0.823   8.631   1.888  0.3230 -0.1479 -0.2332
21360W        W40894   0.058  14.649   2.427  0.1479 -0.2761 -0.1030
21361W        W40895  17.381   6.512  16.039 -0.0457 -0.0765 -0.1075
21362W        W40896   4.357   3.169  12.561  0.0114 -0.0388  0.0512
21363W        W40897  12.479  11.322  15.060 -0.3066 -0.0431 -0.0368
21364W        W40898   8.250   7.866  13.674  0.0687 -0.2736 -0.1701
21365W        W40899   5.468   5.375  14.754 -0.0125  0.0955  0.2655
21366W        W40900  11.554  14.212  16.037  0.0026  0.0442 -0.1456
21367W        W40901  14.094  17.112   0.509  0.0413 -0.1835 -0.1071
21368W        W40902  12.782   1.777  13.657 -0.1807 -0.2721  0.0990
21369W        W40903   6.121  12.479   0.101  0.0069 -0.1291 -0.2071
21370W        W40904  11.665   1.061   1.375 -0.1496 -0.3014  0.2184
21371W        W40905  12.200  14.690   0.596  0.1633  0.2561 -0.2656
21372W        W40906   5.820  12.961  11.738  0.3208  0.1543 -0.0924
21373W        W40907  16.402  11.633  13.181  0.0110 -0.4309  0.0211
21374W        W40908   1.735   8.724  13.943  0.0100  0.1003  0.1298
21375W        W40909  15.869  13.927   0.051 -0.0824 -0.3071  0.0842
21376W        W40910  12.282  17.239   3.142 -0.1021 -0.0165 -0.1248
21377W        W40911   1.644   4.828  15.552  0.0710  0.0437 -0.3826
21378W        W40912   4.725   0.508   4.956  0.0556  0.1337 -0.0375
21379W        W40913   4.139  10.246  13.293 -0.2267 -0.0667  0.1742
21380W        W40914   7.494  17.486   2.400  0.2012  0.0174  0.0963
21381W        W40915   0.202  17.752   1.596  0.0592  0.1398 -0.1023
21382W        W40916  10.651  12.920   0.915  0.0395  0.0196 -0.0311
21383W        W40917   1.679  13.765  13.945  0.3944 -0.0456 -0.0730
21384W        W40918  17.055   9.180   0.137 -0.0832  0.1868  0.0899
21385W        W40919  13.024  17.139  15.780  0.1174 -0.0262 -0.0339
21386W        W40920  11.850  14.043  11.882 -0.2477  0.0337 -0.2711
21387W        W40921   8.614   5.192  11.658 -0.1524 -0.2036 -0.0079
21388W        W40922  13.089  16.735  12.318  0.1042  0.0968  0.2553
21389W        W40923   1.906  14.670  12.392 -0.2098 -0.0151  0.1308
21390W        W40924  12.131  13.850  11.454 -0.0036  0.0508  0.1741
21391W        W40925   6.224   2.347   0.811  0.0002 -0.4138  0.0767
21392W        W40926   5.040  12.556  14.985 -0.0207  0.0766  0.1860
21393W        W40927  11.340  17.894   1.957  0.1548  0.1093  0.0909
21394W        W40928   3.387  18.038  13.511 -0.1876 -0.0643 -0.2832
21395W        W40929   7.856  17.473  14.084 -0.4975 -0.2369 -0.2922
21396W        W40930   7.435   1.895   0.921 -0.0973 -0.1891  0.0836
21397W        W40931   8.247   3.887   4.201 -0.1593 -0.0417  0.0502
21398W        W40932   5.382   5.901   4.345 -0.0433 -0.2262 -0.0039
21399W        W40933   1.112  13.835  14.878 -0.1594  0.1606  0.0519
21400W        W40934   6.034  16.325   4.352 -0.2004 -0.4731  0.2348
21401W        W40935   7.279   9.608   4.275  0.1146 -0.1150  0.2232
21402W        W40936   3.826   7.308  14.131  0.1300 -0.0245  0.0348
21403W        W40937  12.990   3.047  15.928  0.2190 -0.0200  0.0557
21404W        W40938  17.829  16.712  14.540 -0.0215 -0.1087 -0.3699
21405W        W40939   8.565   5.111  12.889  0.2944 -0.0774 -0.0902
21406W        W40940   9.824   1.398   0.167 -0.3900  0.0970  0.0004
21407W        W40941   3.870   5.167  11.452  0.2603  0.0033 -0.1112
21408W        W40942   6.203   3.093   4.169 -0.0794 -0.0356 -0.0395
21409W        W40943  17.244   0.037   3.070 -0.0500  0.1070 -0.2723
21410W        W40944   9.284   2.008  15.659  0.3408  0.1079  0.1956
21411W        W40945   1.939   4.292   0.227 -0.0181 -0.0492 -0.3361
21412W        W40946   1.339   0.351  15.942 -0.0009 -0.0368 -0.1219
21413W        W40947  10.955  12.821   1.295 -0.1947  0.1020  0.0842
21414W        W40948   1.338   0.846  11.625 -0.2056 -0.1153  0.0072
21415W        W40949  11.802  12.725  15.585 -0.3525 -0.0134 -0.3311
21416W        W40950   9.737  13.629  11.681 -0.1944  0.0882  0.1950
21417W        W40951   3.806  15.625   4.441 -0.1384  0.0605 -0.4921
21418W        W40952   3.210   5.352   3.650 -0.1671  0.0499  0.0373
21419W        W40953  13.437   7.703   3.052 -0.1052 -0.0754 -0.0412
21420W        W40954  11.451   6.560   0.775  0.1156  0.1553 -0.1976
21421W        W40955   7.388   4.625   2.166  0.2273  0.3185 -0.2822
21422W        W40956  17.451   2.454  15.760 -0.2403  0.0025  0.0544
21423W        W40957   2.001  11.545   5.366  0.1313 -0.0065 -0.0271
21424W        W40958   7.891  10.350   0.288 -0.0398 -0.1222  0.0135
21425W        W40959  16.150   0.948  11.503 -0.1286  0.1396 -0.2256
21426W        W40960  16.257  11.370   3.361 -0.0253 -0.0641  0.2932
21427W        W40961   7.508  10.738   1.231 -0.2416 -0.0693 -0.0839
21428W        W40962   1.144  10.267   3.962 -0.2505 -0.2337  0.1893
21429W        W40963   9.179   7.855   3.764 -0.3097  0.2654  0.3048
21430W        W40964  16.413  14.618  12.447  0.0045  0.2245  0.0395
21431W        W40965   7.878   4.105   4.600  0.0954  0.1515 -0.0887
21432W        W40966   9.675  16.024  12.411 -0.1797 -0.0191 -0.0532
21433W        W40967  17.619  11.728   1.591 -0.0256 -0.0793 -0.3077
21434W        W40968  14.202  10.768   3.093 -0.0434 -0.3289  0.0459
21435W        W40969   5.303   2.856  11.623  0.0190  0.1070  0.2695
21436W        W40970  14.322   4.174  16.030 -0.0937  0.1492  0.0058
21437W        W40971  17.594  13.092   1.881  0.0671  0.1882 -0.2701
21438W        W40972  12.417  13.398  15.538  0.0051 -0.0185 -0.0397
21439W        W40973   4.494  13.782   1.194  0.0644  0.0067 -0.0804
21440W        W40974   1.925   3.981   4.489  0.0923  0.0485  0.0388
21441W        W40975   7.398   1.020   0.560  0.0132 -0.1543  0.2614
21442W        W40976  10.251  11.952  15.137  0.0646  0.3051 -0.3389
21443W        W40977   4.640  15.974   1.936  0.0631  0.0627  0.1681
21444W        W40978  15.270  16.682   1.088  0.0174 -0.1906 -0.1887
21445W        W40979  14.552  11.875   0.095 -0.2912 -0.3374 -0.2451
21446W        W40980   9.123  14.396   4.583  0.0288  0.1439 -0.1072
21447W        W40981   1.279   5.641   1.624 -0.0643 -0.1264  0.0418
21448W        W40982   6.500  16.861  15.035  0.2172 -0.3949 -0.2929
21449W        W40983  13.470   2.790   3.880 -0.0352  0.2090 -0.3545
21450W        W40984   1.231  11.596  14.892  0.1692  0.1498  0.0387
21451W        W40985  16.266   7.773   1.574  0.0176  0.1310 -0.1779
21452W        W40986  12.828   7.675   0.921 -0.1001 -0.1525  0.2868
21453W        W40987   9.746  12.325   0.982  0.1817 -0.0426 -0.3856
21454W        W40988  12.564   3.802  12.267 -0.3768  0.2239 -0.1166
21455W        W40989  12.782   7.472  12.856  0.1232  0.3027  0.1798
21456W        W40990  12.422  10.899   4.880 -0.0326 -0.2522  0.2227
21457W        W40991   3.526   1.563  14.145  0.1315  0.0010  0.1876
21458W        W40992   3.622   9.875   4.187  0.2505 -0.2148  0.0744
21459W        W40993  14.974  12.842  13.040 -0.2244 -0.0378 -0.0967
21460W        W40994   8.187   3.997   1.169  0.1243  0.2722 -0.0527
21461W        W40995  13.531   0.568  12.449 -0.2058 -0.1305 -0.1482
21462W        W40996  13.538   7.554   1.545  0.1231  0.2013 -0.1590
21463W        W40997   1.023  17.294  13.586  0.2164 -0.3115  0.0353
21464W        W40998  17.296   5.317   0.047  0.0243 -0.2881  0.1377
21465W        W40999   7.618  12.337  13.726 -0.0331 -0.1610  0.1712
21466W        W41000   5.978  11.270  14.466 -0.0938  0.2754 -0.0565
21467W        W41001   7.995  10.030  11.315  0.1055  0.2972  0.1338
21468W        W41002   6.137   2.316  13.970 -0.3750  0.2577  0.0394
21469W        W41003  15.107  16.737  11.864  0.3149  0.0045 -0.0457
21470W        W41004  17.828  14.415   1.635 -0.0683 -0.1342  0.1680
21471W        W41005   8.378  12.947  14.513 -0.0649  0.0121 -0.0916
21472W        W41006  13.289  14.431   3.349  0.3242  0.2953  0.1074
21473W        W41007   2.703   0.931  14.695  0.1376 -0.0472 -0.2974
21474W        W41008  13.095   4.086  15.058  0.0808  0.0108 -0.3346
21475W        W41009  16.207   6.937   1.926 -0.0094  0.1674 -0.1096
21476W        W41010  12.849  16.270  10.653  0.2594  0.2890  0.1120
21477W        W41011   4.990   2.343   2.384  0.0017  0.0071  0.0242
21478W        W41012  13.311   6.079  12.492  0.2444 -0.1549  0.0871
21479W        W41013   8.829   1.818  13.700 -0.3958  0.0570  0.1241
21480W        W41014  17.756  14.859   1.929  0.6157 -0.1229 -0.0132
21481W        W41015   1.224  15.272   0.105  0.2254 -0.0941  0.1860
21482W        W41016   6.087  12.169   3.602  0.2679 -0.2128  0.0654
21483W        W41017   3.844  16.253  11.549  0.3346  0.1109  0.1159
21484W        W41018   2.580  15.967  14.044  0.1498 -0.1551 -0.1543
21485W        W41019   4.638   9.565   1.062  0.4571  0.0117  0.3939
21486W        W41020   5.561   5.180  11.670  0.1212  0.1806 -0.2851
21487W        W41021  14.162   4.534  14.551 -0.3599  0.3334  0.2533
21488W        W41022  17.395   7.248   1.073 -0.2776  0.0062 -0.0553
21489W        W41023   9.163   6.305  12.174  0.2538  0.2422  0.3217
21490W        W41024   9.179   2.718   1.038 -0.1952 -0.0675 -0.0439
21491W        W41025   1.001   1.377   3.389  0.0793 -0.2800 -0.0105
21492W        W41026  13.606   1.076   0.021 -0.0665  0.0379 -0.1181
21493W        W41027  16.675  16.548   0.603  0.0505 -0.1259  0.0184
21494W        W41028   8.599  12.477   1.047  0.2034  0.1449 -0.1913
21495W        W41029   2.506   1.478  12.179 -0.0249 -0.1461  0.4663
21496W        W41030   1.867  12.487   2.175 -0.0785 -0.1001  0.1174
21497W        W41031   4.950   7.476   2.262  0.3984 -0.0088 -0.1341
21498W        W41032   0.345  17.802   3.696 -0.1335  0.1188 -0.0457
21499W        W41033   4.518   2.062   0.129  0.0035 -0.2160  0.1308
21500W        W41034  15.266  12.247   2.224  0.1777 -0.0839 -0.0846
21501W        W41035   9.080   9.507   1.649 -0.1178  0.0471 -0.0209
21502W        W41036   4.220   1.503   0.065  0.1510 -0.0108 -0.0236
21503W        W41037   2.305   2.940   0.685  0.3686  0.0340  0.3088
21504W        W41038   5.937   5.741  15.634  0.0677  0.2140 -0.1081
21505W        W41039  15.530  12.429  11.335 -0.0756  0.2632  0.1265
21506W        W41040  13.760  17.879   5.091 -0.0152 -0.1377 -0.1135
21507W        W41041   1.283  12.062  13.001  0.1675 -0.2331 -0.1005
21508W        W41042  16.021  15.847   4.257  0.0443 -0.2520  0.0124
21509W        W41043   5.444   0.977   5.363 -0.1350  0.2552 -0.3581
21510W        W41044  10.949   3.745   3.078 -0.2302  0.0580  0.1026
21511W        W41045   7.621   6.358  15.185  0.0704  0.0577  0.0280
21512W        W41046   6.726   2.525  15.484 -0.1520 -0.2086  0.1222
21513W        W41047   3.646   0.513  12.750  0.0135 -0.1594  0.0855
21514W        W41048   7.152  14.874  15.384 -0.1350  0.0436  0.1636
21515W        W41049  14.439   6.321   2.633  0.1525 -0.0372  0.1501
21516W        W41050   8.501  15.847  11.976  0.0914 -0.2327  0.0191
21517W        W41051  13.559  14.781  14.278  0.4700  0.1485 -0.2168
21518W        W41052   7.973  12.258   0.273  0.0331 -0.0647 -0.1710
21519W        W41053   9.508   9.492   3.053  0.1455 -0.2608 -0.2269
21520W        W41054   9.854  17.649  13.587 -0.2110 -0.2724  0.0701
21521W        W41055  11.301   6.106   0.837 -0.2940  0.0642 -0.0020
21522W        W41056  13.253  10.881  14.120 -0.0219 -0.0243  0.2866
21523W        W41057  14.972   8.358   4.586  0.0580  0.0700  0.3388
21524W        W41058   0.567   3.757  13.592 -0.2112  0.3234  0.1585
21525W        W41059  15.033   2.226   0.212  0.0339  0.2336 -0.1182
21526W        W41060  14.078  13.323   2.972 -0.1605  0.0958 -0.0174
21527W        W41061  16.585   0.800   2.485  0.0388  0.1366  0.1468
21528W        W41062   9.859   7.788   3.615  0.0700 -0.0574 -0.0359
21529W        W41063  10.343   8.338   3.773  0.0111  0.1769  0.2327
21530W        W41064   3.134   6.817   2.975  0.1905 -0.0575  0.0323
21531W        W41065   1.777   5.515   1.540 -0.3099 -0.1072  0.0483
21532W        W41066   4.504   9.086   4.296  0.0557  0.0309 -0.1626
21533W        W41067  15.605  13.721  14.445 -0.0703  0.0602 -0.3662
21534W        W41068  16.084  11.326   0.177  0.1139 -0.0627 -0.0177
21535W        W41069  14.128   6.388   0.601 -0.2236 -0.1514 -0.3237
21536W        W41070  12.670  15.116  11.350  0.0933 -0.4944  0.1179
21537W        W41071   3.650  10.187  14.548  0.1223  0.0098  0.0558
21538W        W41072   0.349   2.279   2.292  0.0043  0.1488  0.1245
21539W        W41073  15.409  12.303  11.823 -0.0585  0.1784  0.3608
21540W        W41074  14.371  17.457   3.883  0.2172 -0.3700  0.0827
21541W        W41075  11.785   0.674   5.618  0.3644  0.2868 -0.0090
21542W        W41076  15.728   3.337   4.284 -0.0412  0.2169  0.1428
21543W        W41077  11.304   7.675   1.746  0.1577 -0.1684  0.0782
21544W        W41078   4.776  15.866   3.002  0.1146  0.0525 -0.0970
21545W        W41079  15.693   6.119   3.164 -0.0161  0.1155  0.0698
21546W        W41080   3.479  15.451  12.352  0.3820  0.0760 -0.0565
21547W        W41081  16.674   9.916   1.986 -0.0875  0.1663  0.0786
21548W        W41082   5.071   6.713  12.887 -0.4108 -0.2412 -0.1468
21549W        W41083   8.515  10.516  12.515 -0.0790  0.3128  0.1576
21550W        W41084   7.854  16.292   0.806  0.1264 -0.0075 -0.0584
21551W        W41085  12.403  17.842   1.975  0.0361  0.0504 -0.1486
21552W        W41086  12.930  14.603   0.136 -0.0652  0.2043 -0.1719
21553W        W41087  13.589  14.702  12.144  0.0381  0.1562  0.2971
21554W        W41088   7.583   1.126  13.757 -0.0415 -0.0583  0.1289
21555W        W41089   6.764   3.326   0.666 -0.0248  0.2965 -0.2790
21556W        W41090   7.744   5.341  13.353  0.0913 -0.3581 -0.1577
21557W        W41091   1.031   0.388  12.165  0.0503 -0.4122 -0.0498
21558W        W41092   6.162   9.883   3.692 -0.1213  0.1666 -0.3186
21559W        W41093   8.112  17.276  12.517  0.0101  0.0667 -0.2233
21560W        W41094  15.059  11.039   4.771 -0.4399  0.0338 -0.2229
21561W        W41095   5.881  11.712  15.730 -0.1222 -0.0396  0.2144
21562W        W41096   3.224  10.151  14.133  0.1244  0.0260 -0.2370
21563W        W41097   0.799  12.798  12.680  0.3374 -0.2247  0.0029
21564W        W41098  13.782   6.222   4.228  0.1169  0.4046  0.1590
21565W        W41099  13.786  11.366  16.007  0.0230  0.0693  0.1837
21566W        W41100   9.238   8.357  12.561  0.1371 -0.0758 -0.0975
21567W        W41101   8.443   8.000   4.183  0.2860 -0.0817 -0.2563
21568W        W41102   9.492   8.768  11.967  0.0932  0.1676 -0.1735
21569W        W41103  11.841  15.783   4.375  0.2306 -0.0955  0.2796
21570W        W41104   5.494   1.858  14.456  0.1261 -0.2243  0.1794
21571W        W41105  11.993  12.330   1.186 -0.1384 -0.0499 -0.1558
21572W        W41106  10.417  11.616  12.313 -0.3093 -0.0888 -0.2102
21573W        W41107   5.227  12.292  15.642 -0.3239 -0.3721  0.0800
21574W        W41108  14.361   7.663  14.594 -0.1750  0.2271  0.0149
21575W        W41109   2.101   6.644  15.022 -0.2173  0.1914 -0.1299
21576W        W41110   2.997   4.834  15.026  0.1659  0.2648 -0.0145
21577W        W41111  13.202   5.654  13.952 -0.0318  0.1193 -0.0700
21578W        W41112  12.844   2.847  14.349  0.2060 -0.1486 -0.0557
21579W        W41113  16.363   6.860   2.914  0.0875  0.0501  0.2629
21580W        W41114   8.319   7.829   0.510 -0.1332 -0.0512  0.0564
21581W        W41115   0.191   8.172  15.801  0.1319 -0.0400 -0.2757
21582W        W41116   7.467  16.478  13.695 -0.0544 -0.0834 -0.0103
21583W        W41117   5.728  10.213  14.106  0.1361 -0.0463 -0.0181
21584W        W41118  16.331   5.241   4.702  0.1547 -0.0716  0.0006
21585W        W41119  15.299  18.069  13.069 -0.1570  0.1707 -0.2615
21586W        W41120  13.155  17.470  12.378  0.0347  0.0842  0.1356
21587W        W41121   5.408  15.638   2.581 -0.1778  0.1902  0.1466
21588W        W41122   0.684   7.725   2.835  0.0898 -0.1370 -0.0113
21589W        W41123  12.701  17.565  13.287  0.3309 -0.1283  0.1813
21590W        W41124   0.562  16.586   0.571  0.1073 -0.1639 -0.0297
21591W        W41125  17.128   4.334   3.079  0.3083 -0.3319  0.2476
21592W        W41126  12.297   5.042   1.250  0.2445 -0.2247  0.0170
21593W        W41127  16.836   3.672   4.325  0.1696 -0.0128  0.1059
21594W        W41128   1.057   9.705   4.099 -0.0603  0.3196 -0.1083
21595W        W41129  15.628   8.762  13.149  0.1970 -0.1102 -0.3008
21596W        W41130   8.695  11.354   4.551 -0.2106 -0.2354  0.5174
21597W        W41131  16.202  14.175   2.650 -0.3139  0.0274 -0.0104
21598W        W41132   5.784   4.118   0.113  0.2674 -0.1194 -0.1547
21599W        W41133   7.608   7.602  12.971  0.1340  0.0797  0.1686
21600W        W41134  15.226  18.043  12.562 -0.1518 -0.0638 -0.0110
21601W        W41135   4.339  14.536  14.480 -0.1834 -0.5765 -0.2755
21602W        W41136   7.152  13.347  15.587 -0.2923 -0.1681 -0.0255
21603W        W41137   8.301   8.613  12.478 -0.1508  0.0722  0.0693
21604W        W41138  16.375  10.261  14.235 -0.0709  0.0914  0.2954
21605W        W41139   1.640   8.495   4.477  0.0549  0.1656 -0.1937
21606W        W41140  10.397   7.839   3.714  0.1913  0.0386  0.1216
21607W        W41141   3.479   2.072   3.158  0.3314 -0.0909 -0.4534
21608W        W41142  14.458  15.646  15.754 -0.1954  0.0497  0.1109
21609W        W41143  14.498   8.266  12.909 -0.3642  0.0064  0.0088
21610W        W41144  17.221   8.815  13.198 -0.1363 -0.2490 -0.1986
21611W        W41145  12.350   7.305  15.569  0.2466  0.2318 -0.2193
21612W        W41146   5.696  12.220  12.084 -0.1327  0.1808  0.2737
21613W        W41147   7.366   8.975   0.143  0.1785 -0.0737  0.2365
21614W        W41148  17.011  15.176  12.976 -0.0080  0.1748  0.1525
21615W        W41149   7.313   1.952  14.545  0.0124 -0.2105  0.1273
21616W        W41150  15.385   7.225  15.853  0.2796 -0.1735  0.4320
21617W        W41151   2.742   0.898   2.237  0.1289  0.2917  0.0093
21618W        W41152  15.875   8.421   3.757  0.3329 -0.3216  0.0147
21619W        W41153  10.873   2.545  13.616  0.0974 -0.1525  0.1745
21620W        W41154   3.916  11.632   1.758  0.0178 -0.2137  0.1484
21621W        W41155   7.928   8.544  12.169 -0.0994 -0.0138 -0.0981
21622W        W41156  14.894  13.033  11.981  0.0356 -0.1693 -0.0790
21623W        W41157   5.586   1.418   3.089  0.1792  0.0664  0.0573
21624W        W41158  13.805   8.053   3.092 -0.4476  0.0598 -0.0642
21625W        W41159  18.065  10.661   3.379  0.1378 -0.0406 -0.2155
21626W        W41160   9.038  13.648   0.079  0.1296  0.0551  0.0159
21627W        W41161  15.120  13.688  12.413 -0.0901  0.0373 -0.1697
21628W        W41162  14.878  17.902   1.721 -0.0604  0.0201 -0.2369
21629W        W41163   7.493   2.652  12.657 -0.3010  0.0602 -0.0344
21630W        W41164   2.898  12.706  12.029  0.5224  0.2235 -0.0926
21631W        W41165  15.009   3.158   3.723 -0.0308 -0.1266 -0.0633
21632W        W41166  10.822   0.591  12.625 -0.0274 -0.0488 -0.2189
21633W        W41167  16.204  15.395  12.262  0.1922 -0.0465  0.1462
21634W        W41168   6.758   6.300   3.052  0.2803  0.2772 -0.0283
21635W        W41169  10.859  14.034   3.639  0.1810  0.1391 -0.2100
21636W        W41170   1.087   1.985  13.712  0.1732  0.0518  0.2642
21637W        W41171   7.363  15.567   3.276  0.0197  0.2265  0.3264
21638W        W41172  17.109   6.775   3.103  0.1274 -0.0284 -0.0318
21639W        W41173   1.908  17.440  13.220 -0.2170  0.0168  0.2675
21640W        W41174   2.691   0.556   0.136  0.1590 -0.3829 -0.0118
21641W        W41175   2.367   8.105   1.615 -0.1945 -0.1736 -0.0848
21642W        W41176  12.663  13.898  15.153 -0.1087 -0.2478  0.1841
21643W        W41177  10.910  15.847   4.054 -0.1168  0.0256 -0.0663
21644W        W41178   3.110   0.484   1.996  0.0480 -0.0098  0.0147
21645W        W41179  14.057  11.974   4.232 -0.0725  0.0023 -0.0174
21646W        W41180   6.913  13.793   4.386 -0.1123  0.0482  0.0536
21647W        W41181  15.425   6.241  14.918  0.0291  0.0958 -0.3070
21648W        W41182   5.995  16.080   0.093 -0.1611  0.2693  0.1453
21649W        W41183  17.072  12.500  12.229 -0.2217 -0.0371  0.1647
21650W        W41184   3.776   1.187   3.634 -0.1689 -0.1065  0.1171
21651W        W41185   4.104   4.565   0.310  0.3268  0.2396  0.2361
21652W        W41186   2.585   3.631   2.120  0.1033 -0.2075 -0.1119
21653W        W41187   6.580   3.907   2.989  0.0218  0.0536 -0.1503
21654W        W41188  13.766   6.815   1.631  0.1485 -0.0867 -0.2740
21655W        W41189   0.520  10.915  14.546 -0.5770  0.2137 -0.3376
21656W        W41190   6.761   7.726   3.465 -0.0945 -0.2211  0.0622
21657W        W41191   9.496   7.511   3.409  0.2904 -0.1244 -0.3479
21658W        W41192  16.970  10.881   3.838  0.0980 -0.0269  0.1618
21659W        W41193  15.538  15.714   1.954  0.0771  0.3336 -0.0137
21660W        W41194   6.160  11.081   2.241  0.0100 -0.1298 -0.0743
21661W        W41195   2.782   5.226  12.408 -0.1447 -0.0816 -0.2375
21662W        W41196  16.212   2.355  12.880  0.1539 -0.0359 -0.0417
21663W        W41197  12.080  16.602  16.019 -0.0753  0.0903  0.1641
21664W        W41198  13.943  15.555   1.965 -0.2061  0.2294 -0.2618
21665W        W41199   6.314  11.599   3.939  0.0015 -0.0854  0.0383
21666W        W41200  16.994  18.126   3.659  0.1077 -0.0518  0.1540
21667W        W41201   3.128   5.314   2.155  0.3940  0.0620 -0.1182
21668W        W41202  11.313  18.013   3.361 -0.1541 -0.0626  0.1361
21669W        W41203  13.089  16.325   2.741  0.2239  0.1187  0.1691
21670W        W41204  17.765   9.504  13.609  0.1748  0.0018 -0.0268
21671W        W41205   7.234  10.823   4.463  0.2269 -0.3391  0.0004
21672W        W41206   2.217   6.458  12.746 -0.1208  0.3738 -0.3154
21673W        W41207  16.929  16.479   1.314  0.3412  0.1145 -0.1065
21674W        W41208  18.140  11.956  14.614 -0.0678  0.2045 -0.1008
21675W        W41209  15.023  13.068  13.434  0.0672 -0.0953 -0.1330
21676W        W41210  14.002  14.718  11.239 -0.0229 -0.0123 -0.0622
21677W        W41211  15.960  12.446   1.850  0.1521  0.1847  0.0724
21678W        W41212   4.757   0.859   1.044  0.0767 -0.0107 -0.0799
21679W        W41213   6.682  14.346   2.184 -0.1210  0.2115  0.1892
21680W        W41214   5.876  15.288  14.595 -0.3664  0.1391  0.0293
21681W        W41215   1.797  15.094   2.207 -0.1952  0.1251 -0.1253
21682W        W41216   9.496  16.507  15.286  0.0082 -0.3836 -0.0239
21683W        W41217   3.985  10.853   2.098 -0.2116 -0.0043  0.2017
21684W        W41218   1.469   6.713   1.802 -0.0955  0.1054 -0.3396
21685W        W41219  15.990   2.211   3.339 -0.2355  0.0356  0.1030
21686W        W41220   4.076   9.909   2.154 -0.0542 -0.2787  0.1506
21687W        W41221   9.047  14.662  12.217 -0.2263  0.0312  0.1754
21688W        W41222   2.193   8.572  14.359  0.3642 -0.0143 -0.3213
21689W        W41223   8.800   3.993  14.044 -0.1117 -0.1994  0.1585
21690W        W41224  16.867  10.077   1.479 -0.0240  0.1159  0.0309
21691W        W41225  14.459  12.727  12.193 -0.0334 -0.1290  0.1849
21692W        W41226   5.257  13.284  14.442 -0.1741  0.2947 -0.1973
21693W        W41227   3.667  13.032  13.973  0.0709 -0.1873 -0.1570
21694W        W41228   4.919  16.271  14.609  0.1314 -0.3436  0.0303
21695W        W41229   5.817  13.889  15.810 -0.2273  0.1298  0.0792
21696W        W41230  17.601   1.218   2.956 -0.1057 -0.1059 -0.3710
21697W        W41231   2.688  14.665   3.516  0.1711 -0.0365 -0.1229
21698W        W41232   5.293   3.105   1.620 -0.0713 -0.0066  0.2288
21699W        W41233   1.652   9.564  12.446  0.0273  0.0587  0.1760
21700W        W41234   6.148   4.160   3.058  0.0760  0.2419 -0.1040
21701W        W41235   2.464  11.116   3.115 -0.0341 -0.3005  0.0926
21702W        W41236  12.134   3.452  12.248  0.2853  0.0767  0.0107
21703W        W41237   9.346   5.105  13.882  0.1337  0.2793 -0.0226
21704W        W41238   5.771  11.632   2.650  0.1112  0.1307 -0.2139
21705W        W41239   6.914   5.662  11.169 -0.0218  0.2054  0.1190
21706W        W41240   1.163  17.712   1.040 -0.2817 -0.0018 -0.0237
21707W        W41241   9.900  14.434  13.816  0.2064  0.3249 -0.1228
21708W        W41242  10.225   4.983  11.473 -0.0452  0.1129  0.1104
21709W        W41243  14.466   4.118  14.684  0.1813 -0.1011  0.0078
21710W        W41244   4.411  12.313   0.515  0.1412  0.0454  0.0284
21711W        W41245   6.673   5.441  11.576  0.0350  0.1643 -0.0400
21712W        W41246   4.802   0.086   4.230 -0.4225 -0.1096  0.3539
21713W        W41247   1.360  16.157  13.212 -0.0105 -0.1503  0.1572
21714W        W41248  13.105   0.871  16.055  0.2011 -0.0011  0.1144
21715W        W41249  11.919  11.922  14.551  0.0160 -0.0055  0.1064
21716W        W41250  14.221   1.249  11.176  0.0995  0.1079 -0.2579
21717W        W41251  14.548  14.785  13.961  0.0652 -0.0286  0.0577
21718W        W41252   9.813  11.546   1.287 -0.2022 -0.1503 -0.2057
21719W        W41253  13.124  11.358  15.934 -0.0823 -0.0273  0.1148
21720W        W41254  11.198   1.233  15.227 -0.0745 -0.0566 -0.1438
21721W        W41255   9.510  14.741   4.302 -0.0884  0.0740 -0.0017
21722W        W41256  15.993  14.969  13.461 -0.3667  0.2776 -0.1611
21723W        W41257  11.842  16.565  13.959 -0.0914  0.1091 -0.2106
21724W        W41258   4.850  14.624  13.605 -0.1843  0.2922 -0.0405
21725W        W41259  14.612   9.203  15.878 -0.1516  0.0696 -0.2378
21726W        W41260  15.713   8.136   0.280 -0.0200 -0.2846  0.2749
21727W        W41261  13.996  17.217  12.492 -0.0675 -0.4010 -0.0459
21728W        W41262   7.966   0.287   0.709 -0.1802  0.0534 -0.1396
21729W        W41263  16.435   4.373  11.714 -0.1593  0.1793 -0.3368
21730W        W41264  10.736   0.389   0.346 -0.2356 -0.1492  0.2253
21731W        W41265  11.588  10.984  14.550  0.0234  0.0005  0.1276
21732W        W41266  16.787  14.416  14.293  0.0172 -0.0523 -0.0393
21733W        W41267   6.860   5.696  13.875 -0.0863 -0.0211 -0.2725
21734W        W41268   0.955   4.983   1.373 -0.0867  0.1349 -0.3061
21735W        W41269  12.894   3.731  15.391  0.4587  0.0003 -0.1675
21736W        W41270  15.534   9.317  12.628  0.1882 -0.1260  0.2515
21737W        W41271   3.070   2.592   1.976  0.4592 -0.0152  0.2463
21738W        W41272  11.463   5.937  14.156 -0.6344  0.0250 -0.1182
21739W        W41273  17.901  12.363  14.845  0.0433  0.0385 -0.0604
21740W        W41274   2.473   6.285   1.626 -0.4413  0.0247 -0.2821
21741W        W41275  11.297  13.199   4.487 -0.3215  0.0499 -0.2189
21742W        W41276  10.622   0.700   1.442  0.1143 -0.0155  0.0162
21743W        W41277   3.043  17.652  14.224  0.1628  0.0455 -0.1543
21744W        W41278   0.063  16.561  13.135 -0.1770 -0.1943 -0.1444
21745W        W41279  11.380   4.614  15.171 -0.0427  0.1219  0.0619
21746W        W41280   4.317  10.089   1.642 -0.0718 -0.0249 -0.0455
21747W        W41281   2.499  15.512   3.253  0.2499  0.1341  0.0863
21748W        W41282  11.202   3.921   3.868 -0.0766  0.0344 -0.1367
21749W        W41283  11.589  10.343   1.333  0.1091 -0.3332 -0.0248
21750W        W41284   6.246  12.570  13.827 -0.2781 -0.0372  0.1604
21751W        W41285  10.215   5.282   0.375  0.0649  0.1115 -0.0946
21752W        W41286  16.435   5.180   1.657  0.0621  0.1927 -0.1116
21753W        W41287  13.839   0.322  14.305  0.3227 -0.2869 -0.2777
21754W        W41288  16.608   7.233  11.616 -0.0880  0.1800  0.1079
21755W        W41289   9.069   3.679  11.096  0.3440 -0.0176 -0.0986
21756W        W41290  14.834   8.452  13.368 -0.0513  0.2857 -0.0200
21757W        W41291  12.648  17.008   0.581 -0.1437 -0.1123  0.3338
21758W        W41292  14.317  14.353   0.570  0.1400  0.0734  0.1986
21759W        W41293   8.924   5.084  16.034  0.1123  0.0534  0.0702
21760W        W41294   9.913   1.892  13.833  0.2517  0.1222  0.3221
21761W        W41295   9.290  12.337   1.268  0.1223 -0.1059  0.1549
21762W        W41296  17.215  12.242   2.738  0.2155 -0.2974 -0.1318
21763W        W41297  10.198  16.931   3.982  0.0612  0.0537 -0.0631
21764W        W41298   7.093   8.444   1.588 -0.0139 -0.0985  0.4344
21765W        W41299   1.782   4.264   3.667  0.1386 -0.1258  0.3533
21766W        W41300   8.181  12.306   2.328  0.1408  0.2299  0.0623
21767W        W41301   2.578  17.241  11.884 -0.0158  0.1064  0.2327
21768W        W41302   0.294   3.331  13.769 -0.0651  0.0276 -0.0709
21769W        W41303  11.216   6.576   2.891  0.1030 -0.0460 -0.1708
21770W        W41304   5.190  14.687  15.465  0.1991 -0.2937  0.4059
21771W        W41305  11.802  16.000  12.371  0.1896  0.2768  0.2768
21772W        W41306  15.118  14.444   2.473  0.1031 -0.0805 -0.0693
21773W        W41307   5.534  11.395  14.365 -0.2450 -0.1390  0.1407
21774W        W41308   1.563   4.420   1.947 -0.4071 -0.5802 -0.3150
21775W        W41309  10.597   3.472  13.742 -0.0419 -0.1554  0.1535
21776W        W41310   6.820   9.601  11.887  0.1909 -0.3728  0.0769
21777W        W41311  10.559   3.804   1.543  0.1021  0.1263 -0.0008
21778W        W41312   3.931   4.368   1.485  0.2979  0.2393  0.3474
21779W        W41313  15.597   6.546   4.423  0.0536 -0.1100 -0.0518
21780W        W41314  14.308   3.655  14.830 -0.0076  0.0988 -0.1157
21781W        W41315   4.281  17.918  10.924  0.1405  0.3498  0.1413
21782W        W41316   1.361  16.790   3.248  0.1075 -0.0811 -0.1684
21783W        W41317  17.750   1.932   0.389  0.0779  0.2762 -0.1345
21784W        W41318  15.443  11.845  13.713  0.2058  0.2049  0.2553
21785W        W41319   5.823  16.208   3.296  0.0293  0.1373  0.1124
21786W        W41320  11.051   8.429   4.837  0.1179 -0.2472 -0.1648
21787W        W41321  10.012   8.807  12.058  0.3347 -0.0124  0.2229
21788W        W41322   3.928  14.904  14.482 -0.3407  0.0660  0.0493
21789W        W41323   8.103   8.573  16.032  0.1088 -0.1398  0.2417
21790W        W41324  10.821   9.205  12.412 -0.0974  0.2230  0.1379
21791W        W41325  13.062   3.678   1.024  0.0018 -0.2950 -0.0448
21792W        W41326  12.721  13.152   2.964  0.4434  0.2797 -0.0201
21793W        W41327   6.078  16.459  12.406 -0.1323 -0.1500 -0.3298
21794W        W41328  12.224   7.255  15.060 -0.0932 -0.0018 -0.0855
21795W        W41329   9.863  14.458   2.117 -0.0477  0.2568  0.0327
21796W        W41330  16.319  12.927   0.108  0.2050 -0.0516 -0.0456
21797W        W41331  14.562   5.068  13.333 -0.0925  0.1608 -0.3463
21798W        W41332  11.869  12.321   4.658  0.0546 -0.3252 -0.2018
21799W        W41333   7.788   3.554  16.049  0.0553  0.3574  0.1165
21800W        W41334   1.510   8.173   1.798  0.0978  0.0717 -0.1942
21801W        W41335  13.472  11.637   4.513  0.0625 -0.5439  0.0342
21802W        W41336   2.630   2.593   3.317 -0.1495 -0.1370  0.1459
21803W        W41337   3.673   4.916  11.858  0.2252 -0.0275  0.0509
21804W        W41338  14.373   0.130   4.199 -0.0689  0.0073 -0.0161
21805W        W41339  16.598   6.506   4.559  0.0756 -0.1677  0.1873
21806W        W41340  17.380  16.377   1.113  0.0536  0.3773  0.2396
21807W        W41341  11.993   9.776   5.863 -0.0191  0.1662 -0.1487
21808W        W41342   6.303   1.724   1.587  0.1497  0.1491  0.1737
21809W        W41343  17.928   9.518   4.487 -0.2854 -0.1910 -0.0919
21810W        W41344   9.713   2.071   1.627  0.0741  0.0631  0.0838
21811W        W41345   8.418  12.553   0.237 -0.0635  0.1424  0.1239
21812W        W41346  10.460   7.574  11.631 -0.1336 -0.1933  0.2077
21813W        W41347  10.475   0.478   0.729 -0.4695 -0.1106  0.1627
21814W        W41348  12.626   2.499   2.859 -0.1118  0.1742  0.2386
21815W        W41349  17.667  16.290   4.445 -0.1177  0.2599 -0.1307
21816W        W41350  14.042  15.632   0.114  0.1135  0.0557 -0.1054
21817W        W41351   8.696  17.871   1.498 -0.1327 -0.2258 -0.3010
21818W        W41352   5.531  13.389  11.681  0.1571 -0.2077 -0.1167
21819W        W41353   0.087   3.409   1.377 -0.1540 -0.0515  0.0104
21820W        W41354   0.638  12.430  11.877 -0.1914 -0.1548  0.0244
21821W        W41355  16.316  17.724   3.363 -0.3299  0.0629 -0.1252
21822W        W41356   9.401   2.644   4.968  0.1013  0.0735  0.3157
21823W        W41357  17.049   4.717   3.552  0.0979 -0.3036 -0.0560
21824W        W41358  16.904  16.074  11.678 -0.0173  0.1040 -0.2568
21825W        W41359  15.336  13.111  14.372  0.1941 -0.0890  0.5015
21826W        W41360   0.548   6.647  15.956  0.1125  0.1675  0.1054
21827W        W41361   0.735   3.687  13.120 -0.1847 -0.3604  0.2689
21828W        W41362   8.915  12.181  12.990  0.2256 -0.1157  0.2416
21829W        W41363  15.009  17.124   4.242 -0.0153  0.2920  0.2869
21830W        W41364  16.462  16.686  12.575  0.3777 -0.0164 -0.2055
21831W        W41365   8.427  12.118  13.151  0.1112  0.1141  0.1616
21832W        W41366   6.567  10.675  12.249 -0.2631  0.0004 -0.0583
21833W        W41367   5.962  11.918   1.864  0.0034  0.1174 -0.3004
21834W        W41368  16.893  17.015   3.024  0.0604 -0.0739 -0.0910
21835W        W41369   6.972  14.548  14.057  0.0128 -0.2911  0.1747
21836W        W41370  12.664   4.130  14.207 -0.2123  0.1253  0.0812
21837W        W41371  16.680  13.450   3.848 -0.2227 -0.0189 -0.2057
21838W        W41372  11.866   5.666  15.117  0.2220  0.1582 -0.2454
21839W        W41373  12.890  14.306   3.598 -0.1384 -0.1426  0.0917
21840W        W41374   0.335  16.823  14.683 -0.1853 -0.1555  0.0456
21841W        W41375  18.104  13.764   3.715 -0.0493  0.3278  0.1605
21842W        W41376   0.946   2.132  14.439  0.1678 -0.1360 -0.0344
21843W        W41377   7.384  17.492  14.542  0.1103  0.0900  0.2009
21844W        W41378  10.207   9.669   0.506  0.1049 -0.1119 -0.1454
21845W        W41379  15.255  15.445   0.655 -0.0691  0.0739 -0.0604
21846W        W41380  15.706  17.713   2.933 -0.1496 -0.3264  0.0292
21847W        W41381  11.140  17.833  14.029 -0.0540  0.0780  0.1826
21848W        W41382   0.674   4.528  16.013  0.3849 -0.2177 -0.2217
21849W        W41383  15.224  14.099   0.251  0.1687  0.0541  0.1890
21850W        W41384   0.178   8.320  14.885  0.1007  0.2131 -0.2323
21851W        W41385  16.908  17.620  15.246 -0.0764  0.0601 -0.2063
21852W        W41386   1.294   1.160  14.650  0.0076 -0.0864  0.3159
21853W        W41387   4.148  16.325   3.987  0.1992 -0.0324 -0.0935
21854W        W41388  17.459  11.307   2.356 -0.3228 -0.1435 -0.3928
21855W        W41389  13.172   4.788  14.351 -0.0338 -0.0096  0.0480
21856W        W41390   4.931   5.230   1.014  0.0974  0.2783  0.1271
21857W        W41391   8.062   8.559   2.942  0.2357 -0.2097 -0.1911
21858W        W41392  15.763   7.231   0.211 -0.0197  0.1593  0.2790
21859W        W41393   2.123  11.377   1.775 -0.0819 -0.1458  0.1397
21860W        W41394   8.900  14.145   0.109  0.3110  0.3661  0.3524
21861W        W41395   8.815   5.121  14.558 -0.1725  0.0660 -0.1737
21862W        W41396   4.789   8.333   3.590  0.0249 -0.1331  0.2721
21863W        W41397  10.837   9.090  11.899 -0.0986 -0.0467  0.2151
21864W        W41398   9.657  13.301  14.856 -0.2956 -0.0598  0.1372
21865W        W41399  13.421   2.396   1.584 -0.1898 -0.1093 -0.2201
21866W        W41400  10.304   3.169   3.044 -0.3719  0.1513  0.1457
21867W        W41401  12.963  14.303   4.134  0.0207  0.1232  0.0355
21868W        W41402  15.868  15.743  13.840 -0.2333  0.0192 -0.0826
21869W        W41403   7.479   5.785  11.641 -0.1961 -0.1073  0.1129
21870W        W41404  14.154  18.014  16.029 -0.2086 -0.0627  0.3889
21871W        W41405   5.530   6.356  11.929 -0.1162 -0.2471 -0.1800
21872W        W41406  15.466  18.058  13.598 -0.2335 -0.0177  0.2309
21873W        W41407  17.843  12.461   0.463 -0.0012  0.0362 -0.1780
21874W        W41408  16.239   5.688   2.367 -0.1003  0.5629 -0.0087
21875W        W41409   8.235   9.571   5.146 -0.0575 -0.3406 -0.2615
21876W        W41410  13.831   8.435   2.681  0.1168  0.0293  0.1707
21877W        W41411   3.681   1.385   4.514 -0.1545 -0.0689 -0.1127
21878W        W41412   7.979   5.902  13.913  0.0764  0.3474  0.0158
21879W        W41413   3.661   2.768   3.736  0.1916  0.1492  0.2251
21880W        W41414  17.797   9.700  15.887 -0.0220  0.1911  0.2416
21881W        W41415  13.944   2.382   3.949 -0.3057  0.2656  0.1947
21882W        W41416   2.396   9.491   1.403 -0.1350  0.1025  0.1068
21883W        W41417   5.857   9.385   3.748 -0.0400  0.0722 -0.2291
21884W        W41418   9.039   7.500   2.173 -0.0970  0.0905  0.1642
21885W        W41419  10.089  10.567   2.256  0.1147  0.1513 -0.0347
21886W        W41420   0.454   1.647  15.005  0.1508 -0.0421 -0.1189
21887W        W41421   9.068   2.993  12.648  0.1340 -0.1077 -0.0906
21888W        W41422  13.791  13.758  13.096  0.0312 -0.0716  0.0871
21889W        W41423  10.828  16.895   0.722 -0.0845  0.1761  0.1761
21890W        W41424   9.623   2.114  13.519  0.1776  0.1181  0.3288
21891W        W41425   5.554   1.001  15.846  0.0115  0.3890 -0.0066
21892W        W41426  14.501  17.851   2.611  0.0435 -0.1401  0.3075
21893W        W41427   7.821   8.024   0.678 -0.0185  0.0982 -0.1002
21894W        W41428   9.359   7.958   3.264  0.1316  0.0686 -0.1228
21895W        W41429   6.507  13.309   5.344  0.1628  0.1916 -0.2240
21896W        W41430  17.573   1.534  15.295 -0.1691 -0.1842 -0.1334
21897W        W41431  16.329   4.412  15.492 -0.1469 -0.1150  0.3457
21898W        W41432   6.800  12.467  15.879  0.0715  0.0023  0.0196
21899W        W41433   1.915   8.164  15.068  0.1256  0.0986 -0.0850
21900W        W41434  17.537  16.826  15.121 -0.1320 -0.0145 -0.1988
21901W        W41435   3.505   5.094   2.388 -0.4875  0.1095  0.0313
21902W        W41436   0.550   8.554   0.054  0.0974  0.1861 -0.2288
21903W        W41437  15.799  14.745  11.694  0.1239 -0.0105  0.4690
21904W        W41438  16.199  10.957  14.809  0.3874  0.1846  0.2336
21905W        W41439   0.252  15.259  12.033 -0.0163 -0.1163  0.0064
21906W        W41440   7.987   3.866   2.428 -0.2945  0.0857  0.2823
21907W        W41441  10.600  12.733   0.034  0.2974  0.2654 -0.1142
21908W        W41442  16.701  11.726  14.036  0.0604 -0.0592  0.2191
21909W        W41443  17.278  17.250  15.990  0.1735 -0.2604  0.3719
21910W        W41444  16.314   3.619   1.691 -0.1522  0.0165 -0.0708
21911W        W41445   4.783  13.617   0.848  0.2130  0.0205  0.2412
21912W        W41446   3.950   8.309  14.403  0.0414 -0.0277 -0.0122
21913W        W41447   7.935  12.857   2.717 -0.1201 -0.3593  0.1078
21914W        W41448   3.452  14.921  14.709  0.0836  0.1227  0.1629
21915W        W41449  12.607  12.389  11.674 -0.3977  0.0470 -0.0996
21916W        W41450  12.298   9.287   1.832  0.0255  0.2799  0.0552
21917W        W41451   0.432  15.581   1.547  0.1083 -0.2555 -0.0981
21918W        W41452   9.985   1.221   1.506 -0.1527  0.0655 -0.2639
21919W        W41453   3.726  17.011   1.959  0.0838 -0.0861  0.0429
21920W        W41454  11.849  17.367  14.269 -0.2529  0.1687  0.1812
21921W        W41455   6.787   7.909  12.537  0.1620 -0.0412 -0.1513
21922W        W41456   7.521  11.415  11.631  0.0031  0.0402  0.0153
21923W        W41457  17.305  13.117  13.375  0.0555  0.1926  0.3919
21924W        W41458   0.719   0.362  11.515 -0.0608 -0.1885 -0.0234
21925W        W41459   7.486   2.954  11.526 -0.2291  0.0177  0.0578
21926W        W41460   4.709   5.496  15.227 -0.2236 -0.0322 -0.6085
21927W        W41461   4.558   2.132   2.214 -0.0723 -0.1400 -0.2720
21928W        W41462   9.102  17.879  12.205  0.1121  0.0165 -0.1115
21929W        W41463   8.377  17.885   3.734 -0.0321  0.1460  0.2769
21930W        W41464  11.407   6.108  13.681  0.2473  0.0433 -0.0895
21931W        W41465   2.176   2.504   2.559  0.2058 -0.0770 -0.0906
21932W        W41466   4.009   9.745  13.342  0.2214 -0.2325  0.2500
21933W        W41467   6.396  17.524  14.238 -0.0888 -0.1282  0.1528
21934W        W41468  10.137   1.253   3.023  0.4026 -0.1272 -0.0919
21935W        W41469   2.681  10.385   1.666 -0.1231  0.0225  0.0037
21936W        W41470   1.352  10.369  14.029 -0.1624 -0.2075  0.0785
21937W        W41471   0.355  12.248   0.426  0.1750  0.0148  0.0943
21938W        W41472   1.913  11.593  13.023  0.0543 -0.1494  0.0083
21939W        W41473  17.140   1.475  13.100 -0.2479  0.2713 -0.1255
21940W        W41474   1.344  14.186  12.163 -0.0672 -0.1887 -0.0654
21941W        W41475   5.537  11.926  14.906  0.0214 -0.0347  0.0337
21942W        W41476   2.528  13.468  13.284  0.2403  0.0992 -0.3790
21943W        W41477   9.911  13.626   2.672 -0.2402 -0.2004 -0.1348
21944W        W41478  17.601   2.431   3.674 -0.1184 -0.3248 -0.2863
21945W        W41479   5.843  15.892   4.252 -0.1167  0.1516  0.0853
21946W        W41480  15.393   7.546   2.187  0.1032  0.0097 -0.2846
21947W        W41481  17.175  17.971  11.898 -0.0859 -0.2641 -0.1444
21948W        W41482   2.926   9.338   4.442  0.0658  0.1203  0.0043
21949W        W41483  13.576   6.825  10.936  0.0836  0.0978  0.5074
21950W        W41484   8.158   8.326  15.056  0.0727  0.1628  0.0336
21951W        W41485  13.238  11.064  13.547 -0.0985  0.1882 -0.0609
21952W        W41486   6.035   4.960  15.871  0.0607 -0.0365 -0.1133
21953W        W41487   4.089   1.490   0.745  0.1310  0.0439  0.1669
21954W        W41488  17.008   9.196  12.342 -0.3171 -0.1476  0.0071
21955W        W41489   4.579   0.075   1.556 -0.0265  0.1447 -0.1563
21956W        W41490  12.214  16.435   4.200  0.0748  0.0344  0.2059
21957W        W41491  17.564   5.958  14.254  0.1311  0.0881 -0.0755
21958W        W41492  17.220   9.874   1.781  0.1427  0.2916  0.0605
21959W        W41493  13.325  10.473  14.455  0.0997 -0.2135  0.1388
21960W        W41494   1.933   3.581  10.920  0.2519 -0.0932  0.0420
21961W        W41495   2.349  14.108   2.518 -0.4190  0.1147 -0.0954
21962W        W41496   0.637  14.519  15.303  0.1284  0.0027  0.0787
21963W        W41497   3.052  10.218   0.387  0.0980  0.3108 -0.2206
21964W        W41498   2.702  14.828   2.074 -0.2099  0.1669 -0.0932
21965W        W41499  13.211  10.339  11.833  0.0608 -0.0284  0.1390
21966W        W41500   5.957   8.133  14.792 -0.0627  0.0870  0.0613
21967W        W41501   1.585   2.963   4.262  0.1368 -0.2438  0.1108
21968W        W41502  15.912  12.451   0.939 -0.0801 -0.0914  0.0497
21969W        W41503   4.118  15.768  13.344  0.0199 -0.0148 -0.1993
21970W        W41504  10.371  10.673   2.655 -0.1906  0.0874 -0.0434
21971W        W41505   3.445  16.716  12.702  0.0100 -0.0548 -0.3234
21972W        W41506   1.731  11.292   1.011  0.0682 -0.3242  0.0917
21973W        W41507  14.660   7.410   1.388  0.0227  0.0229 -0.1336
21974W        W41508  16.694  17.362  14.396 -0.0296  0.0555 -0.3305
21975W        W41509   7.016   2.498  14.915 -0.2184 -0.0477 -0.1270
21976W        W41510   1.704  10.172  11.797  0.1061 -0.0347  0.0507
21977W        W41511   3.768  17.331  11.411  0.1902 -0.0860  0.2224
21978W        W41512  10.753   4.493  12.405 -0.0081 -0.1592  0.4071
21979W        W41513   8.077   5.810   0.447  0.0485 -0.1301  0.0376
21980W        W41514   6.327   5.409   3.729 -0.0108  0.0445  0.1468
21981W        W41515  11.529   6.979   3.725  0.1390  0.0713 -0.3878
21982W        W41516   4.016   9.828   2.649 -0.2085  0.1307  0.0606
21983W        W41517  14.031   3.803  15.242  0.1472  0.4158  0.0144
21984W        W41518  16.994   7.621  14.215 -0.1008  0.0780  0.2337
21985W        W41519   2.885   6.302  12.429 -0.3385 -0.1986  0.3846
21986W        W41520   3.560   0.645   4.130 -0.0316 -0.2051  0.0148
21987W        W41521   8.159  17.092   2.347  0.0350 -0.0501 -0.1692
21988W        W41522   8.071   4.390  14.872  0.0882  0.0969  0.0419
21989W        W41523  12.695   8.781  14.276 -0.0365 -0.2247  0.3014
21990W        W41524   4.136   9.708  11.965  0.2326 -0.4976 -0.3352
21991W        W41525  10.996   7.802  13.415 -0.1492 -0.1143 -0.0630
21992W        W41526  11.009   2.223   3.396  0.1828  0.2031  0.2389
21993W        W41527  12.561  14.425   0.837  0.1795  0.0975 -0.0736
21994W        W41528  10.473   8.623  15.477 -0.1807 -0.0720  0.0710
21995W        W41529  13.152   4.793   3.775  0.1834  0.2311  0.2734
21996W        W41530   6.493  14.398   1.605  0.0111  0.2339  0.2768
21997W        W41531  12.669   0.296   3.368  0.0997  0.3102  0.0371
21998W        W41532   8.685  11.418  13.867  0.1651  0.0786  0.2860
21999W        W41533  16.127   7.366  14.813  0.0022 -0.0964  0.2283
22000W        W41534  13.081   4.510   1.446 -0.0885 -0.0341  0.0157
22001W        W41535   0.779  13.240   3.731  0.0463 -0.0223  0.3347
22002W        W41536   3.691   6.276  15.621  0.1295  0.3120  0.0505
22003W        W41537  15.345   7.092  14.162 -0.1273 -0.3007  0.1334
22004W        W41538  18.032   4.565   0.272 -0.1938  0.0614 -0.1273
22005W        W41539  12.696   7.788  13.359  0.1926 -0.1428  0.1057
22006W        W41540  16.342   5.072  10.345  0.1846  0.2939 -0.2069
22007W        W41541  18.065   4.075   0.332  0.0459 -0.0079  0.0250
22008W        W41542   5.070   2.659  14.062  0.3891 -0.3364 -0.0803
22009W        W41543   4.921   3.158  14.184 -0.1923 -0.3238  0.1498
22010W        W41544  14.619  16.584  12.730 -0.1407  0.0405  0.0168
22011W        W41545  16.837  16.846   4.223  0.2059  0.0258  0.0907
22012W        W41546  16.420  15.083   1.735  0.0781 -0.1946 -0.0190
22013W        W41547  14.547  13.498  15.554  0.0083 -0.1080  0.0223
22014W        W41548   8.759  11.536   3.655  0.1063 -0.0746 -0.0594
22015W        W41549   8.555   1.220   2.055 -0.3926 -0.0248  0.2460
22016W        W41550  14.713   1.897  15.930 -0.0264  0.3124  0.0851
22017W        W41551   6.989   2.657  12.778  0.0092 -0.2229 -0.2210
22018W        W41552   6.701   6.049  12.932  0.2069 -0.2358 -0.1053
22019W        W41553  16.574  13.175  13.897  0.0938 -0.0520 -0.1710
22020W        W41554  16.954  13.052  12.344 -0.2279 -0.1892  0.0877
22021W        W41555  15.343  12.526   4.270 -0.1689 -0.2402  0.2197
22022W        W41556  16.286   8.630   1.752 -0.0637 -0.0667 -0.2379
22023W        W41557   2.953  15.997  12.254 -0.2981 -0.0803  0.1234
22024W        W41558   8.538   8.835   0.120  0.1140  0.0264  0.1238
22025W        W41559  11.014   5.710  14.017  0.1426 -0.2240 -0.2471
22026W        W41560  17.952  17.576  11.471  0.0553  0.1896 -0.1038
22027W        W41561  13.969  12.360   4.744 -0.1384  0.1274 -0.1989
22028W        W41562  12.831  17.210   1.014  0.3414  0.0369  0.0729
22029W        W41563  14.624   6.603  14.654  0.2718 -0.0574  0.0077
22030W        W41564  10.988   5.874   0.565  0.0832 -0.2855 -0.0418
22031W        W41565   9.154   8.148  14.011 -0.1041 -0.1161 -0.1399
22032W        W41566  17.687   2.736   1.405 -0.0975 -0.2451 -0.2480
22033W        W41567   6.211   0.213  12.079 -0.0191 -0.1768  0.0352
22034W        W41568   0.636  17.801   1.278  0.0739 -0.2624 -0.0655
22035W        W41569   7.074  13.928   3.843  0.0370  0.0498 -0.1857
22036W        W41570   1.760  15.705  13.687 -0.0668  0.4107  0.0719
22037W        W41571   8.138  14.223  13.567 -0.3185 -0.1282 -0.0346
22038W        W41572  12.879   3.650  12.676  0.2422 -0.0841 -0.0502
22039W        W41573   3.515  15.198  15.105 -0.2038 -0.0756  0.2760
22040W        W41574  15.769   8.132   4.221  0.2067 -0.2398  0.2969
22041W        W41575  16.273  17.823  10.835  0.1788 -0.1607  0.1127
22042W        W41576  16.073   2.089  15.143  0.2674  0.1216 -0.0485
22043W        W41577  14.443   9.701   0.826 -0.1787 -0.3129  0.0793
22044W        W41578   4.957   3.342  12.755  0.0580  0.2226  0.2505
22045W        W41579  14.821  10.131  11.501 -0.1570 -0.0999 -0.0520
22046W        W41580  15.499   3.179  15.346 -0.1020  0.0597  0.1619
22047W        W41581   4.238   2.564  13.874 -0.2323 -0.0013 -0.1443
22048W        W41582   6.832  16.054   3.880  0.0117 -0.2199 -0.0092
22049W        W41583  10.440   5.568   1.576  0.0841  0.0949 -0.0855
22050W        W41584  10.566   2.113  12.054 -0.0292 -0.0231  0.1216
22051W        W41585   2.383   0.769   3.798 -0.1365 -0.1897 -0.0886
22052W        W41586   8.033   9.532  13.165 -0.3501 -0.1696  0.0422
22053W        W41587  14.607   3.299  13.865  0.1392 -0.1092  0.1810
22054W        W41588   2.807  11.834   1.626  0.1694 -0.0831  0.0952
22055W        W41589  15.921   4.515   2.762  0.0215  0.1849 -0.1336
22056W        W41590   1.564   0.552  12.160  0.1730 -0.1185  0.0392
22057W        W41591   6.039  10.999   0.539  0.1483 -0.0024  0.1293
22058W        W41592   4.699  11.052  14.664 -0.1433  0.0049  0.2355
22059W        W41593   3.534   0.302  14.685 -0.1804 -0.0710  0.0810
22060W        W41594  14.559   3.937   5.652 -0.1364 -0.0791  0.2539
22061W        W41595   4.460  15.805  12.636 -0.2494 -0.1012  0.4669
22062W        W41596  14.660   4.964   0.391 -0.0736  0.0008 -0.2876
22063W        W41597   2.249   4.843  11.762  0.0511  0.0064 -0.3097
22064W        W41598  10.960   1.778  11.787  0.0838  0.2795  0.0615
22065W        W41599  11.660   2.121   0.109 -0.1944 -0.2579  0.0237
22066W        W41600   9.535   5.035  12.641  0.2187  0.0241 -0.0831
22067W        W41601  11.416   2.403  14.917 -0.0881 -0.0653  0.0629
22068W        W41602   5.592   0.002  15.851  0.2021 -0.3684 -0.1192
22069W        W41603   6.176  15.156   3.884 -0.0532  0.2219 -0.2232
22070W        W41604   1.418   0.283   3.947  0.2509  0.1150  0.0774
22071W        W41605  12.849   9.532  12.089  0.1801  0.0887 -0.0656
22072W        W41606  14.024   2.463  15.436  0.1290  0.0594 -0.2742
22073W        W41607   7.019   7.876   1.355  0.0883  0.0784 -0.2837
22074W        W41608   7.387   8.241   0.662  0.1133 -0.1423  0.0584
22075W        W41609  14.767   8.845  13.674  0.2139  0.2516 -0.1681
22076W        W41610   7.103  10.455  12.081 -0.2063 -0.0168  0.2247
22077W        W41611  17.916  15.415   1.820  0.1061  0.1630 -0.0510
22078W        W41612  12.888   3.307   3.212  0.2428 -0.0143  0.0949
22079W        W41613  17.872   2.195   2.000 -0.4720  0.4199 -0.0011
22080W        W41614  10.136   5.161  11.996 -0.0765  0.2342 -0.1034
22081W        W41615  14.886   2.552  14.479 -0.0089 -0.1314  0.3816
22082W        W41616   7.848   1.257   4.163 -0.1396 -0.0946  0.0718
22083W        W41617  16.055  11.860  10.720  0.1182  0.1632  0.5620
22084W        W41618  14.905   7.044  11.564 -0.0080  0.0161 -0.0034
22085W        W41619   1.839   9.198  12.100  0.2533  0.0918  0.0795
22086W        W41620   1.131  10.243  13.223 -0.3515  0.0802 -0.1876
22087W        W41621  14.929   2.182  15.294 -0.0039 -0.1255  0.0606
22088W        W41622  15.427   7.534  15.439 -0.0122 -0.0833  0.0589
22089W        W41623   8.758   5.641   3.687 -0.4223  0.0838  0.0194
22090W        W41624  12.264   1.819   4.136 -0.1228  0.3198  0.1117
22091W        W41625   0.150   7.610   1.508 -0.1310  0.0496  0.2303
22092W        W41626   8.205  15.261  15.019 -0.1114  0.0210 -0.0921
22093W        W41627   7.371  13.739   4.700 -0.2242  0.1017 -0.1962
22094W        W41628  16.103  10.490  11.606 -0.0370  0.0422  0.0764
22095W        W41629  10.901  11.948   0.605 -0.1121 -0.0717  0.0085
22096W        W41630  12.557  17.635   4.560 -0.0650  0.2906  0.2631
22097W        W41631   8.155   2.874   1.518  0.1570  0.2967 -0.1498
22098W        W41632  16.507   1.311   1.445 -0.2729  0.2241  0.0057
22099W        W41633   9.563  15.592  13.635 -0.0282 -0.4581  0.0398
22100W        W41634  10.814  16.520   2.439 -0.3016  0.1631 -0.2073
22101W        W41635   5.136  12.015   4.315  0.0576  0.2158 -0.0429
22102W        W41636   1.568   6.571   3.186 -0.0157 -0.1021  0.0030
22103W        W41637  13.362  13.959   0.431  0.0263  0.0391  0.0530
22104W        W41638   0.298   2.576  12.777  0.0388 -0.0913  0.1143
22105W        W41639  14.615  16.609  15.537 -0.1082  0.2067 -0.1009
22106W        W41640  13.413  10.066  11.133  0.0285  0.1019 -0.1322
22107W        W41641   9.850   1.883   0.693  0.2225 -0.1555  0.0359
22108W        W41642  11.606  11.474  11.500 -0.1799  0.2964  0.0095
22109W        W41643   3.873  14.272  13.137  0.0039  0.0546 -0.0266
22110W        W41644   6.638   2.249  12.095  0.1355 -0.1294 -0.1977
22111W        W41645  12.993   8.403  14.174  0.1188  0.0278  0.2611
22112W        W41646   0.438   9.256   4.837  0.0158 -0.2540 -0.1592
22113W        W41647  10.264  14.446   2.529  0.2878 -0.0557  0.1952
22114W        W41648  11.057  17.883   3.765 -0.0574  0.0860  0.0607
22115W        W41649   3.363   2.993  12.621  0.1964  0.0833 -0.3756
22116W        W41650  11.560   9.659  11.879  0.0753 -0.0119 -0.0071
22117W        W41651   8.761  17.008   1.886  0.1653 -0.2571 -0.0014
22118W        W41652   4.022   3.271   2.326  0.0062 -0.2158  0.0975
22119W        W41653   3.432   4.674  14.776  0.1200  0.0861 -0.0930
22120W        W41654   6.800   9.326   2.556  0.0061  0.0196 -0.1842
22121W        W41655  15.111  13.653   0.595  0.1323  0.0955  0.1585
22122W        W41656   6.879  16.953   4.823  0.1616  0.1842 -0.0793
22123W        W41657  16.325  16.895  15.243 -0.0861 -0.1171  0.2712
22124W        W41658  11.935   1.743   2.477 -0.0861 -0.0540  0.0193
22125W        W41659  10.173   3.963   3.529 -0.3749  0.2183  0.2498
22126W        W41660   2.185   3.013  12.521 -0.1191 -0.0553  0.1392
22127W        W41661   5.478   4.998  12.129  0.0013 -0.1656  0.0989
22128W        W41662   6.604   0.005  14.710 -0.2433  0.1429  0.0554
22129W        W41663  17.522   0.925   2.263 -0.1890  0.0091  0.1677
22130W        W41664   4.115  18.011   2.710 -0.1353  0.0377 -0.0857
22131W        W41665  14.882   6.869  12.009  0.0019 -0.2967  0.1105
22132W        W41666   0.766   5.607   2.161 -0.0133  0.3065 -0.1754
22133W        W41667  16.111   4.006   1.349  0.0336  0.0447 -0.0500
22134W        W41668  17.250   3.552   0.413 -0.0384 -0.2462 -0.0139
22135W        W41669  15.172  11.532   4.939 -0.0764 -0.1219 -0.1730
22136W        W41670  17.711   9.909   1.629  0.0764  0.1066 -0.1819
22137W        W41671  13.908   4.496   3.048 -0.1288  0.2233  0.2034
22138W        W41672   4.803   5.457  12.574 -0.0211 -0.0262 -0.1341
22139W        W41673   7.089  17.331   3.504 -0.0163 -0.0326  0.2437
22140W        W41674   3.169  13.975   1.806  0.1403  0.1290  0.0124
22141W        W41675   1.082   1.672  14.172 -0.0275 -0.1821 -0.1320
22142W        W41676   7.260   2.537  15.390  0.3907 -0.2033 -0.2191
22143W        W41677  12.133   0.080  12.047  0.1161 -0.2267  0.1434
22144W        W41678   3.695  11.344   3.632  0.2444 -0.2317  0.0151
22145W        W41679   2.160   6.725   2.520 -0.0463 -0.0321 -0.0725
22146W        W41680   1.215   7.380  13.907 -0.0921 -0.1100 -0.0098
22147W        W41681  14.257  15.059   2.186  0.0137 -0.1604 -0.1888
22148W        W41682   9.590   7.496  13.192 -0.1447  0.1761 -0.1820
22149W        W41683  13.283  12.549  11.000 -0.0682  0.0681  0.0987
22150W        W41684   2.462  11.517  11.975  0.2103  0.0287  0.0535
22151W        W41685  15.905   7.208  14.235 -0.1490  0.1453  0.1144
22152W        W41686  10.097  15.772   0.252 -0.0281  0.0405  0.2710
22153W        W41687   4.941   7.989  14.755 -0.0734 -0.1592  0.2695
22154W        W41688   6.851   7.630   4.274 -0.2275 -0.1371 -0.0541
22155W        W41689   4.146  12.543  14.623  0.0117  0.2545  0.3129
22156W        W41690  16.195  15.010   4.292 -0.4141  0.1203  0.2156
22157W        W41691  11.476  15.865  14.854 -0.2611 -0.0809  0.1480
22158W        W41692   2.356  17.642  12.042  0.0898 -0.0349 -0.0239
22159W        W41693  13.099  11.321  14.286  0.0456  0.0562 -0.2169
22160W        W41694   6.776   2.444   2.493  0.0711  0.0388 -0.2093
22161W        W41695   9.026   0.731  12.643 -0.0188  0.1931 -0.2034
22162W        W41696   0.493  15.039   4.214 -0.1836 -0.2610 -0.0350
22163W        W41697   8.344  14.672   4.190 -0.1688  0.2071 -0.0128
22164W        W41698   7.769  17.733   0.481  0.0310  0.0476  0.0870
22165W        W41699   4.626  17.892  13.315  0.1828 -0.2506 -0.3661
22166W        W41700   0.729   6.255   0.639  0.0865  0.0549 -0.1786
22167W        W41701   1.846  16.174   3.160  0.0437  0.1991 -0.1817
22168W        W41702   9.128   1.474   4.265 -0.0950 -0.1036  0.1568
22169W        W41703  12.159   1.256   4.270 -0.0708  0.1982  0.5116
22170W        W41704   8.316  10.093   2.598  0.2495  0.0349  0.0278
22171W        W41705  13.849   5.059   2.288 -0.1273 -0.0099 -0.0467
22172W        W41706  17.354  11.258  11.876  0.0476 -0.1314  0.0685
22173W        W41707   5.663   5.693  11.495 -0.0358 -0.2523  0.0142
22174W        W41708  13.001   0.483   0.418  0.1941 -0.0181  0.0822
22175W        W41709   7.892   2.626  11.636 -0.2445 -0.0218  0.0121
22176W        W41710   4.016  16.813   1.503  0.0291 -0.0397  0.1710
22177W        W41711  10.088  14.647  13.347 -0.0091  0.1770 -0.0292
22178W        W41712  15.051  12.677   2.216  0.0196 -0.3456  0.2448
22179W        W41713   3.523  14.181   0.349  0.0692 -0.2389 -0.1515
22180W        W41714   5.261   3.325  15.684  0.1629  0.0960 -0.1960
22181W        W41715   2.620   5.912   0.462  0.0151 -0.2187  0.0908
22182W        W41716   5.261  16.463   4.630  0.0454  0.0404  0.1429
22183W        W41717   4.731  12.138   3.122  0.1296 -0.0598  0.0312
22184W        W41718   5.218   9.123   2.542  0.3157 -0.2875 -0.0116
22185W        W41719   9.041   7.246   0.914  0.0500 -0.0139 -0.1048
22186W        W41720   8.939   6.594   1.022  0.0946 -0.0735 -0.0114
22187W        W41721   7.729   5.811   3.632  0.2696  0.0158  0.1665
22188W        W41722   1.520   9.072  15.306  0.1564  0.2724 -0.0818
22189W        W41723   0.622  10.452  12.430  0.0546 -0.0609 -0.1785
22190W        W41724  15.574   4.585   3.151 -0.2063  0.0654 -0.0199
22191W        W41725   3.249   8.623   2.950 -0.0988  0.4455 -0.2126
22192W        W41726  10.100   7.569  14.861  0.0424  0.0400  0.0474
22193W        W41727   5.483  11.112  12.684  0.1125 -0.1983 -0.4591
22194W        W41728  14.724   9.725   2.162 -0.1519 -0.3053  0.1393
22195W        W41729   4.796  16.679  12.683 -0.0718  0.1701 -0.2341
22196W        W41730  13.388  18.067  15.399 -0.1540  0.1072  0.0099
22197W        W41731   1.929  13.475  15.950 -0.2612  0.2490 -0.2049
22198W        W41732  12.445   3.174  13.464 -0.1420  0.2186 -0.0622
22199W        W41733  10.469   7.089  11.488  0.1332  0.1123  0.0070
22200W        W41734   0.899   7.759   3.293  0.0085 -0.1624  0.0277
22201W        W41735   4.977  16.822  15.853  0.1257  0.0159  0.1670
22202W        W41736  10.095   9.136   1.764 -0.0588 -0.0537 -0.0666
22203W        W41737   2.267   1.311   1.057  0.1174  0.0857 -0.1899
22204W        W41738  16.479   6.313  12.967 -0.6153  0.0857 -0.1368
22205W        W41739  11.486   2.016  13.821  0.0095 -0.2021  0.2048
22206W        W41740   7.426   7.671  15.921 -0.1459 -0.1720  0.1595
22207W        W41741   0.898  11.560   1.502  0.0141  0.0096  0.0981
22208W        W41742  17.676   0.550  15.693 -0.1788 -0.0069  0.1511
22209W        W41743  17.359  12.039   0.151 -0.0198  0.2195  0.1724
22210W        W41744   6.550   2.776  15.063  0.2976 -0.1277 -0.0552
22211W        W41745   3.720   7.584  13.262 -0.2081  0.0495 -0.0976
22212W        W41746  11.303   1.911   3.660 -0.1343 -0.0038 -0.2729
22213W        W41747  11.209  10.753  13.993  0.2012  0.0535 -0.3238
22214W        W41748   2.923  16.432   3.377  0.0258 -0.3556 -0.1619
22215W        W41749  13.238   7.060  12.360  0.0737  0.1241 -0.0563
22216W        W41750   9.718  17.059   0.996 -0.1117 -0.2983 -0.0400
22217W        W41751  15.067   3.676   3.834 -0.0978 -0.2608 -0.3140
22218W        W41752  17.317   0.762  12.361  0.0724  0.0357  0.2455
22219W        W41753   9.156  14.928   4.668 -0.0940  0.0518 -0.1811
22220W        W41754   2.409  13.618   1.745  0.0341  0.0544 -0.2852
22221W        W41755  14.408  16.473   3.299 -0.0964  0.1274  0.2563
22222W        W41756   0.749   7.439  12.341  0.0247  0.3546  0.2374
22223W        W41757   2.816   7.774   1.970  0.3407 -0.0421 -0.0656
22224W        W41758  17.342  16.767  13.009  0.0700  0.3295  0.3012
22225W        W41759  16.769  14.504  13.428 -0.1767 -0.1173  0.2936
22226W        W41760   1.965  10.663   4.364 -0.0828 -0.2720 -0.1904
22227W        W41761   5.516  10.752   3.163  0.1661 -0.5019 -0.0328
22228W        W41762   1.090   4.989  16.006  0.0295 -0.1078 -0.2941
22229W        W41763   2.704  10.488   3.450 -0.2855  0.0573  0.0484
22230W        W41764   2.670  12.424   3.125 -0.6046 -0.1281 -0.1100
22231W        W41765  13.290   2.571  12.513  0.1678 -0.1121  0.1292
22232W        W41766   9.886  12.760  14.797  0.1468  0.0438 -0.0362
22233W        W41767   8.943   1.797  12.334  0.2400 -0.1506  0.0893
22234W        W41768   4.191  12.048  15.304  0.0922 -0.0011  0.0268
22235W        W41769  15.223   0.035   2.446 -0.1928 -0.0358  0.0566
22236W        W41770   3.439   8.511  12.888 -0.2359  0.1398 -0.1982
22237W        W41771  12.528  11.114   2.677  0.1211  0.1760  0.1021
22238W        W41772   2.526  12.362  13.929 -0.3841  0.2794 -0.2828
22239W        W41773  11.336  16.091   4.273 -0.1494 -0.0121  0.0900
22240W        W41774   2.940  16.812  12.551  0.0658 -0.1302  0.2200
22241W        W41775   5.673  10.261  14.688  0.0989  0.2989 -0.2678
22242W        W41776   8.111   6.339   4.136 -0.2541 -0.0682 -0.0312
22243W        W41777   7.825  15.358  14.657  0.0490 -0.1858 -0.1794
22244W        W41778   2.344  14.468  12.361 -0.1117 -0.2468 -0.0743
22245W        W41779  14.463   2.458   4.827  0.0522 -0.0595 -0.1215
22246W        W41780  14.204   2.074   1.888 -0.0943  0.1336 -0.0946
22247W        W41781   5.152  15.164   1.086  0.2248  0.2653  0.1762
22248W        W41782   2.323  17.612   3.669  0.0602  0.0336 -0.1835
22249W        W41783  13.611   3.410  13.465  0.0840 -0.1269 -0.0653
22250W        W41784  18.139   7.986  14.491  0.2945 -0.2031  0.1073
22251W        W41785   1.396   6.419  13.386  0.3300  0.0822 -0.1997
22252W        W41786   7.454  14.537   3.210  0.1366 -0.0682  0.0661
22253W        W41787  14.319   0.838  13.096  0.3173 -0.0117  0.1617
22254W        W41788   1.841   0.829  13.966  0.0375 -0.0713 -0.0413
22255W        W41789   9.423  15.747  14.115 -0.1289  0.0088  0.0101
22256W        W41790  17.143  14.037   2.746  0.1517  0.1033 -0.0290
22257W        W41791  15.960   0.459   4.941 -0.0895 -0.0620  0.0381
22258W        W41792   7.101  14.403  11.687 -0.0356  0.1499  0.1185
22259W        W41793   8.580   2.764   3.243  0.1564  0.1545  0.1624
22260W        W41794   0.625   3.000   2.784 -0.2764  0.3833 -0.0422
22261W        W41795  16.136   0.817   4.644  0.0194 -0.1703  0.1804
22262W        W41796  14.213   1.867   0.544  0.0039  0.1355 -0.1495
22263W        W41797  11.637  11.988   2.221 -0.1246 -0.1722 -0.1785
22264W        W41798  10.749   9.399   1.146 -0.0461 -0.0036  0.0203
22265W        W41799  10.569   7.659  14.134 -0.0105 -0.0442  0.1559
22266W        W41800  15.471  10.887   3.893 -0.1040  0.1191  0.2247
22267W        W41801  10.855   9.120  14.649 -0.1814  0.3277 -0.0678
22268W        W41802  17.219   1.005   3.371  0.0068 -0.0782  0.1486
22269W        W41803   4.229  11.341   0.834  0.1137 -0.1186  0.1261
22270W        W41804   3.655   6.031   2.250 -0.0730  0.1172 -0.0912
22271W        W41805  12.249   4.569  13.625 -0.2941  0.1130  0.3543
22272W        W41806   5.217  10.157   1.574  0.0265 -0.0841 -0.2463
22273W        W41807   0.290   3.233   3.074 -0.1175  0.1308  0.0497
22274W        W41808   9.818   6.055   2.502  0.3375  0.2554 -0.2731
22275W        W41809  11.366   8.884   0.335  0.0770 -0.0236 -0.0867
22276W        W41810   2.668   1.538  10.345 -0.1625  0.1588  0.0196
22277W        W41811   4.097  13.779  12.115 -0.4657 -0.1295 -0.1397
22278W        W41812  12.645   2.624  13.854 -0.0495 -0.2702  0.0162
22279W        W41813  10.212   4.124   4.019 -0.0845  0.0322  0.0611
22280W        W41814   4.757   6.475  12.525 -0.2109 -0.1719 -0.2239
22281W        W41815  12.178  13.857   2.370  0.2234  0.1850  0.3391
22282W        W41816  10.590   4.984  15.296  0.3130 -0.2963  0.2049
22283W        W41817   1.524   6.903  15.850 -0.2365  0.0500  0.0124
22284W        W41818   6.644  15.337  16.005  0.0260  0.1499 -0.1800
22285W        W41819   5.230  15.807   1.174 -0.1265 -0.1760 -0.1756
22286W        W41820   3.668  11.201   2.591 -0.2572 -0.0785  0.0721
22287W        W41821   1.696   3.341  14.350 -0.1171 -0.4156 -0.2042
22288W        W41822  11.379  17.373  14.103 -0.0072  0.3287 -0.3392
22289W        W41823   2.727   4.642  14.130 -0.0556 -0.1490 -0.1659
22290W        W41824  13.315   1.293  15.676  0.1200 -0.1741  0.1331
22291W        W41825  12.703  17.889  13.762  0.0434  0.3006  0.0863
22292W        W41826  18.091   9.077  12.157  0.1067 -0.2256 -0.3491
22293W        W41827   5.145   9.412  13.407  0.1051  0.0489  0.0549
22294W        W41828   3.063  18.182   3.604  0.1812  0.1116  0.4204
22295W        W41829   0.376   4.383   1.126  0.0182  0.1159 -0.0080
22296W        W41830  11.233  16.455  14.062 -0.1834 -0.1193  0.0041
22297W        W41831  10.286   4.130   1.231 -0.0455 -0.0727 -0.0472
22298W        W41832  13.180   2.345   5.516  0.0175  0.1752  0.0640
22299W        W41833   5.926   5.890  14.209 -0.1907  0.0601 -0.3564
22300W        W41834   9.075   6.405   4.518  0.0928  0.3119  0.3079
22301W        W41835  15.102   2.088   0.675 -0.3626  0.1893  0.1114
22302W        W41836   9.060   2.735  13.493 -0.0486  0.2695  0.2310
22303W        W41837   1.787   8.838   3.524 -0.0617 -0.1125  0.0856
22304W        W41838  17.488   2.206  11.227  0.0230 -0.4806 -0.0720
22305W        W41839   3.127  12.764   2.461 -0.1722 -0.0090  0.3074
22306W        W41840   9.883  12.396   2.295  0.1973  0.0868 -0.1494
22307W        W41841  14.496   7.576  14.088 -0.0930 -0.0365 -0.0534
22308W        W41842  13.406  12.908   1.109  0.3805  0.4872 -0.0819
22309W        W41843  16.062   8.986   1.433  0.2564 -0.1737 -0.4107
22310W        W41844   6.636  10.647  14.244 -0.0101  0.2379  0.1923
22311W        W41845   9.538   5.510   2.485  0.0381 -0.0843 -0.0932
22312W        W41846   6.598   1.922   2.607 -0.0657  0.0673 -0.0944
22313W        W41847  17.119  13.392  12.931 -0.4253  0.0590  0.1548
22314W        W41848   4.036  13.905   1.271 -0.0178 -0.0740 -0.1168
22315W        W41849   8.161   3.164   1.082 -0.0302 -0.1628 -0.1948
22316W        W41850   8.973   0.104   1.548  0.2961  0.0362 -0.0991
22317W        W41851  17.857  11.584   5.445 -0.0143 -0.0696 -0.1228
22318W        W41852   2.306  17.841  13.039 -0.0534 -0.0694  0.6196
22319W        W41853  13.880   1.866   1.559 -0.2751 -0.4925 -0.3401
22320W        W41854  17.409  13.966   0.323  0.1343 -0.2490 -0.1552
22321W        W41855  10.396   1.444  14.648 -0.3326 -0.1255  0.1840
22322W        W41856   1.407  11.002   2.789 -0.1038 -0.0911  0.0758
22323W        W41857  16.257  11.781  15.241 -0.1434 -0.1584  0.1691
22324W        W41858  10.469  11.235  12.001 -0.2073 -0.1450  0.0916
22325W        W41859  13.760   9.238   3.623  0.0204 -0.1377 -0.0409
22326W        W41860   8.925  10.050  14.148 -0.0127 -0.0604 -0.1101
22327W        W41861   2.400   9.576  11.980  0.0902 -0.3813 -0.0993
22328W        W41862   1.845   9.483  15.911 -0.1096 -0.1153  0.2996
22329W        W41863   3.554   7.864   3.809 -0.1387 -0.0618  0.0603
22330W        W41864   8.373   5.091   0.134  0.1969 -0.2853 -0.0066
22331W        W41865  11.481   7.523  13.501 -0.0007  0.0851  0.0248
22332W        W41866  11.977   9.098   1.492 -0.1700 -0.0082  0.1567
22333W        W41867   7.757   3.458   3.791  0.3533 -0.0713  0.0520
22334W        W41868  17.023   8.328   1.273 -0.0499  0.1041  0.1657
22335W        W41869   7.658   0.627   2.455  0.0731 -0.0363 -0.1936
22336W        W41870   5.861  17.134  11.257 -0.0730  0.2884 -0.0247
22337W        W41871   6.796   3.594   5.226  0.1024  0.0493  0.2940
22338W        W41872   6.371  10.902  13.241 -0.2020 -0.3520 -0.1257
22339W        W41873  16.925  13.930   4.766 -0.0634  0.3331  0.0700
22340W        W41874  16.136  11.762   1.551  0.3765  0.3769  0.1359
22341W        W41875   8.832  11.707  12.831 -0.2176  0.2430  0.1249
22342W        W41876   8.661   8.969   3.048 -0.1442  0.1785 -0.0168
22343W        W41877  14.828  10.093  13.398 -0.0356  0.1454 -0.1562
22344W        W41878   9.105   1.142   4.764  0.0582 -0.0180 -0.0220
22345W        W41879  17.609   9.932  14.018 -0.0877 -0.0732  0.0079
22346W        W41880   7.454   9.036   1.778  0.1751 -0.3515 -0.1010
22347W        W41881   8.250   9.263   3.207  0.0339 -0.0583  0.1336
22348W        W41882  18.016  15.582  12.240  0.1275 -0.1766 -0.5235
22349W        W41883  17.141  15.373   4.461  0.0995  0.1357 -0.1581
22350W        W41884  18.171   5.330  12.971  0.0332  0.1521  0.2483
22351W        W41885  16.645  16.971   3.605  0.0098  0.0195  0.0380
22352W        W41886   4.486  14.778   5.328  0.0756 -0.0817  0.1155
22353W        W41887  10.831  14.939   4.067 -0.2840 -0.2048 -0.2179
22354W        W41888  11.273   4.822   3.474  0.0639 -0.2600 -0.5239
22355W        W41889   1.138   3.629   1.055  0.0843 -0.0222  0.0779
22356W        W41890  12.399  12.257   4.435  0.1033  0.1512  0.1048
22357W        W41891  14.485   8.385  13.769 -0.0809  0.0233 -0.2263
22358W        W41892   5.231   7.202   2.555 -0.0547  0.1032 -0.2326
22359W        W41893   3.548   7.497   1.418  0.2183  0.0097  0.1258
22360W        W41894   0.035   9.057   3.936 -0.1059 -0.2477 -0.0975
22361W        W41895  13.946   6.117  12.443  0.0024  0.0915 -0.0224
22362W        W41896  10.035  13.267   4.455  0.2224 -0.0736 -0.1779
22363W        W41897  13.818   9.302   2.506 -0.2183 -0.2830 -0.0573
22364W        W41898   3.531  12.292  13.817  0.1676 -0.2011 -0.1102
22365W        W41899   3.710  10.722  11.677 -0.2879 -0.0110 -0.0957
22366W        W41900  15.338   1.894   1.054  0.1290 -0.1750 -0.1926
22367W        W41901  15.458  10.509   2.193 -0.1709  0.0051  0.0362
22368W        W41902   8.799   4.069  10.865  0.0668 -0.1130 -0.0311
22369W        W41903  17.691   9.407   2.622 -0.2017 -0.4060 -0.0767
22370W        W41904   6.927  16.007   3.364  0.0634 -0.0227 -0.3175
22371W        W41905   4.385   8.741  14.586  0.1914 -0.0892  0.1762
22372W        W41906   6.552  16.654   2.911 -0.0143  0.2807 -0.0368
22373W        W41907   3.553  16.653   1.622 -0.2840 -0.1269  0.3574
22374W        W41908   4.039   5.624  12.572  0.0343  0.4219  0.2789
22375W        W41909   7.797  14.703  13.340 -0.0162  0.4217  0.1361
22376W        W41910  12.464   7.109  13.866  0.2121  0.1791 -0.2735
22377W        W41911   9.408  10.900  16.018  0.2266  0.1738  0.1037
22378W        W41912  16.169  16.403   4.338  0.0251 -0.1305 -0.1573
22379W        W41913  12.035   8.235   3.479  0.0508  0.2067  0.0872
22380W        W41914  17.840   7.335   1.276 -0.2472  0.1623 -0.2374
22381W        W41915   9.822  18.095   0.231  0.0475 -0.2458 -0.2032
22382W        W41916  15.302   3.789  13.031  0.2054  0.1898  0.0008
22383W        W41917  13.345  17.819   2.285  0.1586  0.2482 -0.2550
22384W        W41918  11.096  12.699   4.433 -0.0722 -0.2667 -0.1505
22385W        W41919  13.848   9.505  13.179  0.0818  0.4419 -0.1461
22386W        W41920  15.842  13.907   3.161 -0.1109 -0.2255  0.0722
22387W        W41921   9.071  12.478  13.405 -0.1906  0.1328 -0.1228
22388W        W41922   1.438   2.632  14.999  0.2402  0.2696  0.1445
22389W        W41923  15.781   2.650   4.734  0.1817 -0.1168  0.0185
22390W        W41924   3.929  18.179   3.706  0.0015  0.0251 -0.1333
22391W        W41925   2.888  16.878  14.931 -0.3064  0.1838 -0.0933
22392W        W41926  11.801  17.655   2.790  0.0707  0.2886  0.1039
22393W        W41927  15.401   8.665  11.696  0.0434  0.0299  0.2705
22394W        W41928  13.036  12.298  11.971  0.0127 -0.0681  0.3638
22395W        W41929  17.514  16.479  12.622  0.0315  0.1661 -0.3086
22396W        W41930   9.864   2.586   4.150 -0.3320  0.0038 -0.1059
22397W        W41931  12.385   0.803   4.592 -0.1296  0.0718  0.1166
22398W        W41932   7.753   5.905   4.105 -0.2989 -0.0639  0.1866
22399W        W41933  10.063   8.396   4.766 -0.1579  0.2054 -0.1454
22400W        W41934   7.260   6.654   3.452 -0.0462 -0.0496  0.0395
22401W        W41935   0.280  10.223   0.034  0.1785  0.2278 -0.3030
22402W        W41936   0.185   0.791   5.592 -0.1458 -0.1495  0.1412
22403W        W41937   9.962  12.297   1.812  0.1711  0.2220 -0.1076
22404W        W41938  12.730   5.466  11.627  0.3105 -0.1118 -0.2429
22405W        W41939   6.603  11.289  15.212  0.1728  0.2021 -0.0289
22406W        W41940   1.392   2.282  14.018  0.3240 -0.2783  0.1836
22407W        W41941   3.167   5.788   1.443 -0.0042 -0.2204  0.0213
22408W        W41942  13.448  10.241  10.584  0.2505  0.0250 -0.0128
22409W        W41943   0.677   1.371   0.316 -0.2279 -0.1431 -0.0878
22410W        W41944   2.927  10.559  15.002  0.3574 -0.2024  0.2784
22411W        W41945   0.411   9.888   2.191 -0.0714 -0.0907 -0.0085
22412W        W41946  16.486  14.972  13.652 -0.1094 -0.1351  0.1146
22413W        W41947  10.783   3.509   4.524  0.0329  0.0525 -0.0967
22414W        W41948  16.141  16.665  13.730  0.3414 -0.1091  0.1303
22415W        W41949  14.726  15.708   4.366  0.1327  0.2761 -0.0563
22416W        W41950   5.566  17.893   2.482  0.2093 -0.2262 -0.3231
22417W        W41951  14.004   5.200  12.755  0.2464 -0.0811 -0.1361
22418W        W41952  11.260  14.722  12.708 -0.1203  0.1134 -0.0183
22419W        W41953   3.563  17.280  12.500 -0.0092 -0.1147  0.0591
22420W        W41954   3.298   9.431  15.531 -0.0331  0.2441  0.3579
22421W        W41955   9.382  11.534  15.558  0.0809  0.2402 -0.0238
22422W        W41956   3.897   8.011   2.837 -0.2357  0.1976 -0.2369
22423W        W41957   1.343   7.729   2.109 -0.0978  0.2457 -0.1084
22424W        W41958   7.181   2.401   1.731 -0.2597  0.0296 -0.1025
22425W        W41959  11.273  15.388  13.841  0.1116  0.1106  0.1923
22426W        W41960   7.568   6.344   1.976  0.0316 -0.0828 -0.0311
22427W        W41961  13.390   4.337   2.899  0.1351  0.0659 -0.1397
22428W        W41962   3.103  17.212  12.312  0.0195  0.0008 -0.0466
22429W        W41963   6.584  17.908   2.877  0.1552 -0.2445  0.2496
22430W        W41964  12.785   9.823   3.486  0.0048 -0.1366  0.4226
22431W        W41965   4.906   3.605   4.744  0.1213 -0.1286  0.0764
22432W        W41966  15.293  15.572  11.750  0.2628  0.0974 -0.3626
22433W        W41967  14.750   1.035  13.362 -0.0414 -0.2697 -0.1674
22434W        W41968  10.379  16.094   4.931  0.2178  0.0636  0.3976
22435W        W41969   7.141  10.823   2.650 -0.0774  0.1931 -0.4778
22436W        W41970  10.400  16.836   2.551  0.3601  0.0009 -0.0786
22437W        W41971   0.274  15.168  11.507  0.0397  0.4589 -0.1067
22438W        W41972   1.653   9.272   4.634 -0.4712 -0.0809 -0.0574
22439W        W41973  13.315  16.458   0.969  0.2848 -0.1268 -0.3172
22440W        W41974  10.363   2.540   2.779  0.0831  0.0461  0.0773
22441W        W41975  14.229  13.607  13.860  0.0382 -0.0981  0.1386
22442W        W41976  16.162   5.434   2.825 -0.1973  0.2412  0.1482
22443W        W41977   4.660   7.018   4.180  0.2412  0.3534 -0.0975
22444W        W41978  12.923   2.790  12.185 -0.2339 -0.1343 -0.1509
22445W        W41979  14.642   9.317   0.441  0.0569 -0.1032  0.0779
22446W        W41980   9.544   8.108  11.903  0.3643  0.0463 -0.0931
22447W        W41981   0.328   0.739  14.519  0.3525  0.0468  0.0795
22448W        W41982  11.428   6.544  12.232  0.0372 -0.0792 -0.0178
22449W        W41983   3.509  14.052  14.573  0.2798 -0.2819 -0.0529
22450W        W41984   5.977  17.188   1.772  0.0713 -0.0688  0.0546
22451W        W41985   0.079  10.336   2.556 -0.2287 -0.3595 -0.0199
22452W        W41986   0.083   8.596  15.356 -0.0167  0.0956 -0.0416
22453W        W41987   2.813  14.155  11.741 -0.1332 -0.1171  0.2118
22454W        W41988   3.401   3.704   1.260 -0.2631 -0.0737 -0.5324
22455W        W41989   7.204   4.574  11.231 -0.0278  0.0151 -0.1815
22456W        W41990   2.750   5.635   2.307  0.3296  0.0973 -0.0017
22457W        W41991  17.763  17.538   3.163 -0.1178  0.0506  0.0290
22458W        W41992   9.901  15.807  15.866 -0.3545 -0.2372 -0.2253
22459W        W41993   1.041  16.407  15.705  0.0926 -0.0158 -0.0266
22460W        W41994  11.776   4.421  11.923  0.1711  0.0777 -0.3137
22461W        W41995   2.674  14.790   4.363  0.2102 -0.1619 -0.2511
22462W        W41996  14.699   0.603   4.971  0.0053 -0.4085  0.0641
22463W        W41997  15.764  10.707   1.249  0.0234 -0.0688 -0.0316
22464W        W41998  15.773  17.213  12.240 -0.2498 -0.1433  0.0744
22465W        W41999  13.859  15.609   2.881  0.1691  0.0658  0.0634
22466W        W42000  17.684  14.832   3.434  0.1933 -0.0621 -0.1171
22467W        W42001  13.596  15.862   4.248 -0.1371 -0.2660 -0.1243
22468W        W42002  18.027  15.035   4.360  0.0776 -0.0023  0.0785
22469W        W42003  15.794  15.565   0.585  0.3274  0.1623 -0.2004
22470W        W42004   3.906   5.553   3.076 -0.1086  0.2914 -0.3406
22471W        W42005  10.542  11.836   1.800 -0.0371 -0.1255 -0.0403
22472W        W42006  10.767   9.719   2.041  0.1567 -0.3401 -0.2908
22473W        W42007   6.078  12.638  11.413 -0.0463 -0.1240 -0.0687
22474W        W42008   4.530   7.716  14.848  0.2297 -0.3384  0.3609
22475W        W42009  10.712  15.774   1.812  0.0173 -0.1151 -0.1216
22476W        W42010  18.006   3.103  16.012 -0.0987 -0.1635 -0.1129
22477W        W42011  12.851   1.039   2.695  0.1997 -0.0716  0.0853
22478W        W42012  10.019  16.522  14.937 -0.1037  0.1076 -0.0611
22479W        W42013  10.388  13.217  13.891 -0.1429  0.0796  0.2098
22480W        W42014  13.740   5.784   2.353 -0.1733  0.0401 -0.1820
22481W        W42015   0.830   4.013  11.703 -0.1738 -0.4594  0.1211
22482W        W42016  17.112   7.510  13.664  0.0970 -0.1109 -0.1875
22483W        W42017  14.241  12.445  14.001 -0.2000  0.0064  0.2523
22484W        W42018  17.015   3.941   0.097  0.1130 -0.3027 -0.0755
22485W        W42019   4.284   4.120  13.622  0.0817 -0.1584 -0.1579
22486W        W42020   0.193   4.364  15.979  0.2164 -0.0949  0.3154
22487W        W42021  15.831  10.005  13.521  0.3972  0.3858 -0.0533
22488W        W42022  16.566  17.920  15.581 -0.2276  0.0381 -0.1463
22489W        W42023  16.528  15.989  14.349 -0.0008 -0.0580  0.1770
22490W        W42024  17.872   4.538  13.021  0.1524  0.1154 -0.0837
22491W        W42025   2.576   0.725  15.646 -0.1473  0.1957  0.0666
22492W        W42026  17.227   9.472  11.441 -0.0851 -0.0240  0.1134
22493W        W42027  12.553  17.711  14.334 -0.0830  0.0978  0.0232
22494W        W42028  10.645   4.943  13.889  0.0040 -0.0686  0.0936
22495W        W42029   3.632  10.294  13.859 -0.0938  0.0418  0.0716
22496W        W42030   5.710   7.745  15.131  0.2297 -0.1700  0.2062
22497W        W42031  17.298  10.669   4.629 -0.1376 -0.1213  0.2421
22498W        W42032  12.486  12.095  13.189  0.2746 -0.1608  0.1703
22499W        W42033  17.916   0.675   5.700  0.1268  0.1177 -0.1551
22500W        W42034  14.813   3.426   2.562 -0.0176 -0.0143 -0.2721
22501W        W42035   5.433   8.061  13.780  0.1584 -0.0283  0.0915
22502W        W42036  14.941   6.530  11.663 -0.3787  0.0921  0.0202
22503W        W42037  13.960  15.649  14.616 -0.1637  0.0501  0.0359
22504W        W42038  15.990   7.404   0.641  0.0945 -0.2394 -0.0413
22505W        W42039   8.054   1.081  14.908 -0.0171  0.2346  0.1153
22506W        W42040  14.430   1.946   1.444  0.0754 -0.2968  0.1405
22507W        W42041  13.410   1.831   1.689 -0.1709  0.1883  0.1392
22508W        W42042   4.041   3.367  13.193  0.0723  0.2499 -0.0143
22509W        W42043   7.455  11.693  12.011 -0.1325  0.1178  0.0031
22510W        W42044   0.142   3.872  15.858 -0.0617 -0.0589  0.2823
22511W        W42045   9.641   3.752  11.250  0.1221  0.1697 -0.0071
22512W        W42046  11.557   5.742  10.987 -0.0530  0.1056 -0.1226
22513W        W42047  10.905  10.353  14.589 -0.3674 -0.2615 -0.0061
22514W        W42048   7.476  17.630  10.442 -0.3108 -0.1587 -0.0912
22515W        W42049  11.344  10.590  11.821  0.1210  0.0365  0.3048
22516W        W42050   4.728   9.862   1.469  0.0004  0.3385  0.0531
22517W        W42051  12.457   4.324   3.222  0.0385 -0.1404  0.0261
22518W        W42052   3.907   7.118  12.029  0.1870  0.2569 -0.0843
22519W        W42053   8.991  16.271   2.057 -0.0035  0.0698 -0.0618
22520W        W42054  10.593  15.277   1.695 -0.1019 -0.0038 -0.0078
22521W        W42055  10.770   6.901  13.353 -0.4932  0.0716  0.2132
22522W        W42056   6.973   3.021   0.086  0.0190  0.0510  0.1645
22523W        W42057  12.671   8.129   1.114  0.3674 -0.4517 -0.3190
22524W        W42058  13.739  15.942  15.076  0.1481  0.0111 -0.0133
22525W        W42059   9.886   2.674  14.190  0.1949 -0.2578  0.1664
22526W        W42060   6.191   5.296  12.799 -0.0022  0.1605  0.2693
22527W        W42061  14.100   2.568  14.026 -0.0787 -0.1587 -0.0185
22528W        W42062   5.426   3.526  12.101 -0.1403 -0.1060  0.1280
22529W        W42063  14.777   2.616   2.832  0.1898  0.2744 -0.0632
22530W        W42064  14.182  12.682  13.562  0.0764  0.0659 -0.0028
22531W        W42065   6.442  14.451  15.839  0.0751 -0.2585  0.2100
22532W        W42066   0.541   8.004   0.100 -0.1486 -0.4088  0.1100
22533W        W42067   3.989   1.237   3.084 -0.0643 -0.6074 -0.1285
22534W        W42068  16.717   1.985  12.438 -0.0819 -0.3299  0.2203
22535W        W42069   9.035   8.031   1.049 -0.0407  0.1203 -0.0479
22536W        W42070  12.647  14.887   0.486 -0.2904 -0.0681  0.2081
22537W        W42071  12.729  15.849  15.729 -0.0012 -0.3188  0.1929
22538W        W42072  10.714   6.232   4.252  0.0541 -0.0786 -0.2394
22539W        W42073   8.720   2.899  12.272 -0.1353 -0.1833  0.3398
22540W        W42074  11.918   8.293   0.473  0.0783  0.2191  0.2793
22541W        W42075  16.612  10.614  12.041  0.0438 -0.1205  0.2127
22542W        W42076  10.727   3.714  13.327  0.0110  0.3271  0.0350
22543W        W42077  14.752  14.155   2.801 -0.1374 -0.0742  0.0535
22544W        W42078  15.554   7.666   2.972 -0.1167 -0.1995 -0.0531
22545W        W42079  14.753   7.404   0.415  0.0944 -0.0886 -0.1665
22546W        W42080   0.675   1.424  15.517 -0.3423 -0.1858  0.0559
22547W        W42081   6.901  12.342  11.201  0.1296  0.2175  0.0855
22548W        W42082   5.480   4.037   0.501  0.1032  0.0432 -0.0166
22549W        W42083   5.359   9.891  12.605 -0.0988  0.0598  0.1194
22550W        W42084  12.957  14.172  12.488  0.0397  0.2386  0.1150
22551W        W42085  13.481   3.980  13.018 -0.0145  0.3099  0.3070
22552W        W42086   3.650   0.019  11.968 -0.0729  0.0676  0.2678
22553W        W42087  15.229   8.839   4.619 -0.3903  0.0327  0.1972
22554W        W42088   5.472  11.263  14.922 -0.0969 -0.1363 -0.0807
22555W        W42089   5.748  15.640  12.317 -0.0815  0.3917 -0.0726
22556W        W42090  17.474   8.380  15.469 -0.0672  0.1932 -0.0469
22557W        W42091   0.793   4.346  14.317  0.0610 -0.0253 -0.0370
22558W        W42092   8.085  13.618   4.035  0.2091  0.2156 -0.3235
22559W        W42093   0.468   7.534  15.604  0.1405  0.0393 -0.1203
22560W        W42094   6.537   0.072   0.047  0.1777 -0.1333 -0.1032
22561W        W42095  12.305  14.735   1.163  0.0749 -0.0406  0.1355
22562W        W42096   7.074  15.711  13.644  0.0010 -0.1881  0.1204
22563W        W42097  14.846  10.624   4.451 -0.0621  0.3857  0.0400
22564W        W42098  18.133   6.763  11.958 -0.0733 -0.1857 -0.1672
22565W        W42099   8.712   7.397  14.235 -0.2730 -0.1390  0.2111
22566W        W42100  17.250  16.900   2.190  0.3873  0.1280 -0.0479
22567W        W42101   7.724   9.766  13.481  0.0726 -0.0884  0.0319
22568W        W42102   2.705   9.217  15.255 -0.2731  0.0879  0.1778
22569W        W42103  14.008   9.686  14.499  0.2236  0.1591 -0.0946
22570W        W42104   2.582   9.794  13.744  0.3294  0.0784 -0.0645
22571W        W42105  10.854   0.218   2.739  0.0863  0.1965  0.1518
22572W        W42106   4.751   4.631   1.741  0.0410  0.0886  0.1606
22573W        W42107   5.742  13.935   2.548 -0.2044 -0.0704 -0.0658
22574W        W42108  16.379  10.762  14.024 -0.1570  0.0856  0.0757
22575W        W42109   4.291  12.909   1.249  0.0577 -0.0364  0.1324
22576W        W42110   2.009   8.100  11.952  0.1889  0.0180  0.4071
22577W        W42111   9.527   2.602  13.592 -0.3079  0.2628 -0.1408
22578W        W42112  12.238  16.637  12.549 -0.1619  0.1632  0.2098
22579W        W42113   9.726   9.098   3.847  0.1485 -0.3505 -0.1298
22580W        W42114   7.333  17.955  12.600 -0.3203 -0.2927 -0.2179
22581W        W42115   3.582   4.776  10.222 -0.3243  0.3076 -0.3029
22582W        W42116   2.741  12.387  14.765  0.2934  0.1231  0.1436
22583W        W42117   1.802   8.011  13.300  0.2058 -0.1559 -0.1819
22584W        W42118   8.439   7.511   2.019 -0.0766 -0.0631  0.2418
22585W        W42119   9.241   7.832   4.769 -0.1646 -0.0306  0.0307
22586W        W42120  17.405  17.326   0.773  0.0606  0.0901 -0.2069
22587W        W42121   2.025   3.471  11.445  0.3338  0.2440  0.2279
22588W        W42122   3.574   6.196  14.737 -0.1279 -0.0394 -0.0673
22589W        W42123   7.163  10.298   2.571 -0.1890  0.0684 -0.1230
22590W        W42124   7.396   1.609  13.667 -0.4151  0.1167 -0.1686
22591W        W42125  17.190  13.084   0.549  0.1661  0.1198 -0.1026
22592W        W42126  11.761  11.637  15.405  0.2430  0.2488  0.0990
22593W        W42127   9.187   9.215   2.728  0.0511 -0.0322 -0.0857
22594W        W42128  10.208  13.297   0.900 -0.1700  0.1190 -0.2493
22595W        W42129   2.229   8.401  13.924  0.0477  0.4346  0.1584
22596W        W42130  15.075  17.367   2.509  0.2277 -0.1852  0.1282
22597W        W42131  11.443   5.049   0.155 -0.1913  0.2247 -0.2315
22598W        W42132  15.296   1.317  12.529  0.1833  0.1512  0.0552
22599W        W42133   4.055   1.261  11.304 -0.1530 -0.1137 -0.0485
22600W        W42134  14.627  15.623   3.703 -0.1904 -0.2547 -0.0264
22601W        W42135   8.165  11.530   4.467  0.1418 -0.1204 -0.1034
22602W        W42136  10.283   5.512  11.319 -0.5346 -0.2046  0.2198
22603W        W42137   7.889  15.920  14.828  0.2681  0.0006 -0.1059
22604W        W42138   7.346   0.233  15.948 -0.0870 -0.2058 -0.0868
22605W        W42139   3.933   1.169  14.022  0.0015 -0.1662  0.1607
22606W        W42140   2.126   8.811   2.112 -0.1108 -0.2454  0.1094
22607W        W42141   8.077   3.059   4.666 -0.1894  0.0693  0.0752
22608W        W42142   9.725  14.304   0.552  0.2336  0.1997  0.0332
22609W        W42143  17.232  17.109   3.993  0.2141  0.2485  0.1471
22610W        W42144   6.194  15.051  14.255 -0.1376  0.0888 -0.0100
22611W        W42145  14.761   1.385   4.354  0.3332 -0.2757  0.0130
22612W        W42146  14.425   9.943   2.478 -0.1804  0.4724 -0.0726
22613W        W42147  16.928  15.277   0.943  0.0447 -0.0264 -0.2563
22614W        W42148  14.469  12.644   2.283 -0.0983 -0.2423  0.1057
22615W        W42149  15.801   5.888  15.693 -0.0555  0.1389  0.2313
22616W        W42150  14.044   2.189  12.169  0.0513 -0.0986  0.0826
22617W        W42151  11.502   7.980   1.288 -0.2202 -0.1637 -0.4675
22618W        W42152   7.727  12.843  13.610  0.1515  0.1246  0.1374
22619W        W42153   8.521  13.789  14.889 -0.1295 -0.0162  0.0550
22620W        W42154  16.931  15.052   1.796  0.0873  0.2568  0.0635
22621W        W42155   5.948   0.001  12.994 -0.1983  0.1091  0.1082
22622W        W42156   2.343   7.454  12.502 -0.2387  0.1109  0.0751
22623W        W42157  17.824   4.797   1.578 -0.2983 -0.1171 -0.2261
22624W        W42158   0.686  15.879  14.613 -0.0158 -0.0668 -0.2668
22625W        W42159   9.991  16.554   3.064  0.0520  0.3393  0.0434
22626W        W42160   9.119   2.372  14.325 -0.0258  0.2239 -0.0866
22627W        W42161   5.931   0.812  15.499 -0.0024  0.3436 -0.0867
22628W        W42162   1.073  12.660   2.761  0.0476 -0.1343 -0.0435
22629W        W42163  17.056  16.672   3.731  0.1988  0.1620 -0.2559
22630W        W42164  16.299  11.184  15.790 -0.1966 -0.1136  0.1099
22631W        W42165   4.049  14.401   2.746  0.0395  0.0203 -0.1605
22632W        W42166  17.683  13.962   2.408 -0.0824  0.1609 -0.0670
22633W        W42167  17.047  13.125   3.017  0.0846  0.1115 -0.1248
22634W        W42168  17.274   8.037   3.817  0.2522 -0.0375  0.0491
22635W        W42169  11.015  13.959  12.013  0.1030  0.1338 -0.3357
22636W        W42170   6.842  15.918   4.854  0.0913 -0.1317 -0.3302
22637W        W42171   7.037   2.525  13.748 -0.3297  0.0717 -0.3051
22638W        W42172  14.465  11.783  15.685  0.0035  0.1428 -0.0762
22639W        W42173  12.736  11.841   1.749 -0.2720 -0.0827 -0.0257
22640W        W42174  16.723  12.710   4.574 -0.1425 -0.1740 -0.0070
22641W        W42175  15.710   7.946   5.880  0.1822 -0.1439 -0.1464
22642W        W42176  12.441   9.852   1.036 -0.0840 -0.2588  0.1039
22643W        W42177   1.588   1.327  14.034  0.1535 -0.0520  0.1090
22644W        W42178  10.378  10.841   1.323  0.0950 -0.2376 -0.0147
22645W        W42179   1.191   1.520   2.592 -0.1381 -0.0820 -0.0628
22646W        W42180  15.519  14.133   3.499  0.2945  0.1598 -0.1538
22647W        W42181   6.286   8.721   2.160  0.1030 -0.4082 -0.1148
22648W        W42182   2.255  14.031  14.607 -0.0226 -0.0716  0.2113
22649W        W42183   9.131  17.490   3.247  0.3131 -0.1602  0.1874
22650W        W42184  16.674   3.745   0.653 -0.1316 -0.0215  0.0648
22651W        W42185   7.856   2.734   0.983 -0.1532 -0.1113 -0.1650
22652W        W42186   9.890   2.749  12.354  0.0752 -0.0903  0.0517
22653W        W42187   7.375  15.999   0.012 -0.2143 -0.0653 -0.3285
22654W        W42188  15.128   4.299   1.554 -0.0502  0.1961  0.3199
22655W        W42189   9.665   5.559  13.678  0.1994  0.0327  0.2099
22656W        W42190   3.573   5.251  12.372  0.0025 -0.1993  0.0620
22657W        W42191  16.677   4.701  13.307 -0.0505 -0.2371  0.1522
22658W        W42192   6.884   1.661  13.281 -0.0547  0.0817  0.1091
22659W        W42193   8.880   8.118  12.909  0.0737  0.2276  0.0495
22660W        W42194  14.922   1.141   3.918  0.2457 -0.1431  0.1694
22661W        W42195   0.675  15.033  11.801  0.0141  0.4720  0.1888
22662W        W42196   0.269   8.824  15.826  0.0080 -0.1235 -0.0162
22663W        W42197   6.100  17.433  13.008 -0.2888 -0.1264  0.2640
22664W        W42198   7.728  18.058  10.528 -0.0853 -0.1422  0.2880
22665W        W42199  15.911   0.990  14.552  0.3764 -0.0667 -0.0021
22666W        W42200   1.180   0.933  12.224  0.1344  0.0559 -0.2532
22667W        W42201   6.780  14.394  13.620  0.0024  0.0840  0.0320
22668W        W42202  13.145   1.213  11.939 -0.0333  0.1369  0.1701
22669W        W42203  12.907   6.580   3.216  0.1259  0.0414 -0.2034
22670W        W42204   2.250   1.875  15.897 -0.0406  0.1264  0.0504
22671W        W42205   1.262   4.244   4.031  0.0575  0.2431 -0.1146
22672W        W42206  15.644  12.060   1.012 -0.0265  0.0759  0.0722
22673W        W42207  13.695   2.242   1.205  0.0251  0.2035 -0.2254
22674W        W42208  10.543  10.710  14.796 -0.1659 -0.4380  0.0476
22675W        W42209   6.972   7.625  15.223 -0.2020  0.0356 -0.2284
22676W        W42210  17.385   9.900  14.571  0.0689 -0.0262 -0.1840
22677W        W42211  18.111  16.783   3.667  0.0124 -0.0410 -0.0868
22678W        W42212  14.879   6.569  13.752  0.2068 -0.0511  0.2084
22679W        W42213   6.221  10.691   1.197 -0.0732  0.2544  0.0145
22680W        W42214  12.820   6.003  11.616 -0.0104  0.1426  0.1905
22681W        W42215   0.086  16.417   3.436  0.0009  0.2091  0.1772
22682W        W42216  17.710   5.461  13.532  0.0160 -0.1701 -0.0162
22683W        W42217  10.487   3.958  13.807 -0.1508  0.0250  0.1120
22684W        W42218   9.607   0.433   2.813  0.3393 -0.1452  0.0817
22685W        W42219   0.509   3.707   3.321  0.0762 -0.1116  0.2351
22686W        W42220  12.552  16.117   0.488 -0.1316  0.0647 -0.0528
22687W        W42221   0.613  15.579   5.132 -0.0291  0.0568 -0.1868
22688W        W42222   0.857  10.610   0.902  0.0479 -0.3553  0.1171
22689W        W42223  13.916  16.109   0.306  0.2594 -0.0073  0.1247
22690W        W42224   6.405  17.139   1.542 -0.0374 -0.1696  0.0573
22691W        W42225   0.861   1.674   2.129 -0.1349 -0.2519 -0.1005
22692W        W42226   2.220  12.097   2.071 -0.1207  0.2528  0.1256
22693W        W42227   4.558  10.120   2.145 -0.0707  0.1620  0.0046
22694W        W42228   7.355  14.866  14.132 -0.0286 -0.4125  0.1987
22695W        W42229  12.664   9.084  14.896  0.0562  0.3505  0.0188
22696W        W42230   9.718  10.095   4.270 -0.0045 -0.0727 -0.0663
22697W        W42231  15.403   2.960   4.050 -0.1401 -0.3014  0.0323
22698W        W42232  14.320   2.986   1.425 -0.1793  0.2317  0.0130
22699W        W42233   1.734  10.361  13.670  0.1568 -0.3326  0.1430
22700W        W42234   5.297   1.894  11.754 -0.1192 -0.1298  0.4219
22701W        W42235  14.100   2.831   3.770  0.1763  0.1036  0.1663
22702W        W42236   5.404   5.880  14.933 -0.3347  0.0693  0.2382
22703W        W42237  13.770   3.162   3.945 -0.3242  0.2185 -0.0139
22704W        W42238  17.212   8.180   4.772  0.1689 -0.3124  0.1508
22705W        W42239  14.650   5.869  13.091  0.0732 -0.2190 -0.0127
22706W        W42240   0.462   3.263  11.373 -0.2406  0.0230 -0.1296
22707W        W42241  17.440  14.296   2.013  0.1541  0.1005 -0.0904
22708W        W42242   7.318  12.506  15.933 -0.0633  0.0920 -0.3791
22709W        W42243  11.855   8.642  14.003 -0.1333 -0.1626  0.1040
22710W        W42244  11.198   4.094  15.260 -0.2116  0.0883 -0.0190
22711W        W42245   3.698  11.148   4.107 -0.1396  0.3029 -0.0218
22712W        W42246   3.899  14.225   0.670 -0.0748 -0.0431 -0.0293
22713W        W42247   8.945   1.414  14.812 -0.0022 -0.0170 -0.1533
22714W        W42248   3.610   9.746  15.096 -0.1053 -0.2164  0.2447
22715W        W42249   8.747   5.531  13.142  0.0468  0.0331 -0.2402
22716W        W42250  14.672   0.043   3.383  0.3206  0.0009  0.1439
22717W        W42251   8.176   7.825   2.321 -0.4345  0.1314  0.1879
22718W        W42252  11.578  17.440  15.155 -0.0274  0.2070  0.4605
22719W        W42253   6.821   9.305   1.934  0.1682 -0.0513 -0.2302
22720W        W42254  13.027   6.222  12.040 -0.0476  0.1585 -0.2750
22721W        W42255  13.095  17.102   0.226  0.1113  0.0149  0.3043
22722W        W42256  12.825   8.063  12.493 -0.0784  0.0855 -0.1134
22723W        W42257   6.472   3.893   0.970 -0.1525 -0.0716 -0.1914
22724W        W42258   6.277   8.529  15.129  0.0104 -0.3115  0.0853
22725W        W42259  11.915   5.600   5.388  0.1804 -0.2786  0.1247
22726W        W42260  15.139   3.802   2.811 -0.2292  0.2592  0.0596
22727W        W42261   3.906  14.417   4.167 -0.2624  0.3514 -0.1608
22728W        W42262  17.316  16.682   1.538  0.1439 -0.0926  0.1456
22729W        W42263  12.380   6.135  13.551  0.2242  0.1832 -0.2187
22730W        W42264  12.079   0.506   2.131 -0.1175  0.2265 -0.2681
22731W        W42265  17.882  17.036  13.109  0.2180  0.0836 -0.0865
22732W        W42266  15.201   9.709   2.597  0.2263 -0.0619 -0.0574
22733W        W42267   9.733  12.524  16.034 -0.1002  0.0419  0.0156
22734W        W42268  13.990   8.604  15.551 -0.0499 -0.2204 -0.0884
22735W        W42269   1.089   7.693   3.776 -0.3228  0.1412  0.2531
22736W        W42270  15.217   7.615  14.588  0.2652  0.0943  0.2400
22737W        W42271   1.008  14.270  15.079  0.0163  0.0553 -0.0796
22738W        W42272   1.648  13.899   2.162  0.2452  0.0332 -0.0651
22739W        W42273   5.535  11.982  15.886 -0.2741  0.1486 -0.0703
22740W        W42274   2.097  15.044  15.653  0.2079 -0.0152 -0.3629
22741W        W42275   3.336   1.832  11.772 -0.0759  0.1761 -0.1855
22742W        W42276  12.805   1.517   4.835  0.2034 -0.0413 -0.1464
22743W        W42277   5.061  11.447   1.864 -0.0045  0.0395  0.2441
22744W        W42278  15.995   0.449  13.105 -0.0757  0.1121  0.1085
22745W        W42279   0.122   3.868  12.470 -0.0457  0.0023 -0.0661
22746W        W42280   5.540  11.994  13.043 -0.0180 -0.0885 -0.1508
22747W        W42281   9.043  13.690   5.124  0.2178  0.0119  0.1845
22748W        W42282  15.006   4.189   4.688  0.1922 -0.0779  0.0004
22749W        W42283  12.858   5.944   4.305 -0.0646 -0.0056 -0.1087
22750W        W42284   6.133  14.262   2.419 -0.0145 -0.1659 -0.0222
22751W        W42285  11.332  13.157   2.157  0.0179  0.0431  0.3200
22752W        W42286   2.834  11.796  11.844 -0.2520 -0.0804  0.2490
22753W        W42287   4.571   0.803   1.931 -0.1496  0.0377 -0.4742
22754W        W42288   2.291  13.982  15.582 -0.2384  0.2050  0.0047
22755W        W42289   7.716  11.107   1.636  0.2298 -0.0809  0.0794
22756W        W42290   7.655  10.756   4.750 -0.0534 -0.0317 -0.1854
22757W        W42291  12.998   0.577   2.748 -0.3153 -0.0858  0.0192
22758W        W42292  14.508   2.185   0.245 -0.0749  0.1725  0.1581
22759W        W42293   6.294  15.920  15.189 -0.3496  0.2107 -0.3591
22760W        W42294   6.101  14.282   1.902 -0.0304  0.2495  0.4086
22761W        W42295   0.591  14.682   1.684  0.1771 -0.1084 -0.0593
22762W        W42296   2.219   7.694   0.239 -0.0333 -0.1445  0.0005
22763W        W42297   6.535  13.925   4.004  0.1871 -0.1492 -0.0188
22764W        W42298  15.682  10.162   3.377 -0.3249  0.0680  0.2490
22765W        W42299   0.745  17.793   0.197 -0.1172 -0.1450  0.1868
22766W        W42300   4.744   4.754  12.246  0.4344 -0.0561 -0.0403
22767W        W42301   6.012  14.418  14.964 -0.1648  0.1318  0.2279
22768W        W42302  17.388   6.119   2.652 -0.0951 -0.1006  0.2716
22769W        W42303  11.953   7.093   3.093 -0.0802 -0.1057 -0.1425
22770W        W42304   9.808  16.825  13.533  0.5649  0.1819 -0.0839
22771W        W42305  15.691   9.402   3.864  0.4052  0.2099 -0.0552
22772W        W42306   4.921   6.783   1.612  0.2476  0.3096 -0.0257
22773W        W42307  13.044  11.997   4.442  0.0349  0.0111  0.0097
22774W        W42308  17.095  11.738   3.766 -0.0745  0.3254 -0.1629
22775W        W42309  11.390   2.642  13.099  0.0646 -0.0709 -0.1766
22776W        W42310   8.491   0.189   0.573  0.2423  0.1623 -0.1167
22777W        W42311  15.258   7.874  15.785  0.2596 -0.0481 -0.3088
22778W        W42312  10.787   3.606  12.830  0.2064 -0.1152 -0.1119
22779W        W42313  16.221  13.646   4.112  0.0699  0.0174 -0.1725
22780W        W42314   3.528  14.246   4.616 -0.2537 -0.1868 -0.1396
22781W        W42315  15.893   9.819   3.652 -0.1997 -0.3381  0.1759
22782W        W42316   5.764   2.604  12.073  0.1812 -0.3508 -0.1443
22783W        W42317   7.474  17.408  12.500 -0.0812 -0.1822  0.1673
22784W        W42318   5.240   0.420   0.444 -0.0679 -0.2976 -0.2019
22785W        W42319   0.230  12.863   1.004 -0.3626  0.0475 -0.1067
22786W        W42320  11.922   6.856   1.851 -0.0880 -0.1049  0.0516
22787W        W42321  18.188   2.925  10.113  0.0363  0.0728 -0.2542
22788W        W42322   4.942  17.139   3.375  0.0170 -0.2154  0.0327
22789W        W42323   8.895  11.684  15.350  0.2688 -0.1516 -0.1967
22790W        W42324   0.586   4.124   1.575 -0.0945  0.1840 -0.0192
22791W        W42325   3.379   0.337  13.574  0.2453 -0.2309 -0.3954
22792W        W42326  17.601   8.603   1.446  0.0499  0.0967  0.3826
22793W        W42327  15.726   0.584  14.203  0.1616  0.3044  0.0780
22794W        W42328  16.100   6.779  16.028 -0.0760  0.2394 -0.1842
22795W        W42329  10.775   4.548   0.813 -0.1244  0.1019  0.0711
22796W        W42330   3.811   0.920   0.094 -0.2654 -0.0319 -0.0437
22797W        W42331   1.674  13.068  15.898 -0.0645  0.0215  0.1975
22798W        W42332   8.492   3.299  10.267 -0.1033 -0.1556  0.0738
22799W        W42333   8.032   5.695   2.958 -0.0362 -0.0926  0.3151
22800W        W42334   5.300  16.575   1.950 -0.1134  0.1243 -0.0388
22801W        W42335  16.854   3.502  13.887 -0.1129  0.2282  0.0200
22802W        W42336   0.853   7.607   1.953 -0.1581  0.5178 -0.0633
22803W        W42337  16.863  12.990   3.871 -0.3946 -0.1492 -0.2243
22804W        W42338  11.774  16.828  15.192  0.1739 -0.1121 -0.2076
22805W        W42339   4.832   3.658  14.213  0.0553 -0.0157  0.0077
22806W        W42340   1.783   8.103  15.594 -0.1646  0.1249  0.0913
22807W        W42341   9.885   4.072   5.819  0.0789 -0.3293  0.1615
22808W        W42342  10.105  12.710   1.074  0.0555  0.1842  0.2820
22809W        W42343  17.438   8.970  15.106 -0.1615 -0.2284 -0.0875
22810W        W42344   2.898  12.374  14.244 -0.0924 -0.0160 -0.0856
22811W        W42345   6.308  15.506  12.737  0.0028  0.0328 -0.0259
22812W        W42346   4.005   5.475  13.033 -0.2541 -0.0506 -0.0172
22813W        W42347   9.922   6.431  15.775  0.3249  0.0392 -0.1342
22814W        W42348  13.450  13.306  11.039 -0.2511  0.0696  0.0665
22815W        W42349  11.240   1.463   2.305  0.1071  0.3175  0.1233
22816W        W42350   1.851   7.663   0.926 -0.1690  0.2465  0.1088
22817W        W42351   8.213  15.217  12.347  0.0598 -0.1106  0.0405
22818W        W42352   6.698  12.575   4.006  0.0084  0.0410 -0.1307
22819W        W42353   1.210  13.202   1.128 -0.1863 -0.0974 -0.0133
22820W        W42354   1.264   3.210   3.875  0.0716  0.0554 -0.3062
22821W        W42355   6.494  14.261  11.281  0.0039 -0.0752 -0.4309
22822W        W42356  16.079   5.726   1.011  0.1497  0.2296  0.4434
22823W        W42357  12.034  14.157  15.851  0.0875  0.0839  0.2833
22824W        W42358   5.917   0.719  14.939 -0.4100  0.1598 -0.0410
22825W        W42359   0.768   8.424  15.683 -0.3345 -0.0548 -0.0682
22826W        W42360  12.060  15.928  15.222 -0.0250 -0.0634 -0.0582
22827W        W42361   9.787   5.339  14.715  0.2711  0.0504  0.3239
22828W        W42362  10.115  11.295   2.861  0.0404 -0.0990  0.4431
22829W        W42363  17.947   1.328  14.095  0.2912  0.1451 -0.0498
22830W        W42364  15.271  14.955   1.280  0.1335  0.1281 -0.0719
22831W        W42365  12.561   6.954  15.841 -0.1534 -0.3436 -0.1619
22832W        W42366   2.672  16.627  13.839  0.4686 -0.3579  0.1815
22833W        W42367   8.674  16.156   4.558 -0.0470  0.1286  0.0260
22834W        W42368   5.973  10.571   2.156 -0.1974  0.1112 -0.1263
22835W        W42369   6.156  12.942   2.949  0.0809 -0.3041  0.1744
22836W        W42370   7.867   6.849  11.508 -0.2408 -0.2386 -0.1494
22837W        W42371   8.921   1.979   3.352 -0.1839 -0.2021 -0.1473
22838W        W42372   5.197  12.425  11.939 -0.0030 -0.2813 -0.1982
22839W        W42373   2.447  17.880   1.039  0.1849 -0.0052 -0.1421
22840W        W42374   1.277  17.177   3.523  0.1816  0.0367 -0.0844
22841W        W42375  11.600   8.615   3.339  0.0191 -0.4695 -0.1556
22842W        W42376   0.101   2.848  12.415  0.2432 -0.1320  0.2300
22843W        W42377   6.603   5.055  10.726 -0.3104 -0.2851  0.1937
22844W        W42378   6.072  14.537  12.561 -0.1025  0.0340  0.1008
22845W        W42379   3.010   9.448   0.230 -0.0617  0.3521 -0.0085
22846W        W42380  10.621  14.021  15.532 -0.2574 -0.2327 -0.2615
22847W        W42381   0.978  11.587   4.190 -0.0538  0.2908 -0.1477
22848W        W42382  11.797   3.918   3.688 -0.1434  0.1178  0.1324
22849W        W42383  15.619   1.745   2.010 -0.2289 -0.4567  0.1529
22850W        W42384   9.434   4.973   0.185 -0.1155  0.2188 -0.1317
22851W        W42385  13.059  14.380   5.629 -0.2336 -0.0950  0.3728
22852W        W42386   8.748  13.098   2.720 -0.2611 -0.0186 -0.0296
22853W        W42387  13.523  12.927  14.251  0.1445  0.2121  0.1261
22854W        W42388   4.650   4.514  15.307 -0.2741 -0.1544  0.3215
22855W        W42389  13.209   9.293  13.949 -0.0062  0.1487  0.1802
22856W        W42390   4.238  16.941  15.395  0.1150  0.1342 -0.0957
22857W        W42391   7.259  15.545   0.224  0.0532 -0.1498 -0.0780
22858W        W42392  15.288  13.111   2.387 -0.4639 -0.0578  0.0639
22859W        W42393   6.254   7.567  15.094 -0.2164  0.0203  0.0993
22860W        W42394  10.252   1.326  15.790  0.2541  0.0010  0.0858
22861W        W42395  10.579   0.623   3.265 -0.0701  0.2375 -0.0273
22862W        W42396  10.861  15.958   2.257  0.4580 -0.1561  0.2029
22863W        W42397  13.355   6.505   1.643  0.0838  0.1239 -0.1787
22864W        W42398  14.994   3.061   0.415 -0.1697 -0.1304  0.0336
22865W        W42399   4.299   9.498   4.492  0.1519 -0.3934 -0.2290
22866W        W42400  17.916  11.695   3.261 -0.1653  0.2517 -0.0428
22867W        W42401   5.535  15.649  10.116 -0.1945  0.1066 -0.1481
22868W        W42402   6.997  15.118   0.217  0.0204  0.2781 -0.2012
22869W        W42403  16.587  12.965  15.725 -0.2415 -0.1130  0.0594
22870W        W42404  17.271   3.337  15.270  0.1442 -0.1442 -0.0465
22871W        W42405   2.987   1.498  13.428 -0.0532 -0.0203 -0.0027
22872W        W42406   5.778  10.951   1.842  0.1799 -0.0106 -0.2785
22873W        W42407   2.739   2.659  14.239  0.0254  0.0201  0.0223
22874W        W42408   5.065  17.911   4.578  0.3486 -0.3712 -0.2844
22875W        W42409   0.643   9.272  11.672  0.1954  0.2278 -0.1830
22876W        W42410  11.125  10.825  14.781  0.1785 -0.3940  0.2488
22877W        W42411  12.451   5.995   0.781  0.0381 -0.2305 -0.2419
22878W        W42412  18.147   3.499  12.821  0.1299 -0.2160 -0.1199
22879W        W42413   1.686   3.603   4.771 -0.2813 -0.2079 -0.0108
22880W        W42414  17.158  16.166   5.354  0.1277 -0.2156  0.0886
22881W        W42415  13.917   8.400  16.003  0.2592  0.1187  0.1769
22882W        W42416  12.274   6.894   0.767 -0.0770 -0.1118 -0.0570
22883W        W42417  16.490  13.695  12.607 -0.1907 -0.1153  0.2688
22884W        W42418  10.598   9.277  13.887 -0.1980  0.2783 -0.1412
22885W        W42419  12.796  17.665   2.294  0.0048 -0.1901  0.0084
22886W        W42420   0.355   5.566   2.487  0.0629 -0.0163  0.2195
22887W        W42421   4.616   8.077  13.256 -0.1402  0.0345  0.0610
22888W        W42422  15.074   3.073  14.605  0.0063  0.0261 -0.1283
22889W        W42423   5.619  13.167  12.168  0.1014  0.2877 -0.1362
22890W        W42424   9.327  16.062   3.449 -0.0734  0.0975  0.1011
22891W        W42425   6.402   4.278  12.878  0.0319 -0.0248 -0.2480
22892W        W42426   5.648   0.111   1.645 -0.1514  0.1226 -0.0087
22893W        W42427   9.836  10.872   1.945 -0.1910  0.0629 -0.4296
22894W        W42428  14.303  13.644  13.390  0.3232 -0.0179  0.2015
22895W        W42429  10.337  17.971   1.067  0.2037  0.0081  0.0816
22896W        W42430   4.818   9.497  12.317 -0.1348  0.1248  0.0761
22897W        W42431   8.718   0.711  14.551 -0.1192  0.0068 -0.2988
22898W        W42432  15.616   9.829  15.935 -0.1609  0.3842 -0.2513
22899W        W42433   4.305  10.950  12.302 -0.0691 -0.0171  0.1098
22900W        W42434   6.450  15.702   2.944 -0.0243 -0.0093  0.1527
22901W        W42435   7.897   1.776  12.188  0.0750 -0.0089  0.0054
22902W        W42436  13.755   2.736   0.320 -0.1059  0.1392  0.0191
22903W        W42437   1.902   0.052  11.419  0.2063 -0.4242  0.1921
22904W        W42438  13.302  11.879  13.275  0.0395  0.0033 -0.2489
22905W        W42439   9.567  12.058   3.711  0.2029 -0.0245 -0.2532
22906W        W42440  12.377   0.328   4.331  0.2502  0.1644  0.0895
22907W        W42441   9.293  15.900   1.347 -0.0131  0.1955 -0.1178
22908W        W42442   9.194  10.435  14.419 -0.3280 -0.0167  0.0307
22909W        W42443  14.440   5.236   3.549  0.0320 -0.0437  0.1148
22910W        W42444   4.945  13.470  11.590 -0.0120  0.2736  0.0436
22911W        W42445   9.526  16.360   4.083  0.1309  0.1057  0.1819
22912W        W42446  15.776  11.089   3.518  0.0351  0.1912  0.0030
22913W        W42447   0.063  15.888   0.866  0.1947  0.1346  0.6960
22914W        W42448   1.207  16.514  12.347 -0.0020  0.3332  0.2741
22915W        W42449   4.896   7.440  12.374  0.1693 -0.3155  0.1558
22916W        W42450   3.205   2.053  12.772  0.1530 -0.1872  0.0490
22917W        W42451   1.500  13.499   0.157  0.2553 -0.1978  0.2325
22918W        W42452   8.542   4.567  14.897  0.2019  0.4383  0.1857
22919W        W42453   9.875   9.435  15.837 -0.0931  0.0827 -0.0820
22920W        W42454   4.450  12.691  13.715  0.0513 -0.0398  0.2695
22921W        W42455   8.248  14.514  13.117 -0.2804  0.2086  0.2737
22922W        W42456   2.174   7.354   5.050  0.1702  0.1943  0.0697
22923W        W42457   2.418   1.685  15.385  0.1386 -0.1056  0.0159
22924W        W42458  13.310   5.999   3.954  0.0182  0.1918 -0.2405
22925W        W42459  14.066   1.293   0.169 -0.1459 -0.0004 -0.0261
22926W        W42460   2.189  10.496   1.392 -0.1131 -0.1263  0.2011
22927W        W42461  17.296   7.805  15.680  0.1717  0.0575  0.0557
22928W        W42462   1.563  13.755  15.124 -0.1551  0.2713 -0.1163
22929W        W42463   2.620   0.779   3.183  0.1947 -0.3859 -0.2367
22930W        W42464   9.090  10.363  15.819  0.0469  0.1542  0.2530
22931W        W42465  17.691  16.620   2.781 -0.1800  0.1396  0.1010
22932W        W42466  14.447  16.426  10.919 -0.0141  0.0514  0.2967
22933W        W42467   5.987  11.957  12.914  0.2365 -0.0453 -0.0982
22934W        W42468   9.789   8.442  14.520 -0.1172  0.2130  0.3274
22935W        W42469  10.902   1.857  13.475  0.0750  0.3779  0.1366
22936W        W42470   3.694  16.677   1.131 -0.0502 -0.0271  0.1914
22937W        W42471   7.232  10.302  15.707  0.2753 -0.1408  0.1380
22938W        W42472  11.076  17.137  12.562  0.0922  0.0190  0.2271
22939W        W42473   7.696  14.686   2.040 -0.4020  0.2143  0.4055
22940W        W42474  14.405  10.310  11.754  0.3455  0.3640  0.0782
22941W        W42475   5.774   2.574  11.573  0.2809 -0.0531  0.1604
22942W        W42476   4.335   3.551   4.631 -0.1714  0.0939  0.0173
22943W        W42477  11.779   3.497   3.179  0.1854  0.5568  0.0624
22944W        W42478   5.541   8.283  14.511 -0.0410  0.1320  0.0716
22945W        W42479  13.125   6.527  13.783  0.1864 -0.1001  0.0821
22946W        W42480   9.613  13.677   0.187  0.1189  0.1779  0.0454
22947W        W42481   6.187  11.346   5.335  0.0417 -0.0490 -0.0226
22948W        W42482  11.586   3.407   0.604  0.1449  0.0117 -0.0803
22949W        W42483   4.600  13.607  15.986 -0.0604 -0.2252  0.0477
22950W        W42484   0.024  15.777   4.614 -0.1049  0.1349 -0.0494
22951W        W42485  16.383   2.056   4.474 -0.1338  0.0333 -0.0627
22952W        W42486   6.666   3.398  11.256 -0.1556 -0.1006 -0.3424
22953W        W42487  16.027   3.460   1.264  0.1276  0.0556  0.1881
22954W        W42488   7.864  14.463   4.305  0.3091  0.0359 -0.0211
22955W        W42489  16.169   8.729   2.286  0.2007  0.0264  0.1475
22956W        W42490   4.064  18.028   1.449 -0.3405  0.0426 -0.4214
22957W        W42491  17.378   6.189   2.151  0.1341 -0.1403 -0.2017
22958W        W42492   8.235   7.707   4.637 -0.0822 -0.0254 -0.1711
22959W        W42493   5.764   6.707  15.342 -0.1009 -0.1276  0.1289
22960W        W42494   8.403   3.325  15.518 -0.0345 -0.3297  0.0090
22961W        W42495   3.294   7.666   4.256 -0.0761 -0.0177 -0.1258
22962W        W42496  16.240  15.949  12.945  0.4655 -0.1914 -0.2460
22963W        W42497   1.706  12.986   3.271 -0.2357  0.2699  0.0992
22964W        W42498   8.031  12.882   0.195  0.0964 -0.1322 -0.0685
22965W        W42499  15.091  13.924  14.624  0.0081  0.0796 -0.1145
22966W        W42500  15.160  15.262   1.697 -0.1113 -0.1908  0.0676
22967W        W42501  13.477  16.881   2.156  0.1705  0.2768 -0.0338
22968W        W42502  12.208  17.312  14.569 -0.0431 -0.2496 -0.0348
22969W        W42503  13.938   8.131   3.557 -0.1376 -0.3265 -0.2124
22970W        W42504  12.695  12.406   4.791  0.1561  0.1231  0.2390
22971W        W42505  13.613   9.692   2.096 -0.2325  0.0532  0.2933
22972W        W42506  14.930  11.978   4.874 -0.1035 -0.1479 -0.1229
22973W        W42507   8.599  11.795   4.627 -0.2456  0.1406  0.0434
22974W        W42508   8.700   1.360   1.354  0.0813  0.1185  0.1046
22975W        W42509  17.281   6.424  13.433  0.4582  0.2264  0.2539
22976W        W42510  15.252   8.148  12.567 -0.0626 -0.2884  0.2182
22977W        W42511  18.151  15.911   3.618  0.1088  0.0886  0.1002
22978W        W42512   7.789   9.066  13.123 -0.1994 -0.3301  0.0330
22979W        W42513   4.822   6.243   3.082  0.0403 -0.0262 -0.5134
22980W        W42514  12.273   8.750  15.438 -0.0796 -0.1093  0.0827
22981W        W42515   6.692   4.214   2.005  0.1463  0.2735  0.2261
22982W        W42516  12.359   2.478  15.931  0.0601 -0.1159  0.1019
22983W        W42517  17.114   0.734  15.864  0.0686  0.0573  0.2255
22984W        W42518   2.992  14.803   3.914 -0.2396 -0.1053  0.0091
22985W        W42519   4.710   9.046  11.506  0.3456 -0.1287 -0.3002
22986W        W42520   1.546  15.786  15.048  0.0364 -0.2883 -0.2674
22987W        W42521   5.794   5.179   0.903 -0.2844  0.0665 -0.0624
22988W        W42522   3.210  16.803   1.240  0.0911 -0.1470 -0.0687
22989W        W42523   1.402   2.141   3.399 -0.2158 -0.1212 -0.1513
22990W        W42524   5.199  10.219   2.095  0.0873 -0.2408  0.2008
22991W        W42525   4.882  11.026   2.482  0.0605  0.0999  0.0395
22992W        W42526   3.087  10.210   4.812 -0.0001 -0.1100 -0.0560
22993W        W42527  11.470   9.659   2.976 -0.1606 -0.0450  0.0473
22994W        W42528   7.029   1.971   0.067  0.0116 -0.1915  0.2142
22995W        W42529   3.048  13.367   2.264 -0.0313 -0.0574  0.0787
22996W        W42530   5.897  13.276   5.188 -0.2799  0.2915  0.1417
22997W        W42531   2.670   8.795   2.130  0.4895  0.1294  0.1584
22998W        W42532  16.444  15.496  14.251  0.4414  0.1110 -0.0359
22999W        W42533  11.164   4.893   2.758 -0.4560  0.1178  0.0701
23000W        W42534   2.553   4.180  13.328 -0.0341 -0.1172 -0.0519
23001W        W42535  16.433   2.654   1.878  0.0367 -0.1531 -0.0476
23002W        W42536   5.514  18.162  13.278  0.0979  0.0327 -0.0107
23003W        W42537   7.076  11.747  11.600  0.0147 -0.0214 -0.0145
23004W        W42538  16.915  13.869  12.825  0.0719 -0.2741  0.1051
23005W        W42539  13.867  13.689   0.731 -0.1181 -0.1573  0.0223
23006W        W42540   2.022   0.435   2.371 -0.0604  0.2967 -0.1872
23007W        W42541   1.853  15.412  11.858  0.0862  0.2105 -0.2205
23008W        W42542  12.773  16.689   1.023  0.1259 -0.2333  0.0490
23009W        W42543  10.029  15.900   2.414  0.0584 -0.0803 -0.0872
23010W        W42544   4.346  14.096  14.743  0.2153  0.0303  0.2405
23011W        W42545   5.693  12.585  15.695 -0.0316  0.2455 -0.1043
23012W        W42546   0.816  12.230  12.897  0.0491 -0.1708 -0.1541
23013W        W42547  17.439  17.448  13.886 -0.0185 -0.1946 -0.1752
23014W        W42548   0.465  17.150   3.144  0.1889  0.1890 -0.0154
23015W        W42549   5.083   1.617  15.798  0.0575 -0.1355 -0.2098
23016W        W42550   6.267  13.829   3.364 -0.2707 -0.1322 -0.0245
23017W        W42551   6.612  13.878   1.408  0.1279  0.3190 -0.4170
23018W        W42552   6.250   4.900  13.208 -0.1132  0.2258  0.1566
23019W        W42553  11.656  17.876   0.958  0.1090  0.0166 -0.2131
23020W        W42554   4.519   5.624   1.806 -0.0655 -0.0776  0.2746
23021W        W42555   5.532   0.473  15.089 -0.0335  0.1475  0.1050
23022W        W42556  11.099   6.401  11.883  0.0423  0.1469 -0.0582
23023W        W42557  16.030   4.386  15.104  0.0791 -0.2488 -0.1388
23024W        W42558   0.188  10.021   3.161 -0.0765  0.2164 -0.3012
23025W        W42559  13.264  11.440   1.667  0.0679 -0.3404 -0.0957
23026W        W42560   8.861   9.262  12.106  0.1670  0.2101  0.1567
23027W        W42561  10.227   6.985  14.781 -0.1809 -0.0694 -0.1777
23028W        W42562  12.356   5.929  15.179  0.1974 -0.1765  0.1972
23029W        W42563  17.852  16.295   3.671 -0.0213  0.1019  0.0476
23030W        W42564  13.616  10.091  12.588  0.2314  0.0161 -0.0777
23031W        W42565  10.381  10.873   4.176 -0.2678 -0.2259 -0.1741
23032W        W42566  11.420  10.948   0.351  0.0046 -0.0736  0.1901
23033W        W42567  11.325   8.590   3.841  0.1611  0.1405  0.0399
23034W        W42568   0.836  12.578  15.342 -0.2056  0.2013  0.3603
23035W        W42569   9.043   1.316   2.252 -0.2426  0.0904 -0.1486
23036W        W42570   5.462   0.417   2.093  0.0870  0.0329 -0.1941
23037W        W42571   1.699  11.684  15.923  0.1437  0.0272  0.0726
23038W        W42572   5.256   6.117  15.826  0.0994 -0.0126  0.0669
23039W        W42573   5.990  11.911  15.265 -0.1771 -0.0481  0.0667
23040W        W42574  14.309   8.720   2.594  0.1789  0.1171 -0.1395
23041W        W42575   6.412   5.023  14.592 -0.1417  0.0446  0.2038
23042W        W42576  13.217   5.593  12.522 -0.0861 -0.3265 -0.0644
23043W        W42577   8.488  15.939  15.593 -0.3396  0.0562 -0.0176
23044W        W42578  16.193   0.733   2.146  0.1063  0.1883  0.1957
23045W        W42579  12.408  12.626   4.123 -0.2130 -0.0271  0.0718
23046W        W42580   7.696   7.966  12.145 -0.1787 -0.0767  0.2463
23047W        W42581   3.727   3.293  15.649 -0.1962 -0.0605 -0.3614
23048W        W42582  15.802  15.443   4.191 -0.1557  0.1989 -0.3360
23049W        W42583   7.126  16.775  14.234  0.1224 -0.0446 -0.0042
23050W        W42584   7.054  11.992  12.062  0.0241 -0.2033  0.2960
23051W        W42585   5.204  15.991  12.456  0.0094 -0.2321  0.0366
23052W        W42586  12.189   6.828  12.611 -0.1748  0.0860  0.0173
23053W        W42587  16.056  17.837  14.768  0.4755 -0.0170  0.0262
23054W        W42588   6.858  17.708  14.131  0.0779 -0.2052  0.2553
23055W        W42589  13.851  16.753  13.268  0.1682  0.2339 -0.0564
23056W        W42590  16.066   4.204   4.573  0.0510  0.1341 -0.0216
23057W        W42591   3.262   2.929  13.203  0.2908  0.1001  0.1594
23058W        W42592   8.564  13.688   0.193 -0.3087  0.1172 -0.0199
23059W        W42593  17.337   3.857   2.315  0.0018  0.1242  0.1502
23060W        W42594   6.755   2.828   3.023  0.1164  0.1928 -0.2276
23061W        W42595  14.354   8.593  12.471 -0.0403  0.3345  0.3066
23062W        W42596  10.542   1.008   4.313 -0.2290 -0.1666 -0.1843
23063W        W42597   3.748  12.067  12.722 -0.1946 -0.0688 -0.0993
23064W        W42598  13.131  11.387  13.175 -0.1430 -0.1379  0.0705
23065W        W42599   1.864  14.742   0.470 -0.1748 -0.1165  0.0860
23066W        W42600  14.026   9.071   2.868  0.2741  0.1061  0.4721
23067W        W42601   5.806  14.357  15.537  0.1698  0.0607 -0.0897
23068W        W42602   7.577  13.521   1.611  0.0431  0.0677  0.0623
23069W        W42603  17.883   1.356  11.616 -0.0021  0.2909 -0.1118
23070W        W42604   0.093  13.831  15.819  0.1943 -0.0392  0.2907
23071W        W42605   9.951  17.605  14.089 -0.1014 -0.4223  0.0912
23072W        W42606   2.720   8.944  11.347 -0.2834 -0.1810  0.0429
23073W        W42607  15.362   2.635   0.550 -0.0343  0.2083 -0.1584
23074W        W42608   0.833   9.003   5.047  0.2059 -0.2275 -0.1346
23075W        W42609   7.846  11.049   3.880 -0.1393  0.1484 -0.1075
23076W        W42610  10.301  16.816  13.911  0.1967 -0.1728  0.0967
23077W        W42611   4.371   2.906  14.751  0.2375 -0.2167 -0.3183
23078W        W42612   4.497  15.604   2.262  0.0618 -0.1417  0.0620
23079W        W42613   3.319  17.586  11.466  0.1570  0.1356 -0.1369
23080W        W42614  14.936  12.657   3.210 -0.1556  0.1503 -0.1568
23081W        W42615  11.250  10.709   1.407 -0.1571 -0.1345 -0.0606
23082W        W42616  15.356   6.619  13.428 -0.2712 -0.0976 -0.0012
23083W        W42617  15.519   7.274   1.721  0.2599 -0.0073 -0.1828
23084W        W42618   0.915   3.274  12.081  0.3454 -0.0209 -0.4359
23085W        W42619   4.862   8.300   1.462  0.3432  0.2031  0.0668
23086W        W42620   9.189   3.673   2.101  0.0665 -0.5859  0.0194
23087W        W42621  10.015   3.241  12.286  0.0405  0.2475  0.1180
23088W        W42622   7.287  11.927   1.043  0.1457  0.0257  0.2115
23089W        W42623   9.699   4.219  14.265  0.2804 -0.0809 -0.0374
23090W        W42624   5.327   2.382  11.931  0.3857  0.1962  0.1884
23091W        W42625  12.666  12.964   2.495 -0.1806  0.0694 -0.0880
23092W        W42626  10.953   4.494  15.430  0.0787 -0.1734 -0.0830
23093W        W42627   0.011   8.919   0.236 -0.0795  0.0438  0.1355
23094W        W42628   0.745   6.418  11.981  0.5022 -0.0901  0.0239
23095W        W42629   7.163  11.176   1.693 -0.1622 -0.1695  0.0586
23096W        W42630  11.517   8.560  14.843 -0.0522 -0.1006 -0.1204
23097W        W42631  11.427  11.168   3.162 -0.1481 -0.1388  0.0708
23098W        W42632   5.009  14.620  12.246  0.0307  0.0569 -0.0956
23099W        W42633   7.358  11.989   1.650 -0.1167  0.1580 -0.0999
23100W        W42634   5.978   2.017   3.744 -0.0328 -0.0686  0.0113
23101W        W42635   5.726   3.867   2.854 -0.0878  0.1745  0.0711
23102W        W42636  13.821   1.365   1.574 -0.2271 -0.0340 -0.0506
23103W        W42637   7.477   7.164   4.935 -0.2252 -0.0944 -0.1486
23104W        W42638   4.308  10.216   2.573  0.0394 -0.0311  0.2627
23105W        W42639   2.877   0.026   2.089 -0.1128 -0.1058  0.1747
23106W        W42640   4.247   9.648   1.433 -0.2817 -0.1383 -0.0312
23107W        W42641  13.527   1.025  13.662 -0.0887 -0.1018 -0.1713
23108W        W42642  14.054   9.394   4.574  0.4260  0.0960  0.0802
23109W        W42643  12.633  13.949  13.786 -0.1406 -0.0906 -0.0374
23110W        W42644   7.452   8.956   3.795  0.2921  0.0317  0.0603
23111W        W42645   9.923  16.391  13.908  0.0530 -0.1708  0.0228
23112W        W42646   4.241   8.572   2.167  0.0110 -0.2955  0.2529
23113W        W42647   3.951  12.845  12.185 -0.0100  0.1462  0.0524
23114W        W42648   3.989  10.213  11.713  0.1034 -0.1927  0.0239
23115W        W42649   7.258   7.613   3.396 -0.1450 -0.3738  0.1815
23116W        W42650   6.139  14.219  11.724 -0.0691 -0.1834 -0.1676
23117W        W42651   6.292  10.149   2.183 -0.0699 -0.2353  0.1164
23118W        W42652  17.227  14.840  15.316  0.2190 -0.1832  0.2626
23119W        W42653  12.539  11.671   3.557 -0.0913 -0.1141 -0.0675
23120W        W42654  15.081   2.643   3.749 -0.0978  0.0893 -0.1004
23121W        W42655  15.479   2.888  12.712 -0.0098 -0.3036 -0.1181
23122W        W42656   9.454  17.387   1.319  0.1640  0.2633 -0.1338
23123W        W42657   6.596  13.772  14.560 -0.0460  0.1317 -0.0301
23124W        W42658   1.184   8.565  11.273 -0.0356 -0.1360  0.2738
23125W        W42659  12.187  11.787   3.171 -0.2679 -0.0736 -0.2026
23126W        W42660   0.585   3.151   3.503  0.1062  0.3138  0.2603
23127W        W42661   0.401   8.710   1.673  0.0695 -0.2529  0.0851
23128W        W42662   9.405   1.735   2.962  0.0351 -0.0167  0.1953
23129W        W42663   5.736  17.586   3.636  0.0073 -0.1890 -0.0404
23130W        W42664  14.995   8.072  12.996  0.1832  0.0969 -0.2691
23131W        W42665  12.028  17.289   3.803  0.2044  0.1693  0.4582
23132W        W42666  17.105   2.335  14.193 -0.1487 -0.0243 -0.0854
23133W        W42667   5.303  11.636  12.615  0.4757 -0.0220  0.1881
23134W        W42668   1.802  12.141   4.797  0.0237 -0.1198  0.0407
23135W        W42669   2.218   3.831   2.484 -0.2921 -0.3702  0.0906
23136W        W42670  12.321   1.538  13.530 -0.0687 -0.2541  0.2815
23137W        W42671  17.438  15.942   3.655  0.3328 -0.2795  0.1094
23138W        W42672  10.991   7.225   4.287 -0.0265 -0.0036 -0.2088
23139W        W42673   1.587  10.006   2.726  0.2420 -0.2702  0.0198
23140W        W42674   6.355   8.807   5.756 -0.1204  0.0353 -0.2009
23141W        W42675   6.523   6.831   4.223  0.1151  0.2739 -0.1300
23142W        W42676   0.084  10.952  15.683 -0.3972  0.0435 -0.2135
23143W        W42677   0.941  15.049  15.220 -0.1077  0.0702 -0.1373
23144W        W42678  17.558  10.645   4.030 -0.2309  0.0507  0.0040
23145W        W42679  12.380  14.247  13.422  0.0580  0.0490 -0.1172
23146W        W42680   6.972  10.909   3.678  0.6297  0.1030  0.1704
23147W        W42681  17.831  15.930   4.123 -0.1295 -0.2405 -0.0156
23148W        W42682   3.039  10.679  12.711  0.1691  0.2893  0.2394
23149W        W42683   5.819   3.841   3.391 -0.2891  0.0789  0.0902
23150W        W42684  13.440  10.478  11.407 -0.1334  0.0770  0.2969
23151W        W42685   6.624  12.382   3.457 -0.3899 -0.2020  0.1227
23152W        W42686   0.028   9.830  14.246 -0.0284  0.2479  0.0903
23153W        W42687   0.987  11.255   2.883  0.0840 -0.0362 -0.0195
23154W        W42688   4.280   5.118   2.673  0.2462 -0.1985  0.0364
23155W        W42689  17.604  14.448  13.185  0.3203 -0.0818  0.4161
23156W        W42690  15.679  16.586   0.767  0.1152 -0.0964  0.2924
23157W        W42691   0.046  14.411   4.773  0.2291  0.1909  0.1553
23158W        W42692  12.011  18.171  14.862  0.1797  0.4262 -0.2592
23159W        W42693  14.667  14.364   4.084 -0.1759 -0.4157  0.0054
23160W        W42694   9.726   8.601   2.345  0.0385  0.1134 -0.0035
23161W        W42695  10.196  13.661   4.110 -0.1022  0.0158  0.0415
23162W        W42696   3.134  14.970  12.401 -0.0126  0.0544  0.2585
23163W        W42697  15.298   6.574  12.114  0.0307 -0.0053  0.1846
23164W        W42698  10.098  15.673   3.953  0.0233 -0.0735  0.0772
23165W        W42699  15.908  10.338  12.561  0.1713 -0.1681  0.0967
23166W        W42700   2.764   9.833  11.780 -0.1556 -0.2855  0.5171
23167W        W42701   7.132   3.400  14.264  0.2688 -0.1388  0.1496
23168W        W42702  15.744  15.988   0.386 -0.2297  0.0465  0.3236
23169W        W42703   0.051   0.310  14.267  0.0174 -0.1151  0.0047
23170W        W42704  14.430  12.697  14.427  0.1202 -0.0898 -0.0040
23171W        W42705   3.381   3.431   4.413 -0.0167 -0.3005 -0.0311
23172W        W42706   3.540  10.929   1.198 -0.2307 -0.2515 -0.2898
23173W        W42707  15.381  16.907   3.900  0.0886  0.1880  0.2445
23174W        W42708   6.337   8.514  10.952 -0.2710 -0.0911  0.2900
23175W        W42709  10.724  15.882   1.111 -0.0061 -0.1463  0.3030
23176W        W42710  10.265   6.137   1.808 -0.0277  0.3408  0.1870
23177W        W42711  15.546  13.616   4.513 -0.0334  0.3401 -0.3989
23178W        W42712   5.288   0.551   1.537 -0.0701  0.1529 -0.0980
23179W        W42713  15.814  16.234  13.041 -0.2935 -0.2445 -0.2009
23180W        W42714   9.247  12.482   2.911 -0.0602  0.1615 -0.0800
23181W        W42715   7.818   3.278  11.068  0.1180 -0.3763  0.3448
23182W        W42716  13.136   8.914  12.818 -0.0648  0.2507  0.1297
23183W        W42717  15.623   8.868  12.416 -0.3687 -0.2903  0.0449
23184W        W42718   9.501  10.636  11.958 -0.1684 -0.0268 -0.0195
23185W        W42719   5.131   8.374   3.215 -0.1694  0.2564  0.0360
23186W        W42720  11.232   4.797  14.412  0.0566 -0.1467  0.2623
23187W        W42721  10.490  12.159  15.595  0.0524  0.1237  0.0627
23188W        W42722   9.739   7.665  12.772  0.0890  0.3523  0.0241
23189W        W42723   1.001  14.000   2.659  0.1476  0.1038  0.0249
23190W        W42724  16.172  10.927   3.109  0.2375  0.1100 -0.1578
23191W        W42725   8.383  14.113   0.428  0.0987 -0.3701  0.1037
23192W        W42726   8.900   5.940  14.033 -0.1029 -0.0646 -0.1602
23193W        W42727  17.403  14.485   0.470  0.2835 -0.3435  0.1394
23194W        W42728   4.831   3.387   0.553 -0.0053  0.2653  0.3041
23195W        W42729   9.948  15.425   3.550 -0.2106 -0.0444  0.2271
23196W        W42730  15.802   6.942  13.878  0.0257  0.1140  0.0440
23197W        W42731   3.635  15.672  15.039 -0.0917  0.0228  0.2167
23198W        W42732  16.171   4.696   4.636  0.2010  0.0038  0.0143
23199W        W42733  10.080   1.401   0.656 -0.1753  0.0861  0.1382
23200W        W42734   4.098   2.447  13.295  0.1533  0.0354 -0.0138
23201W        W42735   2.897   2.180  14.164  0.2358  0.0673  0.1099
23202W        W42736  17.195  13.642   1.568  0.1210 -0.0963 -0.0803
23203W        W42737   0.313   5.372   2.999 -0.1689 -0.0103  0.0273
23204W        W42738   2.221   0.446   3.338  0.2942 -0.1776 -0.3468
23205W        W42739   6.890  13.833  13.546  0.2818 -0.0757  0.1902
23206W        W42740  11.259  16.718   2.119  0.1430  0.1929  0.0633
23207W        W42741   4.883  13.815   2.247 -0.1107  0.3440 -0.0454
23208W        W42742  11.200   7.688   4.233  0.0588  0.0058  0.3203
23209W        W42743  11.947  13.495  12.680 -0.2250  0.0669  0.1033
23210W        W42744   0.293  11.159  14.076 -0.0366 -0.0280  0.2262
23211W        W42745   6.069  17.338  15.013  0.0336 -0.1627  0.0484
23212W        W42746   6.254   1.299  15.101 -0.0473 -0.4175  0.0244
23213W        W42747  11.183   1.217   5.406  0.0174  0.0769 -0.4177
23214W        W42748  13.879   8.484   1.205  0.6604  0.2178  0.2245
23215W        W42749   0.075  14.303  14.602  0.1995 -0.3175 -0.1880
23216W        W42750  14.544   0.576  15.714  0.0915 -0.2081 -0.2656
23217W        W42751   3.349   9.448  14.031 -0.0333 -0.3090  0.1174
23218W        W42752   3.262  13.469   3.603 -0.0614 -0.2930 -0.2572
23219W        W42753   5.599  15.690  11.800 -0.0435 -0.0983  0.0073
23220W        W42754  12.781   6.252   0.983 -0.0565  0.0700 -0.2351
23221W        W42755  13.926   7.027   2.065  0.0555  0.0017  0.2475
23222W        W42756  16.373   5.774   4.031  0.1136  0.0563  0.0558
23223W        W42757  10.636   2.633  11.862 -0.0095  0.1808  0.1697
23224W        W42758   8.247  13.843  14.028  0.0642  0.0720 -0.1101
23225W        W42759   9.994   4.705   4.634 -0.0142 -0.0519 -0.0382
23226W        W42760  10.322   1.290  13.289 -0.1256 -0.2257  0.0141
23227W        W42761   8.238   1.487  14.172  0.2621  0.1412 -0.1680
23228W        W42762  10.388   2.053   2.922 -0.1063 -0.1248 -0.2197
23229W        W42763   1.944  13.124  10.707 -0.1010  0.1114  0.1271
23230W        W42764  13.131  18.060  10.653 -0.1572  0.0884  0.0196
23231W        W42765   5.134   7.223   4.030 -0.3589  0.4299 -0.3176
23232W        W42766   5.842   1.128  11.863 -0.2186  0.1773  0.1171
23233W        W42767   5.427   1.105   1.918  0.0452 -0.1747  0.2699
23234W        W42768   7.828   8.605   3.621 -0.0458 -0.1533 -0.3344
23235W        W42769   5.580   7.174  11.762  0.0228  0.1491  0.0031
23236W        W42770   4.823  14.915   2.465  0.0211  0.1539 -0.1002
23237W        W42771   8.231  16.342   2.488 -0.1402  0.1517 -0.2431
23238W        W42772  13.842  17.315  14.024 -0.1816 -0.0199  0.1070
23239W        W42773  16.339  12.175  12.411  0.0660  0.3028  0.1840
23240W        W42774  13.728   6.862   3.766  0.0992  0.1267 -0.0067
23241W        W42775   5.999   4.390  13.250  0.1593 -0.0185  0.1341
23242W        W42776   5.004   4.453  13.198 -0.2157 -0.0785  0.1136
23243W        W42777   7.978  11.537   1.810  0.0954 -0.1464 -0.1960
23244W        W42778  11.847  11.439  13.754  0.0061 -0.0045  0.0659
23245W        W42779  15.430  17.973  11.989  0.1505  0.0755 -0.3347
23246W        W42780   9.094  11.051   4.509 -0.2101 -0.0172  0.0146
23247W        W42781  10.260  15.413  15.835  0.2646  0.1225  0.0964
23248W        W42782   1.221   5.150   0.423 -0.0966 -0.1692  0.0152
23249W        W42783   8.313  15.872  14.272  0.0460  0.0767 -0.0492
23250W        W42784  11.987  11.874   4.471 -0.4594  0.1469 -0.1760
23251W        W42785   2.561   7.183   1.350  0.0520  0.0297  0.0272
23252W        W42786   4.077   9.519  15.087 -0.2108 -0.2603  0.2641
23253W        W42787  12.338  17.949  12.394  0.0390  0.1445  0.0924
23254W        W42788   3.609  14.824  12.749  0.2137 -0.0516  0.1289
23255W        W42789   4.453   5.366   0.685  0.3732 -0.1706  0.1047
23256W        W42790   2.528   6.169  13.790  0.3063 -0.2343 -0.2310
23257W        W42791   5.139   1.149   1.107 -0.0578  0.2443  0.2758
23258W        W42792  17.308   6.316  12.964  0.1122  0.0613  0.2473
23259W        W42793  16.773   4.911  13.735 -0.0771  0.0778 -0.1619
23260W        W42794  17.870   8.655   3.237 -0.1010 -0.3002 -0.1279
23261W        W42795  17.148   6.918   0.143  0.3332  0.4734 -0.2526
23262W        W42796   4.551  16.348   0.665  0.0859 -0.2950 -0.0231
23263W        W42797   6.477   7.288   3.462 -0.1791  0.3782 -0.0548
23264W        W42798   3.828   6.263  13.297  0.2098 -0.0006 -0.2674
23265W        W42799   8.495   8.297  15.911 -0.1334  0.3156  0.0370
23266W        W42800   5.685   9.809   2.565 -0.1200 -0.0316  0.3380
23267W        W42801   0.743   0.055  12.400  0.1261 -0.1072 -0.1223
23268W        W42802   6.055   0.160  15.731  0.1188  0.1710  0.0027
23269W        W42803  14.525  17.068  13.777 -0.1641 -0.2642 -0.0561
23270W        W42804   5.347   1.396   1.481 -0.2798 -0.3656 -0.0455
23271W        W42805   2.354   0.508   2.776 -0.0900  0.3649  0.1062
23272W        W42806  13.216  11.547  11.846  0.1912  0.1586  0.1982
23273W        W42807  10.568   7.087   4.727  0.1345 -0.1684 -0.1813
23274W        W42808  14.329   9.775  13.229 -0.0497  0.0089  0.1615
23275W        W42809   3.728   4.327  15.289 -0.2498  0.1384  0.2511
23276W        W42810   9.049  10.024   3.795  0.1722 -0.1643  0.1042
23277W        W42811  12.220  12.199  13.672 -0.3626  0.0986 -0.0405
23278W        W42812  16.964  16.610   3.250  0.1398  0.1239  0.1297
23279W        W42813   6.182   9.573  15.766  0.1133 -0.1661 -0.1436
23280W        W42814   4.234   7.027  13.952  0.0588  0.0187 -0.0831
23281W        W42815  17.171  15.641  11.935 -0.2365  0.1384 -0.2779
23282W        W42816   0.841   1.259  14.924 -0.1553  0.0449  0.1102
23283W        W42817  11.431   5.288   1.247  0.3733 -0.0073  0.1089
23284W        W42818  15.258   7.828   2.623  0.2437 -0.0519  0.2132
23285W        W42819  12.857   4.982   1.412  0.1723  0.3008  0.0104
23286W        W42820   2.109  14.294   3.367  0.1039 -0.1943  0.0810
23287W        W42821  16.455   7.382   0.463  0.1099 -0.1700 -0.1352
23288W        W42822  16.425   9.150   2.437 -0.1668  0.0871 -0.1438
23289W        W42823   6.499   3.568   1.351  0.1675 -0.0390 -0.5415
23290W        W42824   1.028  11.017  13.589 -0.1781 -0.1549 -0.0590
23291W        W42825   4.847  10.315  13.778 -0.0604 -0.0021  0.1427
23292W        W42826   1.438   7.721   1.632  0.1851 -0.1245 -0.1397
23293W        W42827  11.586  11.525   3.437  0.0961 -0.1211  0.2769
23294W        W42828   4.092  17.686   1.028 -0.2603 -0.2273 -0.0964
23295W        W42829   8.761  12.695  11.366  0.1316 -0.0092  0.0991
23296W        W42830  13.450   8.482  12.098 -0.0200 -0.1351 -0.1510
23297W        W42831   9.789  13.700  13.261  0.1423 -0.2805  0.0055
23298W        W42832   0.776   9.623  13.650  0.0325  0.0682 -0.0415
23299W        W42833  17.336  12.530   0.312 -0.1278 -0.2476 -0.1802
23300W        W42834   4.965   9.681  14.035  0.2585  0.0718 -0.1727
23301W        W42835  13.360   4.013   1.316 -0.0707 -0.1193  0.0752
23302W        W42836  13.283  14.315   2.417 -0.0812 -0.0155 -0.0802
23303W        W42837   8.198   9.229  15.964  0.1531  0.1517  0.1103
23304W        W42838   1.592   1.150  15.756 -0.0604  0.1042 -0.0045
23305W        W42839   7.389  17.506   0.236  0.1493  0.1031  0.2199
23306W        W42840   6.935   8.925   1.614  0.0613 -0.0238  0.0590
23307W        W42841  17.967   0.670   2.743 -0.2166  0.0179 -0.2291
23308W        W42842  13.389  17.131   1.677 -0.1347  0.0449  0.1249
23309W        W42843  15.323   8.503  12.226 -0.0903  0.0156 -0.0483
23310W        W42844   8.546   5.424   4.146 -0.0543 -0.0958  0.1218
23311W        W42845  15.431  10.853  15.794  0.0731 -0.1693 -0.2456
23312W        W42846   5.684   6.083  12.745  0.0086 -0.0002 -0.1807
23313W        W42847   8.671  14.737   4.605 -0.1120 -0.2414  0.0593
23314W        W42848  17.839   2.915  14.006 -0.0080  0.1762 -0.0208
23315W        W42849  18.092  13.948  12.093  0.0508  0.0989 -0.2244
23316W        W42850   2.746   7.433  11.326 -0.2085 -0.2654  0.2630
23317W        W42851   6.863   7.120   2.647 -0.0247 -0.1283  0.1262
23318W        W42852   6.436   3.929  15.510  0.1876 -0.1415  0.2604
23319W        W42853  14.621  14.770  14.835 -0.3828  0.1034  0.1903
23320W        W42854   1.073   0.874   1.440  0.0012 -0.0423 -0.0808
23321W        W42855   0.499  16.166  11.469  0.1809 -0.3075  0.0639
23322W        W42856  11.193  16.531  15.822  0.0131 -0.0673  0.1544
23323W        W42857  14.823  16.221   2.591  0.0286  0.0159  0.0290
23324W        W42858  15.371  18.050   3.053  0.0495 -0.1181 -0.2133
23325W        W42859   9.338  10.785   2.585 -0.0552  0.1964 -0.2287
23326W        W42860  10.575   7.072   3.947 -0.0698  0.0258  0.1234
23327W        W42861   4.940   0.794  14.876  0.0612  0.2903  0.1172
23328W        W42862  14.656   2.909  11.821  0.1615 -0.0602  0.0656
23329W        W42863  14.084  11.193   2.150 -0.1686  0.1843 -0.1578
23330W        W42864  17.554  11.468   4.590 -0.2657 -0.0005 -0.1888
23331W        W42865   5.531  13.097   0.664 -0.1606 -0.0934  0.3309
23332W        W42866  14.316  15.366   4.020  0.0735 -0.1277  0.3930
23333W        W42867  14.242  16.116  11.679  0.2469 -0.3539 -0.2627
23334W        W42868  15.323  15.631  15.594  0.0402  0.2434  0.4655
23335W        W42869   3.360   0.646   2.888 -0.0671 -0.2031 -0.0593
23336W        W42870   5.684  10.119   2.196  0.1610 -0.1629  0.0882
23337W        W42871   6.333   3.764  11.997 -0.1255 -0.0750  0.0082
23338W        W42872  17.864   9.310   3.554 -0.0205  0.1108 -0.1962
23339W        W42873   2.548   4.588   1.906  0.0859  0.0145 -0.4778
23340W        W42874  15.075  12.191   3.862  0.0178  0.2497 -0.0829
23341W        W42875  10.460   0.213  12.452  0.0721 -0.4453 -0.1858
23342W        W42876   4.239  17.667  11.493 -0.1897  0.1321 -0.0744
23343W        W42877   4.092   0.423  15.403 -0.3269 -0.3325  0.2834
23344W        W42878   6.212   4.670  11.614  0.1138  0.0806  0.1102
23345W        W42879  11.984   3.290  14.754  0.0138  0.0879  0.2523
23346W        W42880   6.368   9.091  14.569  0.0159  0.1572  0.0010
23347W        W42881   5.200  15.515  15.982 -0.0366  0.1103 -0.0681
23348W        W42882  11.732   5.802  14.539  0.0503  0.1749 -0.0749
23349W        W42883  15.593   3.425  12.908  0.0568  0.3002 -0.1084
23350W        W42884  15.380  13.090   1.084 -0.0801  0.1450 -0.0795
23351W        W42885   0.820   5.476   1.287  0.1059 -0.2357  0.0552
23352W        W42886   0.562   4.071  15.762  0.0365 -0.0108  0.0270
23353W        W42887   8.079   2.959  15.257 -0.0037 -0.0895  0.3008
23354W        W42888  14.034  14.869  14.378 -0.0302 -0.0030  0.0539
23355W        W42889  14.799  14.796   3.617 -0.1281 -0.0332  0.1308
23356W        W42890   2.991  10.994   2.142 -0.2984  0.1570 -0.0648
23357W        W42891   4.720  12.982  12.507 -0.2557  0.1842 -0.0557
23358W        W42892  14.806   9.089   3.507 -0.2266 -0.4140 -0.3507
23359W        W42893  15.533  11.634  12.607  0.3221  0.3490 -0.2921
23360W        W42894   9.144  16.919   2.507  0.1000 -0.0019  0.0369
23361W        W42895   5.225   7.428  14.011 -0.0111  0.1645 -0.1316
23362W        W42896  15.581   9.405  12.140 -0.1812  0.0204  0.1417
23363W        W42897   8.456   9.438   0.279  0.0182 -0.0168  0.1785
23364W        W42898  15.615   5.542  14.430  0.4387 -0.2418 -0.0830
23365W        W42899  16.778  17.436   2.073  0.0316  0.0223 -0.3674
23366W        W42900  14.755  11.114   0.734 -0.1511 -0.2953  0.0124
23367W        W42901  13.417   3.002   1.679  0.2967  0.1262  0.0828
23368W        W42902  15.766  18.027  11.528  0.1230  0.1530  0.1606
23369W        W42903  13.776  15.705  11.482 -0.0855  0.1666  0.1492
23370W        W42904  12.638   1.084   0.265  0.1079 -0.1186 -0.0078
23371W        W42905  10.870  12.778  12.299  0.1115  0.0726 -0.0310
23372W        W42906  14.721   4.529   1.752 -0.2158 -0.1029 -0.4115
23373W        W42907   7.791  14.568  14.360  0.1235 -0.0491 -0.0690
23374W        W42908  15.046   0.627   1.285 -0.2029 -0.1015 -0.0688
23375W        W42909  14.803   6.135   2.271 -0.0226  0.1774  0.2564
23376W        W42910   7.035   6.064   3.423 -0.0358  0.5323  0.1097
23377W        W42911   9.637  13.190   2.379 -0.0552  0.2786 -0.3197
23378W        W42912  10.189  17.112   1.207  0.0296  0.0519 -0.3898
23379W        W42913   4.483  17.005   1.770  0.0346  0.1306  0.2242
23380W        W42914  14.814   7.854  14.396 -0.0056 -0.1579 -0.0335
23381W        W42915   7.979   6.219   0.169  0.1488 -0.2289 -0.0339
23382W        W42916   2.974   6.560   2.031  0.0151  0.1983 -0.2558
23383W        W42917  14.536   4.479  12.578 -0.1098  0.4183  0.2358
23384W        W42918  13.556   6.813   2.563 -0.2234 -0.0946  0.1351
23385W        W42919   0.126  17.165  12.982 -0.3163 -0.3368 -0.5200
23386W        W42920  12.443  13.894   1.549 -0.0911 -0.2212 -0.2434
23387W        W42921  15.638   2.721   0.973 -0.1083  0.1920  0.1207
23388W        W42922   2.858   3.411   4.521 -0.2828 -0.0982 -0.2295
23389W        W42923   0.091   7.802   2.463 -0.0832  0.1551 -0.1471
23390W        W42924   9.165  15.482   0.197  0.1857 -0.0080 -0.4840
23391W        W42925  16.612   1.436  15.523 -0.1303  0.3701  0.0244
23392W        W42926  14.009   3.127   0.001 -0.0937  0.2495 -0.1058
23393W        W42927  10.628  16.158   3.846  0.0389  0.2159  0.1391
23394W        W42928  17.445   3.220  11.143 -0.1466  0.1313  0.0454
23395W        W42929  10.396  14.599  13.825 -0.0140 -0.1342 -0.2539
23396W        W42930   5.768   7.571  13.900 -0.1873  0.1382  0.2681
23397W        W42931   2.840  14.943   1.420  0.0685  0.0953 -0.0134
23398W        W42932   3.018  10.051   2.112  0.0147 -0.0666  0.0435
23399W        W42933  16.654   5.394  15.300 -0.3294 -0.1098 -0.3361
23400W        W42934  10.715   4.013   2.023 -0.0453  0.0384 -0.0958
23401W        W42935  10.149   3.101  14.051  0.1073  0.1990  0.1871
23402W        W42936  12.045  11.191  15.362 -0.1820 -0.0825 -0.0566
23403W        W42937   1.084   6.109  15.678  0.0655 -0.2062  0.3292
23404W        W42938  16.522  17.706  14.993  0.2560  0.0510  0.1279
23405W        W42939   9.065  13.622   0.897  0.0448  0.0101  0.2068
23406W        W42940   1.338   5.265  12.639  0.0978  0.0821  0.0929
23407W        W42941   6.375   7.735   1.976 -0.0504  0.1677 -0.0754
23408W        W42942  11.490  17.403   0.314  0.2428  0.2600  0.2140
23409W        W42943  14.208  14.902   2.685 -0.1485 -0.0756  0.0608
23410W        W42944   8.892  16.550  12.439 -0.1254  0.0927 -0.2166
23411W        W42945  15.460  17.575  12.392 -0.0592 -0.1399  0.0506
23412W        W42946   8.898  11.794  14.085 -0.0317  0.1747 -0.1330
23413W        W42947  17.488  15.025  11.760 -0.2399  0.1069  0.4038
23414W        W42948  14.993  13.157   0.765 -0.2196  0.1726 -0.1188
23415W        W42949   7.360   3.511  12.409  0.0137 -0.0340 -0.1712
23416W        W42950  15.722   1.950  13.545  0.0008 -0.2025  0.0188
23417W        W42951   3.355   5.900  15.429 -0.0066 -0.0278  0.0162
23418W        W42952   8.040  13.728   0.028 -0.1729  0.2745  0.0620
23419W        W42953  11.027  16.491  14.490 -0.0116 -0.2178  0.1535
23420W        W42954  10.286   5.094   1.384 -0.0100  0.1970  0.0769
23421W        W42955  10.961   4.983   1.983  0.0314 -0.1900 -0.0835
23422W        W42956  16.062  12.420  14.321  0.2089  0.1399  0.2424
23423W        W42957  11.376  16.815  14.765  0.1110 -0.0535  0.1778
23424W        W42958   5.455   6.011  12.318  0.1315  0.2078  0.2304
23425W        W42959  17.127   7.457   1.985 -0.1015  0.1620  0.0257
23426W        W42960  13.848   5.997  11.611  0.0233 -0.1210 -0.0202
23427W        W42961  16.657   7.059  13.359 -0.1160 -0.3437 -0.0069
23428W        W42962  12.506   5.467   2.612 -0.4228  0.0176 -0.0419
23429W        W42963   0.489   7.121   0.646 -0.2616  0.1466  0.1518
23430W        W42964  10.430  14.838  15.601  0.0315 -0.1817 -0.3178
23431W        W42965  11.946   9.342  12.014  0.4204  0.0784  0.3590
23432W        W42966   2.906  12.645   3.577 -0.5058  0.0448 -0.1539
23433W        W42967   4.406   1.705  15.057 -0.1007 -0.3551 -0.1064
23434W        W42968   0.613   6.598   2.210 -0.1279 -0.1421  0.0766
23435W        W42969   3.016   4.548  11.635 -0.0924 -0.1127 -0.0018
23436W        W42970  17.057   1.393  14.436 -0.0191  0.0174  0.1639
23437W        W42971   7.598   0.504   1.409  0.0784 -0.0338  0.2084
23438W        W42972  10.765   4.797  15.808 -0.1336 -0.0255  0.0560
23439W        W42973  10.664  16.793  11.930  0.1765  0.1961  0.0623
23440W        W42974  12.885  18.084   4.940  0.0058 -0.1274 -0.0546
23441W        W42975   2.778  17.678  11.637 -0.2521  0.1128 -0.0865
23442W        W42976   6.608  12.985   1.065  0.0233 -0.2644 -0.1672
23443W        W42977  10.554   3.442   2.323 -0.0200  0.0088  0.1029
23444W        W42978   1.981   8.405   1.799  0.0505  0.0245 -0.2364
23445W        W42979  14.309   4.256   2.864  0.0540  0.1933  0.1397
23446W        W42980   8.013   5.451   4.195  0.0888 -0.1315 -0.2063
23447W        W42981  10.365   8.740   5.014 -0.0353 -0.0083 -0.0242
23448W        W42982  10.656   7.983  11.901 -0.1740 -0.2169  0.1634
23449W        W42983  11.608  13.372  13.104 -0.0174  0.0789 -0.4025
23450W        W42984   9.257  10.367  13.849  0.2048  0.0972  0.2483
23451W        W42985   3.598  17.546  15.114 -0.0797  0.1084  0.0438
23452W        W42986   6.589   4.552   4.013  0.2460  0.3527  0.2566
23453W        W42987  15.973   5.146   1.394 -0.0773  0.0487 -0.2424
23454W        W42988   7.052   4.272   3.986 -0.0325 -0.2212  0.0330
23455W        W42989  12.157   4.484   4.920  0.3409  0.0319 -0.2517
23456W        W42990  12.868   8.118   1.666 -0.0031 -0.0616  0.0059
23457W        W42991  12.599   3.829   0.881 -0.1411  0.2131  0.2172
23458W        W42992   1.292   4.816  12.845  0.1537 -0.0719  0.1874
23459W        W42993  16.282  12.388   1.434  0.0008 -0.1568 -0.2798
23460W        W42994  16.090  12.418   2.336 -0.1282  0.1480  0.0297
23461W        W42995  15.203   5.648   4.605  0.3254 -0.1459 -0.0787
23462W        W42996   7.361  11.705  14.477  0.2381 -0.1210 -0.0526
23463W        W42997   5.566  17.934  11.165  0.2288 -0.1017 -0.1372
23464W        W42998  13.054   0.023   0.588 -0.1152  0.1969  0.0077
23465W        W42999   7.353   5.070   1.298  0.2230  0.4957 -0.0200
23466W        W43000   9.985   0.076  11.823  0.1522 -0.0777  0.1713
23467W        W43001   5.059  17.420   1.203 -0.3060  0.0753  0.1300
23468W        W43002   7.983   2.297   0.237  0.1458 -0.0438 -0.1845
23469W        W43003  12.742   5.248  15.684 -0.1069 -0.1980 -0.1194
23470W        W43004  15.144   4.905   2.317  0.3331 -0.0096 -0.1477
23471W        W43005  11.275   5.172   3.149  0.1644  0.0316  0.1405
23472W        W43006   5.104  10.957   4.484 -0.0941  0.0922 -0.1117
23473W        W43007   0.210  13.607  11.832 -0.2486  0.0181  0.0154
23474W        W43008   1.306  11.882   1.282  0.1754  0.1822 -0.0842
23475W        W43009  16.668  13.763  15.298  0.0399  0.0759 -0.0959
23476W        W43010  10.440   2.687  13.424  0.0539  0.0556  0.0791
23477W        W43011   8.756   4.978  15.111  0.0851  0.0000  0.0829
23478W        W43012  11.221  14.013  14.050 -0.1633  0.1584 -0.0951
23479W        W43013  13.088   4.573  15.195 -0.3445  0.3816 -0.0481
23480W        W43014  11.151  13.843  13.118 -0.1672 -0.2126 -0.0768
23481W        W43015  13.009   5.112  12.459  0.0099 -0.1852  0.2173
23482W        W43016   3.258  10.389  13.560 -0.1371  0.1941  0.2570
23483W        W43017   5.613   0.786   0.736 -0.0099  0.1223  0.1187
23484W        W43018   9.713   5.386   3.538 -0.3345  0.0288 -0.0512
23485W        W43019  16.442   6.880   4.180 -0.0448 -0.3596  0.0651
23486W        W43020   0.674  11.502  13.674  0.0763  0.1864  0.0005
23487W        W43021   2.134  16.513  12.177 -0.1900  0.0640 -0.0127
23488W        W43022  15.693  16.213   4.982  0.0589  0.0217 -0.2431
23489W        W43023   2.872  15.217   3.067  0.1216 -0.0768 -0.0988
23490W        W43024  12.292   1.758  13.993  0.3347  0.1531  0.1265
23491W        W43025  13.151   0.202   1.158  0.0436 -0.0358  0.4373
23492W        W43026  10.359  13.309   1.834  0.1001  0.2320 -0.3116
23493W        W43027  10.927   3.497   3.637  0.3866 -0.1430  0.0445
23494W        W43028  15.776   3.701  12.158 -0.2006 -0.1339  0.2431
23495W        W43029  16.380   2.819   0.638 -0.2488  0.0723 -0.0703
23496W        W43030  13.230  12.074   3.165 -0.2179  0.1530 -0.2461
23497W        W43031  14.854   3.255  15.552  0.1537 -0.2552  0.0347
23498W        W43032  13.095  10.463   4.010  0.2013  0.3383 -0.0511
23499W        W43033  15.402  13.580  14.894  0.0868  0.2559 -0.3157
23500W        W43034  10.163  12.371   3.111  0.1342  0.1146  0.0527
23501W        W43035  14.301  17.841   4.377  0.1555 -0.1998  0.2990
23502W        W43036  14.290  15.750  10.536 -0.1246 -0.0178  0.1455
23503W        W43037   7.899  11.117   3.354 -0.2370 -0.2147 -0.2885
23504W        W43038   4.964  11.275  12.775 -0.1190 -0.1284  0.0003
23505W        W43039   6.419  10.645   0.234  0.0546  0.2052 -0.2304
23506W        W43040  12.859  14.241  14.447  0.2098 -0.1875  0.1573
23507W        W43041   8.865  17.905   3.923 -0.2103 -0.0052 -0.0337
23508W        W43042   5.433  10.919  11.195 -0.0886 -0.0905  0.3819
23509W        W43043  11.379  14.688   1.875 -0.0894  0.0264  0.0560
23510W        W43044   6.067  10.540  12.319  0.1024  0.2750  0.0348
23511W        W43045   1.801  16.913   2.431 -0.2039  0.1268  0.1559
23512W        W43046   7.594   1.349  11.733  0.3753 -0.3191 -0.1587
23513W        W43047  10.762  18.090  14.241  0.0026 -0.1086 -0.1379
23514W        W43048  12.065   4.601   0.999  0.0118 -0.1427  0.0662
23515W        W43049  10.760   3.028   2.826  0.0203 -0.0892 -0.0368
23516W        W43050  14.342   7.518  13.286  0.2982 -0.0284  0.1112
23517W        W43051   6.440  10.272  12.589  0.2640  0.0500  0.2424
23518W        W43052   1.492  10.373  11.413 -0.0543  0.0200 -0.1055
23519W        W43053   6.777   6.175  11.992 -0.3311  0.0506 -0.1090
23520W        W43054   0.743  15.456  15.523  0.1108 -0.0241  0.3677
23521W        W43055   7.103  14.068   2.379  0.1953  0.2024  0.0000
23522W        W43056   3.490   8.689  15.846  0.0476  0.1448 -0.1587
23523W        W43057   8.248   8.811   3.410  0.0558 -0.1360 -0.1224
23524W        W43058  16.136   2.739  13.828 -0.1033 -0.1885  0.1365
23525W        W43059  10.993  15.442   1.400  0.0952  0.1437 -0.0599
23526W        W43060   7.702  13.421   4.485 -0.2265  0.0984  0.1901
23527W        W43061   9.644   1.202   4.193 -0.2035  0.1967  0.0778
23528W        W43062   1.517  14.912  15.183  0.1228 -0.0124  0.0167
23529W        W43063   5.344  14.591  13.178 -0.3070 -0.1104 -0.0548
23530W        W43064  13.790  13.386  14.109 -0.0295 -0.0395 -0.1389
23531W        W43065   8.395  13.414   3.726  0.2282 -0.0145 -0.0318
23532W        W43066   2.637   8.001   2.373  0.0636 -0.3151  0.1201
23533W        W43067  12.559  12.786  13.807  0.2247  0.0722  0.2132
23534W        W43068  14.018  16.341   4.932 -0.0626  0.2429 -0.0824
23535W        W43069   8.463   4.240   3.918  0.0591 -0.1789 -0.1020
23536W        W43070   2.827   1.486  14.620 -0.1136 -0.2294  0.0083
23537W        W43071   4.530   9.661  13.322 -0.0538  0.2276  0.0383
23538W        W43072  17.694   1.569   4.128 -0.1239 -0.2175 -0.0904
23539W        W43073   5.157  16.954  11.658 -0.0712  0.2742 -0.1703
23540W        W43074  15.513   4.277   0.005  0.0242 -0.1212 -0.1278
23541W        W43075   7.235  12.151  13.333  0.0027 -0.0241 -0.0627
23542W        W43076  14.549   7.613   1.844 -0.0387 -0.0191 -0.0885
23543W        W43077  14.033  13.676   0.252  0.0110 -0.2825 -0.0180
23544W        W43078   9.710  14.253  14.686  0.0514  0.0318  0.2400
23545W        W43079   4.848   5.812  13.429 -0.1336 -0.2822 -0.2451
23546W        W43080  18.048  11.253  13.116  0.2933 -0.1762 -0.1989
23547W        W43081  12.776  10.453  13.217 -0.1920 -0.1431 -0.0800
23548W        W43082  11.964  10.662  14.208  0.1823 -0.0992  0.2397
23549W        W43083   8.550   2.569   4.030 -0.2632 -0.3449 -0.1582
23550W        W43084   6.211   1.051  11.536 -0.3734 -0.1368  0.0371
23551W        W43085  17.859  13.916  13.154  0.1056 -0.1135  0.1632
23552W        W43086   5.374  10.513  14.448 -0.1421  0.1198 -0.0234
23553W        W43087   7.388  13.172  13.404 -0.1119 -0.2441  0.0474
23554W        W43088  15.153   0.692  12.371 -0.1330  0.0798  0.1440
23555W        W43089  14.788   0.492  14.256 -0.1499  0.0802 -0.2693
23556W        W43090  12.712   8.577   2.108 -0.0259  0.0738 -0.1889
23557W        W43091  14.825   1.550  12.584  0.0791 -0.1580 -0.2274
23558W        W43092  13.917   5.792  12.100  0.1234 -0.0436  0.0529
23559W        W43093  12.147   7.623   2.242 -0.1762  0.1198 -0.0932
23560W        W43094  15.517  14.841  15.420 -0.2545 -0.2935 -0.6233
23561W        W43095  11.927   0.682   0.762 -0.1504  0.2085  0.1231
23562W        W43096  12.666  12.420   2.402  0.0377  0.1671 -0.0067
23563W        W43097   6.358  17.819   0.336  0.1233 -0.2408 -0.0708
23564W        W43098   7.395   2.396  12.247 -0.0353  0.0673  0.1730
23565W        W43099  17.690   1.821   1.715 -0.4962 -0.0772  0.0242
23566W        W43100   6.826  12.115  13.060  0.1310 -0.0828  0.1584
23567W        W43101  17.403  13.824   1.157 -0.2300  0.1261 -0.2603
23568W        W43102  14.823   8.030  13.926  0.0788 -0.2494  0.0915
23569W        W43103  11.004   3.996   1.663 -0.0929  0.1205 -0.0365
23570W        W43104   4.624   2.236   3.907 -0.1083 -0.1876  0.0362
23571W        W43105   2.874   7.342  15.883 -0.1352  0.3132 -0.0436
23572W        W43106   4.750   6.181   0.949 -0.1583 -0.0721  0.0613
23573W        W43107  14.780   4.071  14.275 -0.2178 -0.3341  0.1861
23574W        W43108  17.975   6.187  15.319 -0.1179 -0.2517 -0.0942
23575W        W43109  13.853  15.444  15.098  0.3386 -0.1611 -0.1602
23576W        W43110  17.815   9.296  13.141 -0.1763  0.0522  0.1838
23577W        W43111   6.504  14.258   4.414  0.2219  0.0953  0.0225
23578W        W43112   9.955   1.988   3.429  0.1589  0.2370 -0.3761
23579W        W43113  17.278   2.329   4.299 -0.1617 -0.1424 -0.0703
23580W        W43114   7.618  11.573  15.864  0.2642  0.2878 -0.1182
23581W        W43115   3.068  10.788   3.607  0.1077 -0.3729 -0.1267
23582W        W43116   6.477   4.473   2.842  0.1156  0.2529 -0.1373
23583W        W43117  13.946   7.571   2.913  0.0346  0.2847  0.1310
23584W        W43118  11.469  12.886   1.280  0.2663  0.1964  0.0129
23585W        W43119  10.371   2.629  13.947  0.3031 -0.0742 -0.1411
23586W        W43120   8.894  10.711   4.185 -0.1418  0.2014 -0.3026
23587W        W43121   9.511   0.764  15.048  0.0528 -0.2365 -0.0806
23588W        W43122  13.709  12.086  14.604 -0.0274  0.5222 -0.1264
23589W        W43123  17.335   4.672  15.566 -0.1025 -0.2029  0.2169
23590W        W43124  17.685   5.584   2.784 -0.3727  0.2137  0.1749
23591W        W43125   9.036   3.166   2.389  0.1907  0.0721 -0.1878
23592W        W43126  12.626  12.077  12.708 -0.1274  0.0080  0.1514
23593W        W43127   7.000   3.725  15.059 -0.0325  0.2164  0.2761
23594W        W43128  11.361  16.358   1.588 -0.0026 -0.3863  0.1503
23595W        W43129   5.458  15.672  14.362  0.0964 -0.2215  0.1412
23596W        W43130   2.861  14.248   3.239 -0.1755 -0.1215 -0.1136
23597W        W43131  11.125  17.763  11.193  0.1579  0.0032  0.0154
23598W        W43132   1.092  13.212  13.475 -0.1614  0.1357  0.0979
23599W        W43133   2.695  14.266  15.718  0.0797  0.2194  0.1604
23600W        W43134  12.615  11.589  13.033 -0.2486  0.0257 -0.0982
23601W        W43135   1.881   8.986  14.478  0.0311  0.1059 -0.1765
23602W        W43136  12.411   3.104  14.527 -0.0110  0.2197 -0.0741
23603W        W43137   4.555   3.459  13.833  0.2263 -0.1133  0.2185
23604W        W43138  12.080  10.389   4.302  0.0026 -0.1177  0.2033
23605W        W43139  10.112  13.419   3.476  0.3526 -0.1756  0.0052
23606W        W43140  13.260   2.702  14.544  0.0897 -0.0032 -0.1929
23607W        W43141   7.311  11.152   5.459  0.0041  0.1181  0.0021
23608W        W43142   1.804   5.145  12.920  0.3432 -0.0617 -0.0393
23609W        W43143  13.351   7.558   1.032 -0.0802 -0.0678  0.0013
23610W        W43144   2.330  11.321   2.592  0.1066  0.1258 -0.4170
23611W        W43145   1.495  15.090  12.036 -0.0277  0.1578  0.1797
23612W        W43146   2.467  14.254  11.437  0.0237 -0.0013 -0.1070
23613W        W43147   9.214  14.681   3.551  0.2965 -0.0201 -0.1378
23614W        W43148  10.080  17.578  12.830 -0.4533 -0.3209  0.0778
23615W        W43149  16.024   8.422  13.004 -0.2403 -0.3289 -0.2103
23616W        W43150   9.252   9.956   1.734  0.1204 -0.0694 -0.0018
23617W        W43151   4.046  15.952   2.525  0.0559  0.2681  0.3597
23618W        W43152  14.394  14.886   4.041 -0.2063 -0.5527  0.0067
23619W        W43153   0.285   4.087   4.502  0.1903 -0.1521 -0.1697
23620W        W43154  17.543  10.407  12.182 -0.3114  0.0607  0.0604
23621W        W43155   6.734   4.013   2.553 -0.0011 -0.3323  0.1140
23622W        W43156   5.778   7.514  12.125  0.1917 -0.1689  0.1637
23623W        W43157  12.063   0.634  15.700 -0.0550 -0.1763 -0.1979
23624W        W43158  17.479  16.941   1.108  0.0807  0.0166 -0.0988
23625W        W43159   6.302  11.778   4.394  0.2329  0.2775 -0.0534
23626W        W43160  15.275   0.616   4.241  0.1440 -0.0165 -0.0701
23627W        W43161  10.111  17.673   3.525 -0.0776  0.1866 -0.1173
23628W        W43162   8.999   4.784   2.358  0.2805 -0.1233  0.0033
23629W        W43163  11.208  12.551  13.543  0.0656  0.0280 -0.2697
23630W        W43164  11.365   5.567  12.892 -0.0828  0.0728  0.0385
23631W        W43165  12.221  13.108   2.858  0.3153 -0.2840 -0.0895
23632W        W43166   1.681  17.660   1.210 -0.0373 -0.1272  0.2355
23633W        W43167   4.881   2.341  11.590  0.0014 -0.2369 -0.0528
23634W        W43168  14.736  15.746   5.851  0.0908 -0.0124  0.0704
23635W        W43169  15.584  17.528   3.368  0.0225 -0.1669  0.1309
23636W        W43170  11.493   1.683  12.540  0.3031 -0.1361  0.0009
23637W        W43171  11.180  17.510   2.236  0.1560  0.1397 -0.1717
23638W        W43172   7.096  15.091   1.450 -0.0015 -0.2880  0.0635
23639W        W43173   6.547  14.989   3.122 -0.1543  0.1625 -0.0856
23640W        W43174   8.080  14.908  14.140 -0.1503 -0.0311 -0.4491
23641W        W43175   7.089   9.660  12.799 -0.1117 -0.2272 -0.0187
23642W        W43176  13.253   2.261   2.046 -0.0373 -0.2336  0.4912
23643W        W43177   8.105  10.119   0.785  0.1787  0.2141  0.1704
23644W        W43178   8.523  17.056  12.291  0.0912 -0.0405 -0.4113
23645W        W43179   9.891  16.231  15.340  0.1766 -0.0043 -0.1267
23646W        W43180  14.564   8.260  14.574  0.1767 -0.1575  0.3868
23647W        W43181  14.791   7.560   2.402 -0.0381 -0.0885 -0.3299
23648W        W43182   6.941   1.951   1.749  0.1414 -0.1600 -0.0941
23649W        W43183  16.331  11.572  14.298  0.0664  0.2721 -0.2536
23650W        W43184   8.573   7.188   0.761 -0.0251 -0.4417 -0.2154
23651W        W43185  12.729   3.485   4.276 -0.0093 -0.0404 -0.0042
23652W        W43186  15.204  10.367   1.782  0.2716  0.0414  0.0157
23653W        W43187   8.658   8.902  15.209  0.1634  0.1240  0.1130
23654W        W43188  12.286   0.656   1.116 -0.1210  0.0844 -0.0239
23655W        W43189  16.320   0.099   1.862 -0.0802 -0.0609  0.1847
23656W        W43190  11.050  15.366  15.114  0.0086  0.0268  0.1501
23657W        W43191   6.614  17.072   3.547 -0.0209  0.0133  0.2832
23658W        W43192  13.834  10.868   1.200  0.3716  0.1103 -0.0456
23659W        W43193   7.984   5.918  11.256  0.1375 -0.1755 -0.0141
23660W        W43194  14.205   1.473   4.892 -0.2191  0.0153 -0.1895
23661W        W43195  15.549   4.477   1.830  0.2917 -0.0523  0.0420
23662W        W43196   7.715  15.605  13.727  0.0914 -0.1184 -0.0306
23663W        W43197  15.869  12.776  11.157  0.2897 -0.0357 -0.1390
23664W        W43198   4.488   2.798   2.935  0.3366 -0.0685 -0.2536
23665W        W43199   3.315  13.822  14.138 -0.2209 -0.0060  0.2072
23666W        W43200   4.615   1.646  13.332  0.1409 -0.2922 -0.0668
23667W        W43201   3.711  12.415  14.249  0.0143  0.4646 -0.2542
23668W        W43202  13.936  16.407   3.412  0.0159 -0.0717 -0.0123
23669W        W43203  16.669   9.254   1.249  0.1045 -0.0282  0.1814
23670W        W43204   6.045   4.848  14.273 -0.0349  0.0438 -0.1825
23671W        W43205  17.078  11.262   3.415 -0.1521 -0.1170 -0.1489
23672W        W43206  15.635   0.698   0.549  0.1789 -0.2368 -0.3294
23673W        W43207  17.874  15.706   2.325  0.0811  0.1924  0.2695
23674W        W43208   9.570   0.166   0.649 -0.3062  0.0110  0.0340
23675W        W43209   4.144   4.822  11.687  0.1731  0.3672 -0.1433
23676W        W43210   3.640   2.881   1.312  0.2769  0.2246  0.0197
23677W        W43211  13.499  10.672   3.817 -0.2026 -0.2993  0.3152
23678W        W43212   7.460   4.209   1.454  0.1348  0.0265 -0.1798
23679W        W43213   0.855   0.333   4.157 -0.0736  0.1645 -0.1332
23680W        W43214   0.260  10.789  12.547  0.2327  0.0577  0.0223
23681W        W43215  14.258   2.404   3.554  0.0953  0.4565 -0.0316
23682W        W43216  12.495   6.701  12.245  0.1723 -0.1335  0.2157
23683W        W43217   7.791  10.322  13.538 -0.0070  0.0935  0.0739
23684W        W43218  16.577   6.311   2.772 -0.0431 -0.4526 -0.0087
23685W        W43219   2.281  11.855   1.594  0.0660 -0.0015  0.2490
23686W        W43220  10.340  10.891   1.887 -0.0401  0.0201 -0.0715
23687W        W43221  12.665   1.760  14.344 -0.1061  0.0495 -0.0017
23688W        W43222   6.202  10.677   2.578 -0.1947 -0.1796 -0.0644
23689W        W43223  16.773   3.229  10.532 -0.0424 -0.0007  0.2215
23690W        W43224  16.730   1.024   0.543 -0.1002 -0.1246 -0.1766
23691W        W43225   3.099  12.773   3.086  0.0681 -0.0737 -0.1379
23692W        W43226  16.563   7.576  13.747 -0.0756 -0.2077 -0.3611
23693W        W43227   9.957   6.740  14.305 -0.1173  0.0271  0.0647
23694W        W43228  16.376  18.091  12.326 -0.1548  0.0885  0.2196
23695W        W43229  11.156  15.384   1.872 -0.0499  0.2742  0.0134
23696W        W43230   3.719   2.302  14.694 -0.0698 -0.2971  0.1126
23697W        W43231   6.700   6.767  15.045 -0.0862  0.2541  0.0631
23698W        W43232   1.246   9.353  14.963 -0.4137  0.1061 -0.1833
23699W        W43233   7.228   6.259  11.758 -0.0406 -0.4201 -0.2602
23700W        W43234  12.711  12.730  12.000  0.1295  0.2949 -0.0805
23701W        W43235  11.785   4.485  13.130 -0.1481  0.0574  0.0493
23702W        W43236   2.266  11.905  14.004 -0.0653 -0.4395  0.0343
23703W        W43237   4.709  11.536   0.003 -0.0818  0.3302  0.0705
23704W        W43238  14.713   0.038  11.657  0.2279 -0.1169 -0.1638
23705W        W43239   9.348  13.090  13.197  0.0750  0.0871 -0.2161
23706W        W43240   6.168   5.565   3.224  0.3502  0.1485  0.0006
23707W        W43241  10.932   0.246   4.615 -0.0422  0.0915 -0.0444
23708W        W43242  14.159  10.909   0.074 -0.3411 -0.1257 -0.1308
23709W        W43243   1.266   6.560  11.753 -0.1561 -0.1782 -0.2288
23710W        W43244  14.805   3.826  13.474 -0.0556  0.2023  0.4345
23711W        W43245  17.262   1.123  13.557  0.0259  0.1843  0.0452
23712W        W43246   2.904   0.966  15.317 -0.0676 -0.3103 -0.0328
23713W        W43247   5.053   5.411  13.067 -0.6205  0.0420 -0.0964
23714W        W43248   4.637  11.728   1.481 -0.1478 -0.0303 -0.2090
23715W        W43249  17.246   5.911   0.870 -0.2503 -0.0592  0.0826
23716W        W43250  14.113  13.410   1.107 -0.2351  0.1305 -0.0363
23717W        W43251  14.768   1.612  15.486  0.1542 -0.2123  0.1726
23718W        W43252  14.824   4.939   4.097 -0.1676  0.1498  0.0392
23719W        W43253  13.619   3.222  10.453  0.0074  0.0063 -0.0497
23720W        W43254  16.935  16.759  16.019  0.1450  0.0939 -0.1372
23721W        W43255  10.913   0.030  14.793  0.2623  0.0300  0.1184
23722W        W43256  13.196  11.786   2.039  0.0689  0.0606 -0.0552
23723W        W43257   8.624  16.056  15.061  0.1654  0.1825  0.2509
23724W        W43258   8.556  16.897  12.742 -0.0413 -0.2281 -0.0394
23725W        W43259  16.858  10.890   5.675  0.2579 -0.1928  0.0150
23726W        W43260  15.706   7.049   1.310  0.0126  0.0470  0.2880
23727W        W43261   8.291   9.282   2.158  0.2551 -0.2176  0.2423
23728W        W43262  16.936   8.474   3.613 -0.4096  0.1688  0.2890
23729W        W43263   0.679  13.419   0.265 -0.0548 -0.3748  0.0829
23730W        W43264  10.265   0.111   0.276 -0.1160 -0.0575  0.0257
23731W        W43265  10.322   2.774   4.170  0.1922  0.2180  0.1659
23732W        W43266  13.481   0.165   4.462 -0.2042 -0.0715 -0.3254
23733W        W43267   8.787  10.491  15.376 -0.1590 -0.1186  0.0255
23734W        W43268   8.703  17.900   0.618  0.4224 -0.2224 -0.2966
23735W        W43269   0.526  11.411   2.893 -0.0253  0.2348 -0.1909
23736W        W43270   5.826  17.797  15.066  0.3191 -0.1430 -0.4079
23737W        W43271   2.596   7.723  15.892 -0.1526 -0.2830 -0.0781
23738W        W43272   0.628  13.858   0.949 -0.0985  0.1259  0.1093
23739W        W43273  11.742   9.451   4.196 -0.2264 -0.1070  0.1476
23740W        W43274   1.044  13.190   1.622  0.0805  0.0210 -0.1116
23741W        W43275  15.135  10.981   2.926 -0.1767  0.0210 -0.2236
23742W        W43276   3.387   7.899   2.916 -0.0729  0.2443  0.0580
23743W        W43277  10.492   5.675   2.141 -0.1494  0.0033 -0.2708
23744W        W43278  10.793   3.163  15.643  0.3130 -0.1007  0.2052
23745W        W43279   2.423  12.626  14.347 -0.2213 -0.1814 -0.2235
23746W        W43280   0.798   4.466   3.903  0.0585 -0.1407  0.1267
23747W        W43281   7.242  17.840  15.106  0.3002 -0.1207  0.0296
23748W        W43282   2.189   1.997   4.603  0.3639 -0.0197 -0.0021
23749W        W43283   5.894  15.650  15.286 -0.0308 -0.0934 -0.3873
23750W        W43284   7.634   5.868  14.306 -0.2350  0.1587 -0.1853
23751W        W43285   7.684   4.060   1.012 -0.3033  0.1272 -0.1076
23752W        W43286  16.926   5.809  15.417  0.1257  0.1925 -0.2225
23753W        W43287   8.470  16.203   2.069  0.1371  0.0081 -0.1172
23754W        W43288   4.775  11.252   1.372 -0.0399 -0.2393 -0.0403
23755W        W43289   8.957  18.080  14.027 -0.0253  0.0293  0.0071
23756W        W43290  10.356   8.220  10.982 -0.1178  0.0268  0.3043
23757W        W43291  11.231  10.514  13.584  0.3845 -0.3525 -0.3334
23758W        W43292   9.339  11.383   1.203  0.0434 -0.0986  0.1883
23759W        W43293   4.358  15.919  14.973  0.0876  0.1234 -0.0371
23760W        W43294  12.141  14.437   3.030  0.1247 -0.1170 -0.1567
23761W        W43295  17.670  11.388   0.690 -0.0422 -0.3048 -0.0715
23762W        W43296  10.952  16.983  15.533 -0.1683  0.1989 -0.0860
23763W        W43297   3.853  12.289   0.421 -0.1206 -0.0535  0.0985
23764W        W43298   7.327  11.326   4.868  0.1411  0.2412  0.3286
23765W        W43299   9.140   3.746  11.945  0.0157 -0.2108 -0.1509
23766W        W43300  14.953   8.758  11.735 -0.2653  0.1032 -0.1068
23767W        W43301  12.234  12.628   2.638 -0.1338 -0.1151  0.1221
23768W        W43302   5.990  17.668  11.030 -0.1323 -0.1192  0.0161
23769W        W43303   2.096  11.786   4.509 -0.0717 -0.1992 -0.0183
23770W        W43304   0.075  11.549   2.140 -0.3126  0.3287  0.0248
23771W        W43305   0.217  12.320   0.914  0.1883 -0.2406  0.1540
23772W        W43306  12.334  15.646   0.967 -0.0129 -0.2817  0.2099
23773W        W43307  18.128   0.276  15.637 -0.0945  0.3934 -0.2175
23774W        W43308  16.692   4.384   3.400 -0.2660 -0.0779  0.2566
23775W        W43309  16.721   9.400   3.583 -0.0963 -0.0792  0.2057
23776W        W43310  17.455  13.604  14.609 -0.1689 -0.4236 -0.2166
23777W        W43311   5.084   7.479  14.614 -0.1282  0.4176  0.0912
23778W        W43312   6.491   7.445   2.542 -0.0176  0.0036  0.3178
23779W        W43313   1.324   0.053   0.308  0.2276  0.0394  0.0681
23780W        W43314   8.378  11.624  13.474 -0.0114  0.0318  0.1065
23781W        W43315  15.677   6.978   0.665 -0.0888  0.1408  0.0475
23782W        W43316   5.231   9.692  15.497  0.4028 -0.0979  0.1064
23783W        W43317  16.203   1.740   3.641 -0.1984  0.0197  0.0409
23784W        W43318   6.972  15.314   3.153 -0.1120 -0.3857  0.1338
23785W        W43319  13.790   0.437  14.800 -0.0378  0.1212  0.1296
23786W        W43320   9.721   5.136  13.076  0.1540 -0.1603 -0.3945
23787W        W43321  17.953  17.423  12.755 -0.0223  0.3385  0.0993
23788W        W43322  17.679  16.412  12.163  0.1294 -0.1716  0.2424
23789W        W43323  11.646   3.068   3.879  0.1492  0.2437  0.1870
23790W        W43324   6.694  11.046  14.589 -0.1947 -0.0772 -0.0362
23791W        W43325  10.725  18.186   0.015 -0.0555 -0.1051 -0.1976
23792W        W43326   0.521   5.063   2.649 -0.1712  0.1085  0.1375
23793W        W43327   8.326  11.515   4.906 -0.2187  0.0979  0.1383
23794W        W43328   2.632   6.148  12.869 -0.3363  0.1613  0.2480
23795W        W43329  13.201  10.519   2.377 -0.0061 -0.2313 -0.1716
23796W        W43330   3.547  10.876   3.622 -0.1911  0.1372  0.1658
23797W        W43331  15.692  13.773  13.122  0.1105 -0.0478  0.1120
23798W        W43332   8.388   3.712   1.575 -0.0193 -0.0743 -0.1400
23799W        W43333   2.825  15.559  12.951  0.0560 -0.0385 -0.0831
23800W        W43334   9.124   3.527  14.966  0.4292 -0.0948  0.2705
23801W        W43335  10.935  13.059   4.152  0.0905  0.0493  0.0117
23802W        W43336   1.138   3.284   4.354 -0.0845  0.2333 -0.0118
23803W        W43337  11.269  12.317   0.670 -0.0594 -0.1588  0.1081
23804W        W43338  16.113  11.409  11.939  0.0543  0.1077  0.0698
23805W        W43339  13.129  13.847   2.139  0.1947 -0.3710 -0.1943
23806W        W43340   6.740  15.577  15.114 -0.1078 -0.0131 -0.0435
23807W        W43341   3.471  10.687   2.344 -0.0973  0.1407  0.2842
23808W        W43342  16.116  18.102  11.842 -0.1459 -0.1033  0.1128
23809W        W43343  16.782   5.372   2.932 -0.2281  0.0713  0.0873
23810W        W43344   6.325  12.291   1.914 -0.0136 -0.0920 -0.2223
23811W        W43345   4.255   6.335  12.510 -0.2470  0.0001  0.1137
23812W        W43346  12.092   4.516   5.404 -0.0931  0.2992 -0.1504
23813W        W43347  12.715  11.681  12.051  0.2249 -0.2290  0.1792
23814W        W43348   8.368   2.597   1.072  0.0097  0.0245  0.0652
23815W        W43349   7.409   2.662  14.064  0.1468 -0.1115  0.1368
23816W        W43350   4.730  18.002   2.001 -0.0338  0.0978  0.2162
23817W        W43351  11.849   9.904  13.959 -0.1944 -0.1898 -0.1944
23818W        W43352   5.644   8.435  11.797  0.0764  0.1239 -0.0843
23819W        W43353   2.025  10.703  14.769 -0.1895  0.1833  0.2489
23820W        W43354  12.262  13.067  11.949  0.0131 -0.2344 -0.2481
23821W        W43355   5.874   0.247  12.576  0.1361  0.0181 -0.0187
23822W        W43356  10.017  10.633  14.743 -0.4272 -0.0277  0.0944
23823W        W43357  13.454   0.433   2.818  0.0194  0.1105 -0.0963
23824W        W43358   3.474   7.016   0.677  0.0042  0.1032  0.0550
23825W        W43359   4.902   0.486   3.962  0.2750 -0.0927 -0.1288
23826W        W43360   1.492  16.412   1.730  0.1592  0.3289  0.0295
23827W        W43361  17.629  10.430  13.063  0.1084  0.1577  0.0807
23828W        W43362   7.776   7.096  12.043 -0.1619  0.1978 -0.1177
23829W        W43363  16.360  10.538  12.477 -0.0206  0.0756  0.2430
23830W        W43364  10.183  14.393   0.244  0.3305  0.2071 -0.0436
23831W        W43365   2.591   9.934  12.345  0.0391  0.1273 -0.0706
23832W        W43366   0.320   6.544   0.747 -0.4380 -0.0226  0.0461
23833W        W43367  15.061   4.483   2.107 -0.0226 -0.0652  0.0474
23834W        W43368   6.796   9.010  12.144 -0.0695  0.0347 -0.0545
23835W        W43369  13.814   6.312  14.680 -0.0159 -0.1258  0.0708
23836W        W43370   3.491  11.997  14.569 -0.1912  0.0005 -0.3256
23837W        W43371   2.719   1.119   4.118  0.1623  0.1848  0.1317
23838W        W43372   4.021   1.509   3.966 -0.5097 -0.0467 -0.0416
23839W        W43373  11.946   0.073   4.306  0.2895 -0.0984  0.0352
23840W        W43374   6.345  15.555  15.575 -0.1406  0.0154 -0.2846
23841W        W43375  17.955  10.463   1.963  0.1584 -0.0390  0.2272
23842W        W43376  11.736  12.285  15.392 -0.0880 -0.0145 -0.2362
23843W        W43377   7.421   2.794  16.000  0.2788 -0.2076 -0.1387
23844W        W43378  16.919  12.569   4.160 -0.0247  0.0756 -0.0518
23845W        W43379  10.086  12.969  12.906  0.3992  0.2229  0.2375
23846W        W43380   8.531  17.618   1.012 -0.1782 -0.0173  0.2399
23847W        W43381   1.184   5.234  11.596 -0.1036  0.1881 -0.0534
23848W        W43382  13.775  11.762   0.361 -0.2640 -0.0442 -0.3370
23849W        W43383   8.434   6.321  14.953  0.0437 -0.1901  0.0587
23850W        W43384   2.190  13.523  12.915 -0.1980  0.0655  0.1759
23851W        W43385   1.599  16.887   1.798  0.2615 -0.1975  0.1397
23852W        W43386  13.387  15.489   2.835  0.2006  0.1313  0.2153
23853W        W43387  11.603   9.445  13.960  0.0668  0.1805 -0.1342
23854W        W43388   1.965   5.175  11.942  0.1469 -0.2857  0.1941
23855W        W43389   1.556   3.927   1.842  0.1308 -0.0560 -0.0708
23856W        W43390  13.874  10.233   3.180  0.0176 -0.0351  0.1174
23857W        W43391  12.290   6.729  13.459  0.1363 -0.0598  0.1202
23858W        W43392   5.864  10.238   3.460  0.1867  0.2527  0.1100
23859W        W43393   5.701   1.771  12.703 -0.0199 -0.1307 -0.1080
23860W        W43394   0.594  16.037   2.235 -0.0345  0.0123 -0.3279
23861W        W43395   2.142   8.046   2.631 -0.0837 -0.5800 -0.3498
23862W        W43396   9.182  16.452   1.439 -0.0065 -0.1108 -0.0514
23863W        W43397  12.831  11.688   3.139 -0.0585  0.0262  0.0996
23864W        W43398   2.878   1.427  13.877 -0.0791 -0.0453 -0.1943
23865W        W43399   3.995   3.286   3.385  0.2750  0.3344  0.1112
23866W        W43400  15.238   4.536   2.787  0.1664  0.0871  0.0957
23867W        W43401  15.440  17.507   1.711  0.0493 -0.0649  0.0384
23868W        W43402   6.940  16.212   2.276 -0.0688 -0.0555  0.2694
23869W        W43403  17.034  13.655   0.513  0.0689  0.1767 -0.1987
23870W        W43404  14.917   4.395  11.112 -0.1993  0.4042 -0.1471
23871W        W43405  16.381   8.347  11.569  0.1765  0.0769 -0.1056
23872W        W43406   6.162   4.710  10.449 -0.2562  0.5065 -0.1671
23873W        W43407   6.015   2.640   3.735 -0.0619 -0.0823  0.1517
23874W        W43408   1.570  11.398  15.260  0.0148 -0.2145  0.0705
23875W        W43409   8.854   8.271   3.990  0.0666 -0.0698 -0.1965
23876W        W43410   6.850  16.687  11.703  0.2599 -0.2116 -0.0785
23877W        W43411   7.947  12.010   3.446 -0.1183 -0.1123  0.2028
23878W        W43412   8.200  11.421  10.814 -0.0030 -0.3401  0.3174
23879W        W43413  11.462   0.155   4.351 -0.0428 -0.0675 -0.2932
23880W        W43414  15.230   8.047   4.272 -0.0324  0.1905 -0.0772
23881W        W43415   0.896   9.204  13.278 -0.0734 -0.0314  0.0432
23882W        W43416  14.492  12.410   0.081  0.3058 -0.2227  0.1748
23883W        W43417  16.909   5.298  14.059  0.1243 -0.0700 -0.0268
23884W        W43418   4.608  15.937  13.201 -0.2240  0.0039  0.0026
23885W        W43419   4.628   7.258   3.144  0.1727  0.0735  0.3633
23886W        W43420   0.604  11.804  15.455 -0.2180  0.1428 -0.3353
23887W        W43421  11.794  15.743   0.814 -0.2918  0.0972  0.2496
23888W        W43422   4.918  16.619  11.303  0.0277 -0.2384  0.2025
23889W        W43423   8.772  16.599   4.327 -0.2650  0.0812  0.0892
23890W        W43424  10.323  16.325  15.592 -0.0602  0.1621  0.1593
23891W        W43425   8.031  12.108   1.781 -0.0666 -0.0665  0.1066
23892W        W43426  15.866  13.005   1.768  0.2408 -0.0365 -0.0910
23893W        W43427   6.837   4.814  15.745  0.0401  0.1146  0.1901
23894W        W43428   6.498   1.262   2.082 -0.1548 -0.1075  0.0683
23895W        W43429   7.231   6.233  15.616  0.3032  0.2516  0.0741
23896W        W43430   5.850   1.646   1.444  0.0211 -0.0152 -0.0204
23897W        W43431  14.281   8.695   1.113  0.2087 -0.0959  0.0620
23898W        W43432   3.177   1.058   1.932  0.3511  0.0170  0.1347
23899W        W43433   3.655   1.488  11.699  0.0008  0.1474 -0.2103
23900W        W43434  11.719   4.095  12.344 -0.0671 -0.1403  0.1049
23901W        W43435  11.429  16.946  13.839  0.0705 -0.1121 -0.0252
23902W        W43436   3.928   7.270  13.623 -0.0980  0.0601  0.0693
23903W        W43437  17.907  13.676   1.006  0.2326 -0.1493 -0.0970
23904W        W43438   7.682   7.520  14.874 -0.0183  0.0973 -0.1602
23905W        W43439  15.940   4.292  15.769 -0.0677 -0.1528 -0.1978
23906W        W43440   6.486  11.445   2.947 -0.2602  0.0370  0.1104
23907W        W43441  14.701  10.208  15.569 -0.3486 -0.2053  0.0383
23908W        W43442   7.911   7.145  14.606  0.3843  0.3348 -0.1160
23909W        W43443  14.671  10.126   3.579 -0.1281 -0.0548  0.2574
23910W        W43444  17.867   5.272   1.590  0.0296  0.0902 -0.0353
23911W        W43445  13.980  12.422   2.321 -0.3371  0.0556 -0.1816
23912W        W43446  16.391   5.580   0.610  0.0529  0.1687  0.4037
23913W        W43447  14.600  11.428  12.085  0.1311 -0.0802  0.2821
23914W        W43448   7.435  17.978   0.073  0.2715 -0.0761  0.1143
23915W        W43449  14.310   5.268   2.036 -0.1509 -0.1687 -0.3703
23916W        W43450   1.089   1.975   3.875  0.0999 -0.1922  0.0361
23917W        W43451  18.169   2.704   0.698 -0.0416  0.1603 -0.0619
23918W        W43452   2.171  18.053  15.656  0.1643 -0.2332  0.0626
23919W        W43453  16.179   1.015   2.678  0.0787  0.3416 -0.0731
23920W        W43454   7.738   7.756  13.416  0.0269 -0.0989 -0.0311
23921W        W43455   9.900  10.119  14.576  0.4811 -0.0251 -0.0707
23922W        W43456   1.038   5.581  12.858  0.1531 -0.2362  0.1536
23923W        W43457  13.594   4.878  13.476  0.0493 -0.2312  0.0664
23924W        W43458   9.031   4.275   4.708 -0.0954 -0.0410 -0.0050
23925W        W43459  14.052  12.628   0.145  0.0543 -0.1319  0.0650
23926W        W43460   1.721   2.937  15.368 -0.0548  0.1206 -0.2648
23927W        W43461   3.602  10.924   4.577 -0.1462  0.3448  0.0090
23928W        W43462  17.759   9.552  14.591  0.2603 -0.0118  0.3443
23929W        W43463  13.564   7.816   3.554  0.2690  0.1094  0.1164
23930W        W43464  13.169   1.275   0.399  0.1387  0.1763  0.3328
23931W        W43465  18.140   2.634  15.353 -0.0153 -0.0046 -0.0087
23932W        W43466   4.272   9.103  12.719 -0.1032  0.0877 -0.2058
23933W        W43467  10.688   0.037   0.699  0.0097 -0.3185 -0.0999
23934W        W43468   2.351  12.465  12.892 -0.3924 -0.3123  0.0010
23935W        W43469   9.494   3.745  13.462  0.1710  0.0499  0.0831
23936W        W43470   6.593  13.011   5.726 -0.0328  0.3555  0.4448
23937W        W43471   9.534   4.722  14.591 -0.0081 -0.1730  0.1109
23938W        W43472   9.288   0.448  13.174  0.0079  0.3369 -0.2513
23939W        W43473   9.814  16.870  11.474 -0.1848  0.2882 -0.0612
23940W        W43474  14.135   7.861  12.962 -0.1050  0.0560 -0.3537
23941W        W43475  10.023   7.250  13.601  0.0642 -0.1304 -0.0589
23942W        W43476   2.864   0.465   1.326  0.0834 -0.0476  0.2934
23943W        W43477  12.636  12.056   2.876  0.0455 -0.1172  0.2476
23944W        W43478  17.078  16.276  12.653  0.2272 -0.2653  0.2803
23945W        W43479   1.354  18.146  12.165  0.1659  0.1573 -0.1230
23946W        W43480  18.018  12.509   2.399 -0.0890  0.0607 -0.4021
23947W        W43481   1.455  12.595   3.105 -0.1734  0.1128  0.0164
23948W        W43482   9.543   7.379   2.467 -0.0223 -0.2025 -0.1397
23949W        W43483  14.274  11.065   0.952 -0.1149  0.0392 -0.2971
23950W        W43484  16.429  16.143   0.039  0.2097  0.1377 -0.2168
23951W        W43485   0.385   0.435  15.309  0.1695 -0.2646  0.3139
23952W        W43486  11.526   8.931   2.867  0.1551 -0.1975 -0.2364
23953W        W43487   5.615  17.689  13.142  0.1562  0.2188  0.1981
23954W        W43488   7.868   8.157   2.099  0.0543  0.0448 -0.1546
23955W        W43489  11.964   1.778  15.731  0.0108 -0.2474  0.1070
23956W        W43490  10.563   9.974  11.831  0.2962  0.1786  0.1178
23957W        W43491   4.749   2.292  13.901 -0.2612 -0.0556  0.0528
23958W        W43492   1.633  10.398  13.074  0.0015 -0.1298 -0.1669
23959W        W43493   4.181  11.569   3.513 -0.0444 -0.1766  0.1965
23960W        W43494   1.592  18.006   0.692  0.0047  0.2438  0.0860
23961W        W43495   3.498   8.143   1.588  0.1120  0.2000 -0.0849
23962W        W43496  10.967  16.297   1.902  0.0759  0.2410 -0.0215
23963W        W43497   7.132  15.715   4.144  0.1689 -0.0582  0.4503
23964W        W43498   6.457   1.102  15.630 -0.1109  0.1114 -0.1672
23965W        W43499  11.053   1.443  12.623  0.2311  0.3980 -0.0959
23966W        W43500  16.000   8.654  11.494  0.0444  0.0405 -0.0491
23967W        W43501  18.016   0.185   2.478  0.0714  0.2079 -0.1388
23968W        W43502   3.440  16.470  11.371 -0.0115 -0.1260 -0.0070
23969W        W43503   1.317   9.834  11.975  0.0239 -0.0023  0.1168
23970W        W43504  15.406   4.827  11.486  0.1355 -0.0994 -0.0505
23971W        W43505  15.170   5.847  14.229 -0.0532 -0.1282  0.0196
23972W        W43506   6.131   4.343  15.852 -0.3310 -0.1487 -0.1460
23973W        W43507  10.375   5.401   4.297 -0.1562  0.0342 -0.0292
23974W        W43508   0.513  17.677   3.224  0.1206 -0.2346  0.1354
23975W        W43509  12.033   3.375   3.597  0.0491 -0.2149  0.0424
23976W        W43510  10.020   5.628  11.913  0.1524  0.0585  0.0410
23977W        W43511  13.299   9.050  12.213 -0.1782 -0.2020 -0.3345
23978W        W43512  11.173  13.925   1.684 -0.2219  0.0690  0.0598
23979W        W43513  13.088   8.036   2.297 -0.1129 -0.0088  0.0739
23980W        W43514   8.385   3.586   0.798 -0.0307  0.1707 -0.3826
23981W        W43515   3.439   1.828  14.635  0.0523  0.0239  0.1957
23982W        W43516  15.825  11.623   3.497  0.0667  0.1102  0.2141
23983W        W43517  13.969  14.588   1.807 -0.0174  0.0799 -0.0158
23984W        W43518  13.286   1.228  13.188 -0.1547 -0.0713 -0.0389
23985W        W43519  10.702   2.801  15.198  0.0364  0.0151 -0.0449
23986W        W43520   4.503   1.454   5.304  0.0427 -0.2529  0.0074
23987W        W43521  12.875  13.894   2.613  0.2160 -0.0918  0.0553
23988W        W43522   7.498  15.956   0.572 -0.0750  0.0468  0.3571
23989W        W43523   6.152   1.151  12.464 -0.1937 -0.2704  0.0793
23990W        W43524  10.689   6.219   1.391  0.1604 -0.0178 -0.0577
23991W        W43525  14.782   3.563   0.325  0.1852 -0.2192  0.0807
23992W        W43526  15.671   6.315  13.953 -0.4608 -0.2044  0.1173
23993W        W43527  12.095   5.340   2.181  0.5490 -0.5296  0.0741
23994W        W43528   1.113  12.065   4.546 -0.1317 -0.0676 -0.1390
23995W        W43529   1.660   9.574  11.752  0.1906 -0.2809 -0.3328
23996W        W43530   0.866  16.911  14.567  0.0952  0.1029 -0.0984
23997W        W43531   5.678  13.034   2.972 -0.0377  0.0243 -0.0491
23998W        W43532   9.377   0.678  15.944 -0.0169 -0.0661  0.0015
23999W        W43533  17.067  14.982  15.836 -0.1969  0.0731  0.0372
24000W        W43534  12.106  16.137  11.698  0.1176 -0.2392 -0.0343
24001W        W43535  11.655   2.556  14.070  0.2540  0.0912  0.0825
24002W        W43536   7.566  11.602   1.397 -0.3002 -0.1343 -0.1840
24003W        W43537  14.014   0.190   4.527  0.2328  0.1918  0.0122
24004W        W43538   3.058  13.184   0.406 -0.0426 -0.0617 -0.2617
24005W        W43539   9.447  10.431  13.374 -0.4057  0.0790  0.1467
24006W        W43540   3.046  10.694  11.528  0.0979  0.3347 -0.1317
24007W        W43541   3.731  12.760   3.914 -0.1302  0.0594  0.0081
24008W        W43542  15.907  10.591   4.346 -0.0381  0.0434 -0.1700
24009W        W43543   2.795   9.408   1.016 -0.0450  0.1996  0.0764
24010W        W43544   7.390   8.987  13.495 -0.0043  0.2626  0.4221
24011W        W43545   1.271  10.074  11.065 -0.0861 -0.1421  0.0201
24012W        W43546   9.751   8.459   1.164  0.1740 -0.2055 -0.1788
24013W        W43547   8.837   3.179  14.714  0.3026 -0.0678 -0.0595
24014W        W43548  12.009   3.284  13.715 -0.1982 -0.0181 -0.2680
24015W        W43549  13.617  13.339   1.262  0.2716 -0.0845 -0.1510
24016W        W43550   8.255   4.658  13.068 -0.0014  0.0212  0.0391
24017W        W43551   8.258  10.409   1.810  0.0236  0.0264 -0.2352
24018W        W43552  10.920  17.512  15.424  0.1625  0.0192 -0.2340
24019W        W43553  15.454  12.691  12.167 -0.2142 -0.0687  0.3752
24020W        W43554  14.164   9.031   1.942  0.1865  0.0928  0.1265
24021W        W43555   0.880   7.655   0.120 -0.0754  0.1052  0.1094
24022W        W43556   0.846   6.003  13.120  0.0423 -0.0638  0.0726
24023W        W43557   0.184   2.948  15.742 -0.2083  0.0905  0.3066
24024W        W43558  16.306   8.390  14.996 -0.1713 -0.0193 -0.0692
24025W        W43559   6.247   4.993  15.077 -0.2906 -0.1960  0.0129
24026W        W43560   7.174  16.098  12.291  0.1790  0.3547  0.1654
24027W        W43561   0.641  11.138   3.360  0.1543 -0.1054  0.0350
24028W        W43562   5.323  12.130   0.697  0.1330  0.0125  0.1583
24029W        W43563  17.751   6.961   0.761 -0.1211  0.1562 -0.1494
24030W        W43564  17.887   1.508   0.165 -0.2381 -0.1315  0.1215
24031W        W43565   9.516   2.805  13.099 -0.1681 -0.3026  0.0905
24032W        W43566  17.807  14.188  12.745  0.3673  0.0481  0.1721
24033W        W43567   0.192  10.511   3.006 -0.1571  0.0076 -0.0925
24034W        W43568   3.848   1.952  11.926 -0.0317  0.0887  0.0450
24035W        W43569  12.160   8.463  11.826 -0.1157  0.0585  0.0067
24036W        W43570   6.952   8.331  15.848  0.0590  0.1065  0.0255
24037W        W43571   3.117  14.544   0.449 -0.0683  0.1632  0.0861
24038W        W43572   8.751   9.686  15.894 -0.1260 -0.0826 -0.1170
24039W        W43573   1.602  15.743   3.172 -0.0114 -0.0736 -0.2139
24040W        W43574  15.546   5.044   1.516  0.0114 -0.1564 -0.0992
24041W        W43575   3.156  14.379   2.548 -0.1943  0.0492  0.1871
24042W        W43576   2.552   0.244  15.741  0.1182  0.0769 -0.0344
24043W        W43577   0.308   2.755   3.150 -0.0051 -0.1793  0.1481
24044W        W43578  15.034   1.648   1.672  0.0560 -0.1848 -0.0608
24045W        W43579   7.674  10.651   2.441  0.0783  0.0244  0.2093
24046W        W43580  13.789   5.524   0.679  0.2081 -0.0451 -0.3902
24047W        W43581   1.186   9.154   1.845  0.0544 -0.0276  0.0021
24048W        W43582  14.248   9.809  12.501  0.1157  0.1333  0.1143
24049W        W43583   7.126   1.498   0.146  0.0140 -0.0664 -0.0054
24050W        W43584  16.967   9.962  12.742 -0.0144  0.1179  0.2662
24051W        W43585   0.285   3.093  12.870 -0.2730 -0.2185 -0.1769
24052W        W43586   5.902   9.925  14.999 -0.0350 -0.0317  0.0765
24053W        W43587   8.777   2.864  15.634 -0.1548  0.0338 -0.4091
24054W        W43588   2.994   8.546  13.201  0.1082 -0.1073 -0.3383
24055W        W43589   3.983   3.050  14.445 -0.0060 -0.0948 -0.0054
24056W        W43590  18.001   8.616   4.038 -0.1292 -0.3823 -0.2599
24057W        W43591   6.791  14.362   2.647 -0.0018 -0.1304 -0.1571
24058W        W43592  10.302  13.033  14.335  0.1964  0.2136  0.1883
24059W        W43593  11.686  14.108  13.099  0.0802 -0.1781  0.1804
24060W        W43594   7.102   3.832   2.960 -0.1944  0.1052  0.1002
24061W        W43595   8.602   6.576   1.896  0.2070  0.0566 -0.0528
24062W        W43596   7.517  10.237  12.253 -0.1258  0.0432 -0.1528
24063W        W43597   0.041  12.478   0.123  0.3487  0.0289 -0.0702
24064W        W43598  12.253   9.718   2.702  0.2697 -0.0155  0.2332
24065W        W43599  11.383   1.313   1.800 -0.1076 -0.1050 -0.1427
24066W        W43600  18.013   1.123  15.904 -0.2557 -0.0027 -0.1525
24067W        W43601   6.856   1.540  13.766 -0.1684 -0.0437  0.0342
24068W        W43602  10.524  14.174   5.808 -0.0387  0.0526  0.1163
24069W        W43603  12.254  11.559   2.662 -0.0408 -0.0751  0.2044
24070W        W43604   5.456  12.293   2.283  0.0193  0.0033 -0.0132
24071W        W43605   3.932  16.932  14.009 -0.1604  0.1628 -0.3283
24072W        W43606   3.508   1.761   0.292 -0.1066  0.3104 -0.0459
24073W        W43607   3.302  14.117   2.942 -0.0553 -0.1314  0.0091
24074W        W43608   6.169  15.205   1.383 -0.1501 -0.0409 -0.1993
24075W        W43609  10.989  15.246  13.323 -0.1451 -0.1294  0.2304
24076W        W43610   5.960   4.630   2.603 -0.1362  0.0963  0.0700
24077W        W43611   0.425  10.623   3.443 -0.0928  0.1958  0.2384
24078W        W43612  14.368   7.901   3.104 -0.2475  0.0931  0.0248
24079W        W43613  15.025   4.213   2.492  0.3090 -0.0989 -0.1032
24080W        W43614   9.249   4.139   0.341  0.0756 -0.3141  0.1430
24081W        W43615   0.499   7.320   1.651 -0.1153 -0.2093  0.1898
24082W        W43616   9.508  13.310  15.313  0.3062  0.2709 -0.1970
24083W        W43617   0.400  12.988   2.612  0.5989  0.0077  0.0821
24084W        W43618   6.876   7.601   2.814 -0.1104 -0.1284  0.0130
24085W        W43619  10.422   0.615  13.501  0.2646 -0.1012  0.3029
24086W        W43620   0.984  11.081   0.929  0.2580 -0.1382  0.3280
24087W        W43621  11.829  17.709   2.026  0.2448  0.1981  0.2022
24088W        W43622   5.291  16.957  12.658  0.4762  0.0975 -0.2218
24089W        W43623  17.456  11.673   3.426 -0.1634 -0.0072 -0.1394
24090W        W43624   2.749  13.377   0.913  0.1619  0.0620 -0.2219
24091W        W43625   6.228   8.913  11.194 -0.2021 -0.0359  0.1910
24092W        W43626  15.214   7.541   5.049  0.0207 -0.0694 -0.1844
24093W        W43627  12.155   2.626   0.795 -0.0693  0.0634  0.1370
24094W        W43628  16.875  12.239  12.694 -0.3529  0.0638 -0.0948
24095W        W43629  10.737   0.476  12.101 -0.2198  0.0434  0.3506
24096W        W43630  14.487   8.814   3.247  0.4663  0.0567 -0.2697
24097W        W43631  10.507   4.464  13.997  0.2203  0.2911 -0.0386
24098W        W43632  16.783  15.320  14.592 -0.2316 -0.0984 -0.0300
24099W        W43633  17.923  16.719   0.350  0.2732 -0.0984 -0.0857
24100W        W43634  16.164   8.103   3.435  0.0383 -0.2298  0.0515
24101W        W43635  12.212  14.577   4.165  0.3807 -0.2291  0.1632
24102W        W43636   4.970  14.220   1.071 -0.1868 -0.3377  0.1833
24103W        W43637  14.037   5.690  15.498  0.0828 -0.1959 -0.2745
24104W        W43638   4.676   4.372   3.000 -0.2770 -0.0377 -0.0140
24105W        W43639  12.971   7.490   2.298  0.0460  0.0660  0.1125
24106W        W43640   1.052   5.014   2.577  0.1395  0.2276 -0.1330
24107W        W43641  12.172   8.738  15.896  0.0209  0.1710 -0.2318
24108W        W43642  12.267   5.995   3.636  0.2418 -0.1156 -0.0557
24109W        W43643   9.849   2.268   2.811  0.1579 -0.1115 -0.1065
24110W        W43644  13.486   4.716  13.976  0.1601  0.1095  0.0177
24111W        W43645  16.676   2.568  14.490  0.1122 -0.0161  0.1732
24112W        W43646   0.200   5.826   3.205  0.3290  0.1394 -0.1925
24113W        W43647   3.465   7.559  15.403  0.0365  0.2581  0.0305
24114W        W43648   8.420   7.864   3.251  0.1608  0.0760  0.0713
24115W        W43649   2.160   8.228   0.477  0.3078  0.0489  0.0538
24116W        W43650   0.547  11.392  12.583  0.0656 -0.2892  0.1401
24117W        W43651   8.774   9.464   2.936 -0.1719 -0.0755 -0.1486
24118W        W43652   0.597  16.383  12.378  0.0223  0.3682  0.0294
24119W        W43653  10.224  15.788   1.985 -0.0988 -0.0098  0.3947
24120W        W43654   9.910  15.095  13.520  0.1045 -0.0167 -0.2211
24121W        W43655   0.601  15.559   2.038 -0.1503  0.0084  0.2692
24122W        W43656  11.233  16.171   0.155 -0.0032 -0.0947  0.0888
24123W        W43657  14.310   5.811  11.785 -0.3239 -0.1871  0.2543
24124W        W43658   7.680   1.523   1.490 -0.2164 -0.1657 -0.1270
24125W        W43659   8.259   9.940   4.443 -0.0994  0.0200  0.2258
24126W        W43660  15.362   7.287   2.652  0.3560 -0.0275 -0.0676
24127W        W43661  13.653   5.027  11.856 -0.2441 -0.1352 -0.2285
24128W        W43662   5.029  15.732   2.241 -0.1786 -0.1188  0.0224
24129W        W43663  17.632   7.061   3.920  0.2226  0.1206 -0.1962
24130W        W43664   2.492   3.169  12.140 -0.1382  0.1432 -0.0829
24131W        W43665   1.973  13.334  11.547  0.0627 -0.2554  0.0032
24132W        W43666   8.184   3.144   0.097 -0.3192 -0.0464  0.0547
24133W        W43667   1.019   7.775  14.290  0.0043 -0.1534 -0.0981
24134W        W43668   3.635   8.336   0.295  0.1773 -0.1540  0.0619
24135W        W43669   5.529  11.720   0.501 -0.0006 -0.2332  0.1787
24136W        W43670   4.565  10.306  14.155  0.1525  0.1366  0.2937
24137W        W43671   7.590   9.863  15.373 -0.2298 -0.1388  0.0098
24138W        W43672  11.433   4.417   2.738 -0.0139  0.0090  0.0044
24139W        W43673   0.073   9.093   3.153  0.0405 -0.0070 -0.0583
24140W        W43674   6.712   3.724  14.115 -0.1770 -0.1934 -0.1351
24141W        W43675   8.350   3.098  13.408  0.2718 -0.1413 -0.0229
24142W        W43676   1.100   4.030  10.940 -0.0458 -0.0229 -0.1983
24143W        W43677   9.441   5.120  12.008  0.0543 -0.0984  0.0721
24144W        W43678  16.867   0.143  15.444 -0.2265 -0.1125 -0.1095
24145W        W43679   1.823  17.064   0.333 -0.0385 -0.0525  0.0609
24146W        W43680  13.643  15.280  14.221  0.0310  0.1514  0.0302
24147W        W43681  16.326   8.746   0.869 -0.0321  0.2532 -0.1369
24148W        W43682  15.622  13.809   0.475 -0.2819 -0.0797 -0.0620
24149W        W43683   5.593   5.582   2.996  0.0471  0.1072  0.0727
24150W        W43684   4.645  12.474   1.390  0.0481 -0.2446  0.3319
24151W        W43685  16.805   5.906  11.974 -0.3603 -0.1050 -0.0339
24152W        W43686  14.354  16.467   3.865  0.1507 -0.1305 -0.0228
24153W        W43687  14.735   8.187   3.252 -0.1914 -0.0860 -0.1061
24154W        W43688  11.712   8.190   4.094  0.1851  0.0496  0.0560
24155W        W43689   3.285   6.577  15.561  0.1548  0.1572  0.2783
24156W        W43690  13.502  14.066  11.726 -0.3201 -0.0083  0.0077
24157W        W43691   4.418   0.045   3.129  0.0173  0.0820  0.2505
24158W        W43692   4.998  16.181   0.301  0.0433 -0.0640  0.0411
24159W        W43693  13.081   9.854   2.217 -0.2663  0.0444  0.0936
24160W        W43694  15.966   3.879  10.536  0.1501  0.0017 -0.2325
24161W        W43695   1.104   5.944  13.959 -0.0126 -0.2254 -0.0863
24162W        W43696  15.205   9.025  15.000  0.1271  0.3861 -0.0347
24163W        W43697   6.934   8.587   5.156  0.2588  0.1186 -0.2902
24164W        W43698   4.604  16.805  15.033 -0.2643  0.1964 -0.1020
24165W        W43699   2.729  12.953   2.229 -0.0217 -0.0617  0.0126
24166W        W43700  12.189  12.338  15.606 -0.2616  0.0589 -0.1960
24167W        W43701   1.104   2.282  13.214 -0.0482  0.0195  0.0864
24168W        W43702   4.730   2.816   2.136  0.1550  0.3567  0.1926
24169W        W43703  11.771   0.595  13.807 -0.1357  0.1990  0.0786
24170W        W43704   3.158   8.337  15.545  0.0017 -0.2005  0.1283
24171W        W43705   5.384  10.403   3.543 -0.3006 -0.1209 -0.0794
24172W        W43706  15.780  11.642   5.114 -0.2681  0.0686  0.1574
24173W        W43707  13.816  15.318  11.851  0.0562 -0.3538 -0.2309
24174W        W43708  16.003  16.934   2.354 -0.0285  0.1465 -0.1441
24175W        W43709  17.396  10.800   3.556  0.3846  0.1108  0.0516
24176W        W43710   3.307  15.862   3.823  0.3388 -0.1276  0.0471
24177W        W43711   8.650   3.429   1.211  0.0228 -0.0437 -0.1565
24178W        W43712  10.374   5.345   3.275  0.1586 -0.0659 -0.0541
24179W        W43713  15.849   3.412   0.429 -0.0156  0.1126 -0.0637
24180W        W43714   1.536  17.838   3.390 -0.0376  0.0091 -0.1985
24181W        W43715  13.458   6.783   2.038  0.3838 -0.0224  0.0449
24182W        W43716   6.804   1.335  15.310 -0.0710 -0.0459 -0.3973
24183W        W43717  14.150   5.909   1.892 -0.0116 -0.0690 -0.0054
24184W        W43718   1.369  13.135   2.342 -0.2955 -0.2725 -0.2469
24185W        W43719  14.628  13.265  13.176  0.0047 -0.0743  0.2851
24186W        W43720   1.156   1.444  12.967  0.1735 -0.0159  0.0795
24187W        W43721  11.766  12.260   0.778  0.1221 -0.2503 -0.0463
24188W        W43722  15.511  16.995  11.708 -0.2735 -0.0607 -0.2244
24189W        W43723  16.902  17.330  15.658 -0.0609  0.2309 -0.1338
24190W        W43724  13.962   3.285   0.483 -0.1026 -0.1273 -0.2227
24191W        W43725  17.275   9.987  16.028  0.0124  0.1696  0.2271
24192W        W43726  13.660   8.762  12.475  0.1857 -0.4132 -0.1517
24193W        W43727   7.936  16.286  12.587  0.1127  0.1629 -0.2319
24194W        W43728   0.537   7.894  13.447 -0.2763  0.1960 -0.2350
24195W        W43729   0.073   4.223  14.066 -0.1216 -0.1091 -0.1221
24196W        W43730   6.198  15.850  13.881  0.0802 -0.3059  0.1268
24197W        W43731  15.661   1.688  15.884 -0.1557  0.1128  0.2397
24198W        W43732  16.234  13.683  12.151  0.1526 -0.1405  0.2550
24199W        W43733   4.788   5.355   3.355 -0.0621 -0.0201  0.1624
24200W        W43734   0.137  15.699   5.118 -0.2868  0.1456 -0.0029
24201W        W43735  12.669  11.204   0.643 -0.2163  0.0051 -0.2279
24202W        W43736  11.025  17.520   1.303  0.2655  0.2618  0.0247
24203W        W43737   8.094   7.191   1.216  0.2602  0.2141 -0.1989
24204W        W43738  11.698  15.206  14.068 -0.1790  0.1993  0.0175
24205W        W43739   8.715  18.141   1.954  0.0781 -0.0033  0.0006
24206W        W43740   8.755  15.050   1.296 -0.0912 -0.0542 -0.1150
24207W        W43741   1.995   3.865  14.600  0.3412 -0.2413  0.1521
24208W        W43742  14.519   3.271   4.961  0.2666  0.5148 -0.1477
24209W        W43743  14.774  11.505   0.403 -0.0721 -0.0218 -0.0572
24210W        W43744  11.095   7.745  14.320  0.0271  0.1302 -0.1676
24211W        W43745   3.429  16.876  13.229  0.1825  0.2116 -0.1366
24212W        W43746   4.008   8.895  12.313 -0.0979 -0.0084  0.0134
24213W        W43747   6.578   4.106   3.840 -0.0818 -0.3492  0.0736
24214W        W43748  16.819   4.736   4.426 -0.0926 -0.0426 -0.0289
24215W        W43749   1.068   7.435   2.452 -0.0884  0.1068 -0.3241
24216W        W43750   2.076  16.372   1.578  0.0279  0.1468  0.2820
24217W        W43751  10.252   7.442   3.937 -0.3936 -0.1607  0.1825
24218W        W43752   1.459  11.584   2.582 -0.1383  0.2579  0.0808
24219W        W43753  15.012  11.385  12.772  0.2405  0.1474 -0.0858
24220W        W43754   3.099   8.097  14.436  0.2976  0.0128  0.1409
24221W        W43755  14.755   8.335   5.881 -0.0077  0.1042 -0.1504
24222W        W43756  11.396   6.857   1.232  0.0063  0.1619  0.0741
24223W        W43757   5.915  16.508   1.202  0.0393 -0.1195  0.2157
24224W        W43758   3.040   8.240   0.405 -0.1933 -0.0757 -0.2627
24225W        W43759  16.391   3.556  12.209 -0.1326  0.1015 -0.1087
24226W        W43760  15.039   8.987  15.826 -0.1707  0.0658  0.1469
24227W        W43761   5.342  15.388  12.595  0.0651 -0.0244 -0.0970
24228W        W43762   2.426   1.246  15.002 -0.0334  0.1593 -0.0283
24229W        W43763  11.238   2.342   4.073 -0.0354  0.2207  0.3171
24230W        W43764   4.477  15.941  13.700 -0.3654  0.0522 -0.1359
24231W        W43765  15.552   3.163  11.882  0.1313  0.0144 -0.2076
24232W        W43766   6.289  13.923  15.005 -0.0966  0.1206  0.3407
24233W        W43767  16.360  16.372  15.333 -0.2076  0.1164  0.3194
24234W        W43768   4.863  10.374  12.914 -0.1987  0.3342  0.2930
24235W        W43769  14.144   8.560   1.621 -0.2801 -0.1952 -0.1426
24236W        W43770   2.480   3.597   3.326 -0.1130 -0.0400  0.1085
24237W        W43771   4.603   9.953  15.846 -0.1499 -0.0658  0.2331
24238W        W43772   8.636  11.260  12.534  0.1033  0.0231 -0.1689
24239W        W43773   1.471   1.773  12.248  0.3079 -0.1185 -0.0679
24240W        W43774  10.730   1.032  13.373  0.1728  0.0590  0.0649
24241W        W43775   6.105  10.917  11.971  0.0649  0.1218 -0.0406
24242W        W43776  14.256   4.738   5.740  0.0685  0.2755 -0.3279
24243W        W43777  17.824   7.934   0.629 -0.3321 -0.0362 -0.0152
24244W        W43778   5.660   2.706  11.106  0.1703 -0.0525  0.0941
24245W        W43779   8.863  17.971  12.729  0.0379 -0.0520  0.1239
24246W        W43780  15.843  12.775  12.948  0.1854 -0.0776  0.1171
24247W        W43781   5.321   4.748  11.414 -0.2090 -0.0680  0.0463
24248W        W43782  12.328  10.124   3.251 -0.0079 -0.0516  0.1525
24249W        W43783  15.778   7.763   2.008 -0.0428 -0.2211 -0.2204
24250W        W43784  12.179  13.867  14.905 -0.4669 -0.4081 -0.2368
24251W        W43785  17.066   3.687  11.588  0.1724  0.0692  0.1504
24252W        W43786  18.057  14.109  14.151  0.0005 -0.1450  0.0689
24253W        W43787   5.789  15.513   1.155 -0.1812 -0.0099  0.1993
24254W        W43788  16.273  10.206  12.049  0.0516  0.1989 -0.0253
24255W        W43789  11.270   7.056   0.788  0.1559 -0.0194 -0.0326
24256W        W43790  13.810  13.224  13.164 -0.2344 -0.2192  0.3669
24257W        W43791   5.152  12.437   2.709  0.3342  0.0486 -0.1420
24258W        W43792   3.688  10.767  12.161 -0.1862  0.1964  0.0429
24259W        W43793   1.456  17.704   1.966  0.2638 -0.0628 -0.0354
24260W        W43794  15.289   9.323  13.144 -0.2809  0.0130 -0.1503
24261W        W43795  14.205  17.125   4.651 -0.1664  0.1981 -0.1576
24262W        W43796  16.062   3.559  14.286  0.0266 -0.1491  0.0550
24263W        W43797  11.911  17.302   1.682 -0.0206  0.0765 -0.3171
24264W        W43798   6.295  16.892   3.910 -0.1040  0.0170  0.0740
24265W        W43799   6.800  12.094  14.909  0.1659 -0.3877 -0.2186
24266W        W43800   0.135  13.054   0.141  0.1662 -0.0041 -0.3770
24267W        W43801   5.522   2.951  15.223 -0.0791  0.1006 -0.0494
24268W        W43802   3.858   6.300   5.471 -0.0231 -0.0203  0.1829
24269W        W43803   1.806   1.171  13.562 -0.1231 -0.0896 -0.2028
24270W        W43804   0.616  16.365   1.287  0.0346 -0.0435 -0.0090
24271W        W43805  14.751  15.687  12.506  0.0760 -0.1184  0.1473
24272W        W43806  13.979   1.980  15.565  0.2613  0.1093  0.0762
24273W        W43807  14.858  10.919  13.037 -0.4842 -0.1276  0.3070
24274W        W43808  16.425   5.138  15.732  0.1794  0.0271  0.1084
24275W        W43809  16.211  12.897  12.595  0.1403 -0.2564  0.1024
24276W        W43810  17.756   3.698   1.807  0.0291 -0.0479  0.0007
24277W        W43811  17.536  11.003  13.164  0.0643 -0.1073  0.4222
24278W        W43812   1.090  16.546   5.158  0.1030  0.0095  0.1220
24279W        W43813  11.130   6.437   2.023  0.1807 -0.1550 -0.0118
24280W        W43814  16.216   2.061   2.090  0.0098  0.0215 -0.1040
24281W        W43815   2.424   6.302   2.813 -0.1006 -0.0246  0.1418
24282W        W43816  16.579  12.103  13.100 -0.0007  0.0516 -0.2622
24283W        W43817  15.916  12.956  13.432  0.1437 -0.1354 -0.2305
24284W        W43818   1.961   6.834   1.934  0.1076  0.0702  0.1940
24285W        W43819   0.691   0.289  14.469 -0.2177 -0.0550 -0.1986
24286W        W43820   4.246  16.718   0.461 -0.1558  0.0340 -0.0115
24287W        W43821   5.435   9.863  14.932 -0.0431 -0.2181 -0.0125
24288W        W43822   8.716   3.868   4.052 -0.2296 -0.0484  0.0627
24289W        W43823  15.933   0.031   1.090  0.0348  0.1665  0.1579
24290W        W43824  14.184   2.084   1.024  0.1678 -0.0682 -0.0791
24291W        W43825   3.363  11.683   3.518  0.0928 -0.2997  0.0578
24292W        W43826   5.183  16.289   1.233 -0.2741  0.1998 -0.0645
24293W        W43827   7.443   6.763  13.290 -0.2026  0.1481  0.0793
24294W        W43828   2.535   8.459  11.213  0.1324  0.0727  0.2375
24295W        W43829   6.583  15.142  14.595 -0.2515  0.0002 -0.4192
24296W        W43830   3.856  17.220  14.445  0.0450  0.0537 -0.2184
24297W        W43831   3.619  17.473   2.401 -0.2449 -0.0912 -0.2370
24298W        W43832   3.690  12.683  15.449  0.0609 -0.1414 -0.1934
24299W        W43833  12.498  16.693  14.106  0.1548  0.0107 -0.1447
24300W        W43834  13.071   4.381   2.529  0.2474 -0.2823  0.0776
24301W        W43835  14.113   7.880   0.829  0.0162  0.2557 -0.1227
24302W        W43836   1.233   9.264   2.299 -0.1284  0.1997 -0.3786
24303W        W43837  14.327  17.938   1.803 -0.0765 -0.1214  0.1051
24304W        W43838   7.784  11.802   0.338  0.1530  0.0820  0.3449
24305W        W43839  13.133  12.114   1.592  0.2790  0.0669  0.0884
24306W        W43840  14.006   4.736  11.543  0.1079  0.0090 -0.0287
24307W        W43841  15.427   7.752  11.933  0.4732 -0.1139 -0.2157
24308W        W43842  12.402   7.943  10.964 -0.2710  0.0383  0.5281
24309W        W43843  15.090   3.327  13.050  0.0861  0.0733  0.0244
24310W        W43844   5.498   5.228   2.199 -0.0710 -0.2004 -0.0176
24311W        W43845   7.855  13.895   4.453  0.0962 -0.2169 -0.2833
24312W        W43846   9.596   1.298   3.203  0.1553  0.1898  0.1217
24313W        W43847   3.136  17.585  13.746  0.1666 -0.1119 -0.1035
24314W        W43848   1.074  17.616  14.973  0.0259 -0.0059  0.4832
24315W        W43849  16.663  11.068   3.234  0.0494  0.2052 -0.0530
24316W        W43850  13.851   5.798   1.412  0.1590  0.1878 -0.0794
24317W        W43851  12.197  12.123   0.516  0.1512  0.0919 -0.3160
24318W        W43852  14.487   0.563  12.316 -0.2451  0.0144  0.1427
24319W        W43853   4.067   0.335  12.978  0.3191 -0.2042  0.1009
24320W        W43854  13.336   6.746   3.424  0.1676 -0.0461  0.0797
24321W        W43855   2.329   1.412  12.657  0.1539  0.0159 -0.0663
24322W        W43856   6.643   9.995   3.130  0.2142 -0.4177  0.2628
24323W        W43857  13.228   8.843   2.188 -0.0444 -0.2790  0.1473
24324W        W43858   7.322   9.405   2.769  0.0428  0.1345  0.0247
24325W        W43859  13.961  15.681   3.808 -0.3220  0.0501  0.0151
24326W        W43860   8.520   0.128   4.098 -0.3320  0.1330  0.0059
24327W        W43861   0.372   5.679   3.952 -0.3939  0.1045  0.0533
24328W        W43862  17.157   4.780   1.809  0.2569 -0.3514 -0.1882
24329W        W43863   5.870  12.475   1.625 -0.2814  0.2125  0.0703
24330W        W43864   1.959   0.503  14.593 -0.1055  0.1312 -0.2525
24331W        W43865  14.745  15.604   1.737 -0.0178 -0.0185 -0.1806
24332W        W43866   2.742  13.975   1.586  0.0259 -0.2251 -0.0360
24333W        W43867   9.090  14.724   0.857 -0.1353 -0.1396 -0.0249
24334W        W43868  17.810   0.297   3.383 -0.3492  0.2467  0.0144
24335W        W43869   2.914  17.445   1.875  0.1048  0.1153  0.0447
24336W        W43870   2.871  17.480   0.029 -0.0711 -0.1140  0.2149
24337W        W43871  10.937   3.046   4.500 -0.1762  0.3000  0.0406
24338W        W43872  13.450   8.350   4.489  0.2062 -0.0833  0.1183
24339W        W43873  10.743   5.205  11.342 -0.1266 -0.0044 -0.0233
24340W        W43874   7.588  13.901   0.223  0.5128  0.0001  0.1038
24341W        W43875   5.434  17.722   1.018  0.0124 -0.0366  0.0047
24342W        W43876   9.538  13.942  12.748  0.1103 -0.1583  0.1304
24343W        W43877   3.702  11.392  16.053 -0.1191  0.0203 -0.0668
24344W        W43878  15.741   1.517  11.633  0.0782  0.3608  0.2883
24345W        W43879  12.126  12.701   3.207 -0.0628 -0.1602 -0.0273
24346W        W43880   0.383   9.873  13.774  0.2042 -0.2077  0.0571
24347W        W43881   3.605  17.755  14.257  0.3183  0.2003 -0.0349
24348W        W43882   4.273   1.607  15.644 -0.3482 -0.3677 -0.0091
24349W        W43883  17.671   7.946  11.823  0.2167 -0.2936  0.3939
24350W        W43884  12.188   9.301  14.797  0.1614 -0.2069 -0.0311
24351W        W43885  14.858   2.713   4.639 -0.3626  0.2782 -0.1615
24352W        W43886  14.064  10.442   0.272  0.1125 -0.2754  0.0666
24353W        W43887  10.544   8.405  12.153 -0.0156  0.1716  0.2631
24354W        W43888   7.975  17.514  11.677  0.0610  0.0456 -0.3293
24355W        W43889   1.425  10.017  14.390 -0.2215 -0.1975  0.1382
24356W        W43890  12.913   7.098   1.942 -0.2339 -0.1000 -0.0760
24357W        W43891   0.346  16.088  14.923  0.1078 -0.1879  0.5311
24358W        W43892   9.806   7.917  12.323 -0.0325 -0.2668  0.0817
24359W        W43893  10.333  14.887   1.933 -0.1228 -0.0395  0.0804
24360W        W43894  14.441  14.472   4.881 -0.0987 -0.2252 -0.3156
24361W        W43895  16.154  17.415  14.534 -0.2273 -0.1069 -0.1144
24362W        W43896  14.954   9.547   3.127 -0.1896 -0.1994 -0.5520
24363W        W43897  16.481   3.851   3.359  0.1145 -0.0987 -0.1477
24364W        W43898   1.701   7.135  12.128 -0.3131  0.0575  0.2337
24365W        W43899  13.910   3.721  11.705 -0.2966  0.0513  0.0785
24366W        W43900  15.095   9.405   1.814 -0.0380  0.1084 -0.4496
24367W        W43901  16.144   0.970   3.211  0.0183  0.1446 -0.1581
24368W        W43902  16.841   2.586   2.524  0.0412 -0.1309 -0.3957
24369W        W43903   1.945   0.734  12.993 -0.0213 -0.1984  0.1504
24370W        W43904   7.358   3.172  11.003 -0.0780  0.0434  0.1512
24371W        W43905  11.260  11.108  11.610  0.2438 -0.5437 -0.1657
24372W        W43906   9.520   6.095   2.054  0.3031 -0.0615 -0.0308
24373W        W43907   0.886  10.659  13.225  0.0177  0.2375  0.2649
24374W        W43908  12.186  13.520   0.418  0.2253 -0.1939  0.0157
24375W        W43909  16.049   6.664   3.941  0.0856 -0.0869  0.1346
24376W        W43910   4.204   8.484  12.110 -0.0897 -0.1055 -0.1517
24377W        W43911  13.606   8.808  15.801 -0.0772 -0.0313 -0.0970
24378W        W43912   2.376   2.445   4.453  0.0815 -0.0053  0.1340
24379W        W43913   0.885   1.774   4.321 -0.0366 -0.1398  0.0302
24380W        W43914   2.385  11.000  15.606  0.3589  0.3608 -0.2446
24381W        W43915  14.610  15.042  15.233  0.2200 -0.0845  0.1335
24382W        W43916   3.387   3.249   1.470  0.1225 -0.1158 -0.2295
24383W        W43917   7.352   4.233   0.427  0.3327  0.0894 -0.2764
24384W        W43918  13.472  16.980  10.968  0.1308 -0.0404 -0.4315
24385W        W43919   4.111   4.288  15.899  0.0337 -0.2780  0.3137
24386W        W43920  13.937   2.985  15.539 -0.1063 -0.0150  0.0790
24387W        W43921  13.189   3.831   3.249 -0.5109  0.2229  0.0558
24388W        W43922  13.582  16.475   3.026  0.0383  0.1758  0.0099
24389W        W43923   4.336  12.273  12.105 -0.0435  0.1629 -0.0145
24390W        W43924  10.312   6.913  16.014  0.1207 -0.3604 -0.2111
24391W        W43925   6.882   5.331   1.195 -0.0378  0.1645 -0.4037
24392W        W43926   4.309   0.339   0.703 -0.0899  0.0858  0.1786
24393W        W43927   2.986   6.343  13.899  0.1832 -0.0002 -0.0762
24394W        W43928  13.371  16.806  15.955  0.0163  0.0699  0.0430
24395W        W43929  15.099   9.567  12.111 -0.0828  0.2247 -0.1644
24396W        W43930  12.336   0.984   2.871 -0.1012  0.0870  0.0687
24397W        W43931   3.652  12.830  13.200 -0.1564 -0.0683  0.0442
24398W        W43932  13.725   3.573  12.921 -0.0318 -0.2087  0.0908
24399W        W43933  10.302  13.420   3.023 -0.0296  0.2812 -0.0788
24400W        W43934   0.018   9.371   2.643 -0.4565  0.2167 -0.0213
24401W        W43935   1.435   3.168  15.049  0.4678  0.0828  0.0418
24402W        W43936   9.738  14.879  14.479  0.1172 -0.0237  0.0945
24403W        W43937   0.356   4.157  10.795 -0.3265 -0.1559  0.2415
24404W        W43938  18.071   4.312  14.545 -0.2545 -0.0296  0.0849
24405W        W43939   1.398   2.668   3.689  0.3504  0.2472 -0.2351
24406W        W43940   6.772   2.508   3.417  0.3902 -0.1438 -0.1809
24407W        W43941  15.777  11.942   2.846 -0.2428  0.0071 -0.4977
24408W        W43942   2.096  16.466  14.567  0.2098 -0.1751 -0.0109
24409W        W43943  12.398   8.025   0.602  0.1299  0.0497  0.1160
24410W        W43944   0.452  17.073  11.552 -0.0332  0.1418 -0.0111
24411W        W43945   8.042   6.884   3.289  0.0027 -0.3816 -0.1516
24412W        W43946   8.246  11.819   2.108  0.2301 -0.1728 -0.2132
24413W        W43947   5.531  18.181  15.338  0.1514  0.0447 -0.4048
24414W        W43948  15.514  17.595   4.921  0.3475  0.0024 -0.0809
24415W        W43949  15.231   8.045   0.176  0.0597  0.0301 -0.0691
24416W        W43950  13.191  14.475  11.804  0.2807 -0.0545  0.5012
24417W        W43951  13.723   9.097   0.112  0.1985 -0.3217  0.0135
24418W        W43952  12.014   7.558  15.994  0.2759  0.1010 -0.0255
24419W        W43953  14.707   5.917   3.133  0.4683 -0.1295  0.0039
24420W        W43954  14.699   4.121  10.626  0.0207  0.3915 -0.0997
24421W        W43955   6.087   7.050  12.987  0.1435 -0.1729 -0.1768
24422W        W43956   9.857   1.147  14.040  0.0017  0.2861  0.0041
24423W        W43957   5.182   5.876   0.994  0.0481  0.0949  0.0907
24424W        W43958  16.551   6.902  14.217  0.0778 -0.0131 -0.2573
24425W        W43959  12.683  16.747   2.026 -0.1497  0.0235 -0.0572
24426W        W43960   2.340   5.176  13.165  0.0721 -0.0087 -0.1435
24427W        W43961   8.774  13.752   3.449 -0.2188 -0.2845 -0.1057
24428W        W43962   0.821   7.535  14.725  0.1556  0.2833  0.0682
24429W        W43963  15.098   1.251   1.191  0.0707  0.1122 -0.3883
24430W        W43964   7.469  15.383   3.777 -0.2464  0.0653 -0.0238
24431W        W43965   0.420  17.384   1.243  0.2193  0.3828 -0.1098
24432W        W43966  17.550  10.946   2.729 -0.0041 -0.1647 -0.2327
24433W        W43967   5.234   8.650   2.350  0.4213 -0.0005  0.1996
24434W        W43968  11.765   7.349   3.491  0.0834 -0.0864  0.2008
24435W        W43969  17.457  14.177  10.587 -0.1204  0.0777  0.2304
24436W        W43970   7.984  16.469   3.354  0.0319 -0.2788 -0.1123
24437W        W43971  10.522  14.577   0.600  0.0694  0.0347  0.2650
24438W        W43972   4.938  15.463  14.795 -0.0666 -0.2581  0.1002
24439W        W43973  14.177   2.689  12.624 -0.2333 -0.0152  0.2749
24440W        W43974  16.955   1.991   4.201  0.0562 -0.1604 -0.1124
24441W        W43975  14.339   0.580  14.494 -0.1437  0.0956 -0.2087
24442W        W43976  14.820   5.415   4.446 -0.1056  0.1209 -0.1612
24443W        W43977   0.432   3.181   0.510  0.0016 -0.1724  0.2501
24444W        W43978   5.557  10.669   4.533  0.1575 -0.3896 -0.4349
24445W        W43979   1.154   0.558   0.445 -0.2079  0.1360  0.0887
24446W        W43980  14.609  12.919   4.033  0.1681 -0.1264 -0.0689
24447W        W43981  15.157   6.354  15.529  0.0949  0.0578 -0.1530
24448W        W43982   9.872  16.215   0.163  0.3395 -0.0023  0.2315
24449W        W43983   5.390   3.485   2.755 -0.0879 -0.4477 -0.2748
24450W        W43984  13.440   0.846  14.355 -0.0615 -0.5258  0.2456
24451W        W43985  13.301   2.652  16.005  0.2528  0.5732  0.1045
24452W        W43986  11.391   3.776   4.409 -0.1169  0.0165 -0.1164
24453W        W43987  17.440  18.089   0.118  0.3209  0.0560 -0.2012
24454W        W43988  16.441   0.711   3.517  0.0018 -0.1232 -0.2608
24455W        W43989   6.596  14.033  11.866 -0.2084 -0.0518  0.1835
24456W        W43990   9.733  11.411  11.641  0.1643  0.0455 -0.0377
24457W        W43991   2.490   9.013  12.730 -0.0334 -0.1790  0.1389
24458W        W43992   1.956   6.635  11.178 -0.0236 -0.0777  0.3133
24459W        W43993  13.608  13.480  15.895 -0.1181 -0.1028  0.0678
24460W        W43994   1.060   2.251   4.416 -0.3479 -0.1102  0.3201
24461W        W43995   5.532   0.438  13.544 -0.1092 -0.2488  0.2487
24462W        W43996   2.060   0.968  15.662  0.0686  0.1610  0.0649
24463W        W43997  11.328   3.286   4.657  0.0283 -0.2713 -0.1397
24464W        W43998   0.658  10.893   0.001 -0.0591 -0.0779 -0.0595
24465W        W43999   4.315   3.765  15.124  0.1312  0.1443 -0.2016
24466W        W44000  11.124   7.222  13.411 -0.0930  0.5768  0.0715
24467W        W44001   2.420   1.738   4.974  0.1289  0.0795 -0.0253
24468W        W44002  12.781  10.612   4.673  0.0468  0.0181 -0.0344
24469W        W44003  15.561   0.739   4.830  0.0202  0.0575  0.4252
24470W        W44004  11.892  15.310   0.637 -0.0381  0.2267 -0.1768
24471W        W44005   0.076  11.523   2.813 -0.0615 -0.0879  0.1469
24472W        W44006   3.527   3.740  13.021 -0.2313 -0.0105 -0.0898
24473W        W44007   3.489   6.477   2.987 -0.0639  0.1183 -0.2967
24474W        W44008  14.701  17.437  13.514  0.0026  0.1708 -0.0430
24475W        W44009  17.923  16.723  13.513  0.0823 -0.1219  0.4887
24476W        W44010  17.897   1.548   0.759  0.1178  0.2557  0.0599
24477W        W44011  11.613   8.441  13.146  0.0531 -0.2087 -0.2041
24478W        W44012   4.518   3.349   0.981  0.0475 -0.0238  0.0371
24479W        W44013   1.367   1.362  13.541 -0.0962 -0.3391 -0.0576
24480W        W44014  12.012  14.414   0.196 -0.1162 -0.1688 -0.2284
24481W        W44015  17.189   4.635  13.908 -0.0534 -0.0323  0.1158
24482W        W44016   3.609   9.063  15.596 -0.4234 -0.0284 -0.3577
24483W        W44017  17.736  17.178  11.804  0.0095  0.1826  0.2011
24484W        W44018  10.870   2.412   1.649 -0.0033 -0.1517  0.1811
24485W        W44019   4.743  14.216  13.887  0.4102 -0.3281  0.1623
24486W        W44020  18.116  12.044   1.386  0.1094  0.1227 -0.3512
24487W        W44021   8.095   1.318   1.269 -0.1727 -0.1937 -0.0044
24488W        W44022   9.494   6.503  14.113 -0.1506  0.3028 -0.0986
24489W        W44023  14.205   8.091  11.580 -0.4432 -0.2256 -0.0384
24490W        W44024   4.949   9.249  15.455 -0.2927  0.0115 -0.0405
24491W        W44025   0.261  17.327   3.579  0.0383  0.0841 -0.0684
24492W        W44026  13.544   7.264  13.116  0.3402  0.0674 -0.0577
24493W        W44027   3.003   1.941  13.257 -0.0053  0.1162  0.1656
24494W        W44028   8.478   5.611   2.318 -0.2332  0.0954  0.0843
24495W        W44029  13.398   9.683   3.923 -0.2233 -0.0202  0.2085
24496W        W44030   3.867  16.490  11.089 -0.2393 -0.1245  0.0916
24497W        W44031  10.125   0.726  13.952 -0.0600  0.2965  0.0862
24498W        W44032   8.890   6.530  14.633 -0.2339 -0.1680  0.1529
24499W        W44033  17.977  12.957  11.258 -0.1988  0.1655  0.0027
24500W        W44034   7.202  18.022  10.402 -0.1098  0.1443 -0.0474
24501W        W44035   1.707   7.379   1.398  0.1179 -0.0060 -0.0847
24502W        W44036  11.021   8.099   1.518  0.0257  0.3994 -0.4148
24503W        W44037   4.478   0.654  13.031 -0.1316  0.2607 -0.1839
24504W        W44038   0.572   1.669  11.235 -0.0632  0.0540 -0.2050
24505W        W44039  11.732   1.519   3.922 -0.0131 -0.1260 -0.1181
24506W        W44040  15.841   5.835   4.015 -0.2329  0.1696 -0.0492
24507W        W44041   1.714   1.548  14.442  0.1056 -0.0788 -0.0211
24508W        W44042   2.913   7.854   0.718  0.2097 -0.1197 -0.1467
24509W        W44043   7.194   7.749   0.852 -0.1488  0.2456  0.3832
24510W        W44044  11.798   2.805  11.745  0.0242 -0.2580 -0.3179
24511W        W44045   9.319   6.382   0.610  0.0131  0.0537 -0.0125
24512W        W44046   6.872  11.958  13.645 -0.2281  0.1526  0.0965
24513W        W44047   4.556  17.870  11.856 -0.0362 -0.0866  0.0214
24514W        W44048  13.398   9.300  12.788 -0.1118 -0.0230 -0.0291
24515W        W44049   8.368  12.850  15.850 -0.1871 -0.1700 -0.0716
24516W        W44050  13.934  16.285   2.646 -0.2399  0.0657  0.1481
24517W        W44051  17.381  16.393   3.420  0.0518 -0.2761  0.2212
24518W        W44052   5.037  14.443   4.316 -0.1510  0.1238 -0.0978
24519W        W44053  12.751  14.738  11.718 -0.0129  0.0377 -0.0712
24520W        W44054   2.722   2.729  10.491  0.1977 -0.0271 -0.0799
24521W        W44055   4.139   7.934   4.644  0.1710  0.1035  0.0299
24522W        W44056   3.080   1.596   0.532 -0.2242 -0.0244 -0.1985
24523W        W44057   6.642   2.697  11.271 -0.1477 -0.3609  0.2852
24524W        W44058  10.107  17.810  14.908 -0.0214  0.2272 -0.0951
24525W        W44059  17.940  17.665   0.199 -0.0720  0.1652  0.2277
24526W        W44060   8.673   1.703   2.188 -0.1299  0.3761 -0.1147
24527W        W44061   8.027   2.114   2.841  0.1009  0.1727  0.0913
24528W        W44062   1.098   3.757  12.101 -0.1081 -0.0049 -0.0182
24529W        W44063   6.177  16.060   1.067  0.1529 -0.3013  0.2918
24530W        W44064  17.259  14.927   3.196 -0.1464 -0.0411 -0.2990
24531W        W44065   2.943   9.192  10.989 -0.3706  0.0768  0.0323
24532W        W44066  17.357   4.244  15.811  0.1030  0.1505  0.0834
24533W        W44067   4.172  18.004  12.689  0.1699  0.3192 -0.0738
24534W        W44068  10.031  12.215  11.849 -0.0085 -0.1406  0.2303
24535W        W44069  13.846   5.245   1.221 -0.2330  0.0318 -0.0250
24536W        W44070  10.759  11.020  12.453 -0.1340  0.2728  0.1619
24537W        W44071  12.158  13.422   1.378  0.0355 -0.1796  0.1862
24538W        W44072   7.532  13.976  12.939 -0.2716  0.0890 -0.1296
24539W        W44073  15.532  15.911  15.116  0.1155 -0.1696 -0.3166
24540W        W44074  15.122   9.409   4.571  0.0032 -0.2553 -0.1740
24541W        W44075   7.304  14.471   2.686  0.0539  0.2528 -0.3930
24542W        W44076  12.222   4.729  12.106  0.1766  0.0136  0.1924
24543W        W44077   3.692  14.390   1.207  0.2942  0.2155 -0.1372
24544W        W44078  11.410   9.186  12.058 -0.1903 -0.0426 -0.0475
24545W        W44079  11.999   8.122  13.007 -0.2052 -0.1039 -0.3211
24546W        W44080  14.408   0.143   0.911 -0.2991  0.0149  0.1830
24547W        W44081   3.915  14.698  13.972 -0.3155 -0.1479 -0.1002
24548W        W44082  16.923  11.181  15.389  0.0993 -0.1615 -0.2056
24549W        W44083  10.639   0.649  13.058 -0.1682 -0.1011  0.1426
24550W        W44084  10.843   4.389   1.314  0.2676 -0.3096 -0.2800
24551W        W44085  15.318  14.272  15.528 -0.0936 -0.0498 -0.1845
24552W        W44086   4.193   7.240   3.443 -0.0244 -0.2091  0.1514
24553W        W44087   2.958   1.808  15.548 -0.2573 -0.0848 -0.1522
24554W        W44088   6.749  13.584  15.971 -0.0080  0.0517  0.1684
24555W        W44089  12.090   2.109  12.170 -0.0253 -0.0922  0.1575
24556W        W44090   6.177   6.739  14.283  0.1593 -0.1259  0.1435
24557W        W44091  10.761  17.041  14.559  0.2842  0.5268  0.1215
24558W        W44092   9.940   3.536   4.668 -0.1565  0.2490 -0.0566
24559W        W44093  14.015   4.474  13.313 -0.2847 -0.3343  0.0456
24560W        W44094   8.206   9.784  12.718  0.2196  0.1221 -0.1739
24561W        W44095   2.252  13.813  11.633 -0.2163 -0.0723  0.1609
24562W        W44096   2.386  16.001   2.572  0.3807 -0.0433  0.0045
24563W        W44097   5.751   0.187  11.851  0.0427 -0.0726  0.0846
24564W        W44098   9.691   7.905   1.251  0.0212 -0.3142  0.0307
24565W        W44099  15.148  10.719   0.504 -0.0938 -0.1045  0.0568
24566W        W44100   9.645  12.979   1.124 -0.4888  0.0246 -0.0365
24567W        W44101   2.067  17.380  11.727 -0.2306  0.0690  0.3510
24568W        W44102   7.632  12.438   1.723 -0.0580 -0.1438 -0.3335
24569W        W44103   2.644  13.061  12.266  0.1140 -0.1241  0.3744
24570W        W44104  12.883   9.290  12.598 -0.0333 -0.0255 -0.0847
24571W        W44105  17.531   9.221  16.012  0.3021 -0.0126 -0.3434
24572W        W44106  14.605   1.808   4.854  0.0885 -0.1502  0.1124
24573W        W44107   0.607  14.162  14.764 -0.2080 -0.3300 -0.4536
24574W        W44108  10.987   9.468  15.663 -0.2076 -0.1081 -0.0780
24575W        W44109  16.604  14.296   1.626 -0.0305  0.1126  0.1694
24576W        W44110   0.884   5.056  13.053  0.2165  0.2487 -0.0788
24577W        W44111   1.358  10.394  12.161  0.1594  0.0484  0.1155
24578W        W44112   3.345  12.660   0.121  0.0895  0.0006 -0.2332
24579W        W44113   6.254   3.283   2.186  0.1279  0.1429 -0.0126
24580W        W44114   4.467   0.265  15.886 -0.1870 -0.2367  0.2028
24581W        W44115  14.335  14.922   5.708 -0.2475  0.1155  0.2911
24582W        W44116  12.623  10.933  15.393  0.0265  0.0698 -0.0593
24583W        W44117   0.815  17.463   2.815 -0.1484  0.1700  0.0287
24584W        W44118  15.212  16.170   1.990 -0.1108 -0.0137 -0.0574
24585W        W44119  14.846  15.946   4.888  0.0855  0.1336 -0.0322
24586W        W44120  12.754   1.839  15.283 -0.0211  0.1086 -0.0256
24587W        W44121  12.533  11.250   4.507  0.0166  0.1068 -0.2254
24588W        W44122   7.237   8.672  14.921 -0.2587  0.1512 -0.0068
24589W        W44123   5.461   9.788   1.877  0.0853 -0.1037  0.3329
24590W        W44124  13.669  12.673   2.039  0.3722  0.0097 -0.1302
24591W        W44125   7.198  10.243  14.128 -0.0340 -0.1661  0.0987
24592W        W44126   7.862   1.038   2.106 -0.0999  0.0432 -0.2949
24593W        W44127   8.874   5.561  12.666 -0.0155  0.1798  0.2187
24594W        W44128   3.769  14.566   3.685  0.0292  0.0048  0.3833
24595W        W44129  17.098   4.910  14.325  0.0090 -0.1119  0.1653
24596W        W44130  12.356  17.830   0.188 -0.1175 -0.0702 -0.3714
24597W        W44131  13.209   7.641   3.992  0.1340  0.1759  0.2507
24598W        W44132  17.308   4.324   4.105 -0.0903 -0.1545 -0.0008
24599W        W44133   2.297  15.559  14.527 -0.1308  0.0763  0.1784
24600W        W44134  13.322  17.316   1.008 -0.1796 -0.1151 -0.1200
24601W        W44135  13.050  12.213  16.000  0.1681 -0.3704 -0.0099
24602W        W44136  11.542   3.321  13.703  0.0084 -0.1217 -0.0125
24603W        W44137  14.017   6.539   3.994 -0.0745 -0.4313 -0.2565
24604W        W44138   3.189   6.248  13.467  0.0884  0.0733 -0.2833
24605W        W44139  13.103   3.186   2.079  0.0339 -0.0512  0.2837
24606W        W44140   6.609   0.166  10.822  0.0189  0.0229 -0.0922
24607W        W44141  15.878  14.193   1.834  0.0999  0.2854 -0.2447
24608W        W44142  15.783  11.507  13.457 -0.3077 -0.1644 -0.2193
24609W        W44143   4.423   2.202  14.245  0.0519  0.1977  0.0297
24610W        W44144   1.680   7.421  15.691  0.3320  0.3398  0.0160
24611W        W44145  11.519   2.151  12.309 -0.0628 -0.2812 -0.0919
24612W        W44146  15.664   8.039  14.449 -0.4515 -0.0428  0.2940
24613W        W44147   2.806   9.750   1.661  0.0613  0.1416  0.0738
24614W        W44148   3.900   1.824   1.194 -0.3467  0.0327  0.3053
24615W        W44149  17.707  13.408  13.337  0.3447 -0.1937  0.1148
24616W        W44150  17.726   5.786   4.432 -0.0230 -0.0983  0.0590
24617W        W44151  16.825  12.243   0.314  0.1309 -0.0835  0.0229
24618W        W44152   5.841  11.921   1.393  0.1885  0.1354  0.0525
24619W        W44153   0.671   5.389   3.716  0.2027  0.1425 -0.1262
24620W        W44154   2.446  17.153  13.705  0.0573  0.1490  0.3772
24621W        W44155  15.735   0.591   1.304  0.3394  0.4691  0.0280
24622W        W44156  12.113   7.511   0.789 -0.0915  0.0738 -0.0967
24623W        W44157   8.074   5.414  12.892 -0.2241 -0.1582 -0.0452
24624W        W44158  12.236   4.458  14.099  0.1163  0.1977 -0.2447
24625W        W44159  17.979   9.064  15.820 -0.0536 -0.0898  0.1224
24626W        W44160  16.438   8.327  13.303  0.1308 -0.1330  0.0055
24627W        W44161  15.302  16.721   2.061  0.1082 -0.1813  0.1073
24628W        W44162  16.070  15.530  12.708 -0.0443  0.2208 -0.3429
24629W        W44163  15.462  15.567   3.825 -0.2118  0.0713  0.3483
24630W        W44164   7.556  12.020  11.572  0.0972 -0.1435 -0.0997
24631W        W44165   8.056  17.003   3.580 -0.0093 -0.0915  0.2628
24632W        W44166   3.784  11.588  14.568 -0.1722  0.1046 -0.3059
24633W        W44167   8.133   9.466   4.108  0.1673  0.3481  0.0939
24634W        W44168   8.556   7.604  12.104 -0.2006  0.1089 -0.3445
24635W        W44169   6.403   9.926  13.437 -0.0291  0.2294 -0.0762
24636W        W44170  14.111   3.115   5.264  0.1214 -0.1136  0.0343
24637W        W44171  10.041   3.664   3.033 -0.0978 -0.1973 -0.0104
24638W        W44172   7.048  16.825  15.309 -0.1352 -0.1515  0.1119
24639W        W44173  10.442   6.175   4.843  0.0527 -0.0174 -0.3146
24640W        W44174  11.357   2.425  15.440  0.0127 -0.0040 -0.1092
24641W        W44175   6.867  12.062  14.188 -0.4075 -0.2310 -0.1817
24642W        W44176  15.118   5.409   4.061  0.2868 -0.1830 -0.0604
24643W        W44177   2.130  15.881   0.012 -0.2098  0.1409  0.1848
24644W        W44178  17.866   6.419   1.502 -0.0670 -0.2626 -0.3578
24645W        W44179  12.921   4.584   2.964  0.0180  0.1883  0.0271
24646W        W44180   7.592   9.657   2.241 -0.0141 -0.3392  0.1949
24647W        W44181   4.632  12.401   2.631 -0.2761 -0.4191 -0.0300
24648W        W44182  11.015   1.152   4.379 -0.1775 -0.1724  0.1129
24649W        W44183  12.726  12.405  14.612  0.1357  0.2356  0.0819
24650W        W44184   1.828   0.140  11.918 -0.2738 -0.2280  0.0461
24651W        W44185  18.108   4.600   2.041  0.0506  0.2068  0.2930
24652W        W44186   0.720  11.489  12.098 -0.0689 -0.0556  0.0204
24653W        W44187   4.923   8.946  13.444  0.0497 -0.0608  0.0548
24654W        W44188  11.675  14.353  12.669  0.0850 -0.2627 -0.3986
24655W        W44189  10.540   1.613   2.738 -0.2855  0.3256  0.0240
24656W        W44190  11.116   3.931  13.052  0.0108  0.0242 -0.0533
24657W        W44191   3.435  11.535   1.778  0.1085  0.2404  0.3780
24658W        W44192  15.924   1.816  12.018 -0.1119 -0.0159  0.1718
24659W        W44193   9.423   8.853  13.265  0.2399  0.0605  0.2255
24660W        W44194   7.597  12.727   3.932  0.1925 -0.0472 -0.0312
24661W        W44195   2.560   4.640   0.904 -0.0941  0.2961 -0.0522
24662W        W44196  14.945  10.122   0.009  0.0704 -0.2577 -0.0630
24663W        W44197  13.169   4.556  13.618  0.0563 -0.0911 -0.0747
24664W        W44198  11.692  12.595  12.456  0.1839 -0.0392 -0.1934
24665W        W44199  18.053  17.883  12.062 -0.0399 -0.1613  0.2021
24666W        W44200   3.715   7.858  15.661  0.2664 -0.5733 -0.3992
24667W        W44201  15.824   7.355   3.902  0.0957  0.0002  0.1784
24668W        W44202   0.743   8.317  13.469  0.0136  0.0287  0.4749
24669W        W44203   1.727  17.194  14.952  0.1095  0.2517 -0.0082
24670W        W44204   8.368   0.778   2.505  0.1274  0.3647 -0.0766
24671W        W44205   1.900  11.509   2.792  0.2399 -0.1307  0.1007
24672W        W44206  12.886  17.589   3.673 -0.1624 -0.1806 -0.2810
24673W        W44207   2.830  15.254  15.667 -0.0005 -0.1065 -0.1378
24674W        W44208  15.607   6.964  15.362 -0.1187  0.1128  0.1543
24675W        W44209   6.679  17.520  12.240  0.0757  0.0271 -0.1434
24676W        W44210  16.818   8.225   4.056  0.0141 -0.6155  0.1927
24677W        W44211   2.115   8.678   4.271 -0.0094  0.0099  0.0622
24678W        W44212   7.829   3.991  13.883  0.2454 -0.0495  0.0113
24679W        W44213   1.062   3.509  14.908 -0.0135  0.3490  0.2094
24680W        W44214  13.625  12.349   1.638  0.2605 -0.2479 -0.1286
24681W        W44215  10.835  11.459   1.203 -0.0828  0.0097 -0.2524
24682W        W44216   3.309  16.738   4.128  0.1387 -0.2365 -0.2752
24683W        W44217  13.806  13.837   1.264 -0.1512 -0.1307  0.2168
24684W        W44218  12.638  17.542  12.595 -0.2257  0.2325  0.0250
24685W        W44219   8.268   7.065   3.729  0.0132 -0.2695 -0.1435
24686W        W44220  16.937   6.042  13.211 -0.1754 -0.1028  0.0382
24687W        W44221  11.918   4.093  15.563 -0.2991  0.0639 -0.5492
24688W        W44222  15.436  13.930  15.887 -0.1889 -0.0059 -0.1357
24689W        W44223  14.485   6.049  12.288  0.0731  0.0644  0.1396
24690W        W44224   2.580   6.716  13.698  0.0272 -0.0979  0.2679
24691W        W44225   0.433   0.871   1.158 -0.0713 -0.2881  0.1704
24692W        W44226   0.718  13.221  13.811 -0.1349  0.0410  0.2005
24693W        W44227   1.621  11.197   3.669  0.1485  0.0532 -0.0495
24694W        W44228   9.085  15.550   0.658  0.0433 -0.2230  0.2730
24695W        W44229  17.908   8.495  15.714  0.1589  0.2360 -0.0663
24696W        W44230   4.071  11.892   1.352 -0.0336  0.0857 -0.1274
24697W        W44231   5.301  12.746  15.381  0.3045 -0.2431  0.1412
24698W        W44232   8.657   1.679   4.171 -0.3355 -0.3458 -0.1279
24699W        W44233   0.044   9.575   2.211 -0.0933 -0.2410  0.2502
24700W        W44234  15.685   5.850  13.708  0.2485  0.2190  0.0081
24701W        W44235   4.729   6.240   2.414 -0.2853 -0.1729 -0.1193
24702W        W44236  11.308  17.032  16.052  0.2781  0.1609 -0.0847
24703W        W44237   7.590  11.782  13.334  0.1109  0.1796 -0.1487
24704W        W44238   7.799   3.347   2.572 -0.1993  0.4216 -0.2767
24705W        W44239   9.531   2.425   4.509 -0.2569 -0.1361  0.0158
24706W        W44240   6.351  16.464  15.835  0.0747  0.3206  0.1310
24707W        W44241   6.130   8.389   4.321 -0.3517  0.0504 -0.1908
24708W        W44242  12.662   1.879  13.097  0.1534 -0.3847 -0.1159
24709W        W44243   1.371  10.897  13.976  0.2845 -0.0330 -0.3219
24710W        W44244   9.061  12.392   0.422 -0.0636  0.1338  0.0062
24711W        W44245   3.444  12.334   1.329 -0.0493  0.1064  0.3206
24712W        W44246  12.005  10.118   0.179  0.0359 -0.1753  0.2919
24713W        W44247  12.970   8.645   4.406  0.2358 -0.0171 -0.1483
24714W        W44248  11.283  17.917  13.527 -0.0060 -0.1141 -0.0300
24715W        W44249   8.686   2.256  12.071 -0.1919 -0.2102  0.1058
24716W        W44250   0.373  14.919   0.063 -0.2533 -0.0434  0.1161
24717W        W44251  17.483   6.541   0.900 -0.2306 -0.1915  0.0034
24718W        W44252  15.996  13.336   3.129 -0.0858 -0.1056  0.0156
24719W        W44253   7.331   2.435  10.408  0.1798 -0.3147  0.0440
24720W        W44254  12.185  14.617   2.255  0.0742 -0.1930  0.3271
24721W        W44255   7.278  13.747   1.972 -0.0938  0.5616  0.2126
24722W        W44256  17.782  13.348  14.873  0.0941 -0.0660 -0.2599
24723W        W44257   3.860   8.254  11.211  0.0017  0.1688 -0.0769
24724W        W44258   6.153  12.546   4.456  0.1967 -0.1264  0.5649
24725W        W44259  11.372  11.627  14.446 -0.0466 -0.3306  0.0795
24726W        W44260  11.170  11.254  13.118 -0.1105 -0.0475  0.0129
24727W        W44261   3.704  17.797  12.250 -0.0096  0.1053 -0.3629
24728W        W44262   1.581   0.477  12.820  0.2372  0.0079 -0.0349
24729W        W44263  17.309   8.523  14.868  0.2011  0.3306  0.1031
24730W        W44264  14.328  17.937  11.848 -0.1668  0.1147  0.1752
24731W        W44265   3.556   5.684  13.180  0.2939 -0.2062  0.1277
24732W        W44266  18.014   8.874  10.489 -0.1942  0.4131 -0.2827
24733W        W44267   4.469  11.099  15.788 -0.1885 -0.2396 -0.1264
24734W        W44268  17.847  14.024   4.076 -0.1345  0.0923  0.0007
24735W        W44269  17.137   2.166   2.534 -0.1103 -0.0250  0.0727
24736W        W44270  16.957  14.139  12.399 -0.1955 -0.0350  0.1639
24737W        W44271   2.221  10.713  12.513 -0.0713  0.0359  0.2330
24738W        W44272   0.150   1.644   1.670 -0.2446 -0.4293 -0.0756
24739W        W44273  13.177  11.811  15.123  0.2719  0.1455  0.0885
24740W        W44274  10.904   6.542   2.464  0.0845 -0.1107  0.0962
24741W        W44275  15.828  18.113  15.494 -0.2523  0.0435  0.1007
24742W        W44276  13.020   8.225   4.735 -0.1496  0.1840  0.1786
24743W        W44277  10.726   5.283   2.409 -0.1589  0.1240 -0.3230
24744W        W44278  16.845   3.973   2.307  0.2510 -0.2367 -0.1739
24745W        W44279   1.986  12.955  14.389 -0.0014  0.3355 -0.0454
24746W        W44280  16.121   2.662  12.348  0.1381  0.2254  0.0219
24747W        W44281   2.834   9.797  15.362 -0.0149 -0.1372  0.1373
24748W        W44282   4.654  11.847  15.216  0.0472 -0.1240  0.0837
24749W        W44283  13.445  13.640   1.711  0.2972  0.0546 -0.1387
24750W        W44284   1.540   4.225   3.232  0.5181  0.0561 -0.0524
24751W        W44285  10.839   6.158  14.876  0.2270 -0.0466 -0.1248
24752W        W44286   8.402   0.502   5.133 -0.0129  0.0841  0.0264
24753W        W44287  13.726  12.804  13.454  0.0998 -0.0232 -0.1186
24754W        W44288  17.705   4.972  10.606  0.1487  0.2778  0.0974
24755W        W44289   9.719   1.673  13.273 -0.0974  0.3136 -0.0017
24756W        W44290  11.264  15.745   1.046  0.1404 -0.2795 -0.2076
24757W        W44291   8.274   4.827   1.321  0.0042  0.1855 -0.0382
24758W        W44292  17.720  16.555  15.774  0.0189 -0.1370 -0.0863
24759W        W44293   4.364   1.109   2.300  0.0040 -0.1961 -0.0031
24760W        W44294   2.943   6.849  14.264 -0.1111  0.2725  0.1415
24761W        W44295  11.584   7.550   2.552 -0.1471 -0.1209 -0.1774
24762W        W44296   9.148  15.381  15.712 -0.1022 -0.0618  0.4070
24763W        W44297   2.160   2.853   2.218 -0.0329 -0.0673  0.0710
24764W        W44298   9.458   8.568  15.835 -0.5144 -0.0312  0.1708
24765W        W44299   8.459  10.724   2.115 -0.0413 -0.1745 -0.0512
24766W        W44300  15.889  14.731  15.691  0.1958 -0.0153 -0.1232
24767W        W44301   6.215  14.625  11.446  0.4287 -0.0048  0.0041
24768W        W44302   9.071   7.594  13.079  0.0837 -0.0030 -0.2221
24769W        W44303   3.081   9.369   3.553 -0.1192  0.3475 -0.1565
24770W        W44304  15.092   1.239  15.329  0.0187 -0.0380  0.1031
24771W        W44305   4.706  17.927   2.860  0.0131  0.3164 -0.0036
24772W        W44306  10.633   1.894  14.601  0.2118  0.1668 -0.2280
24773W        W44307   8.727  15.270   0.805  0.1487  0.1281  0.0002
24774W        W44308   8.322  14.584  14.446 -0.3150 -0.2649  0.0594
24775W        W44309   9.850  13.673  15.109 -0.2595  0.1167  0.2238
24776W        W44310   2.329   6.008   0.028 -0.2665  0.3075 -0.2220
24777W        W44311  10.351   1.751  13.542 -0.2242 -0.0875 -0.0840
24778W        W44312  14.471   2.532   4.178 -0.1491 -0.3111 -0.1765
24779W        W44313   9.865  16.383  13.418  0.0716 -0.0321  0.0184
24780W        W44314  13.915  15.108  15.952  0.2328  0.0123  0.1165
24781W        W44315   9.080   6.616  11.740 -0.1557  0.0883  0.2502
24782W        W44316   1.826   9.685  14.371  0.5527 -0.2224  0.0450
24783W        W44317   3.932  12.202   4.075  0.1042  0.0049 -0.1347
24784W        W44318  13.027  16.115  12.512 -0.1098  0.0858  0.1944
24785W        W44319   3.256  16.285   3.018  0.0065 -0.1152 -0.0168
24786W        W44320   5.512  10.642  12.149  0.2869  0.1188 -0.0746
24787W        W44321  14.762   6.082  11.867  0.0647 -0.0005 -0.1456
24788W        W44322  16.674  13.643   5.131 -0.0212  0.1382  0.0502
24789W        W44323   5.993  13.109  14.233  0.0500  0.2480 -0.2840
24790W        W44324  10.629  12.799   1.812  0.1752 -0.1206 -0.0873
24791W        W44325   5.480  17.117  15.290  0.1347 -0.1291  0.1513
24792W        W44326   2.888   3.203  14.970  0.0368  0.3287  0.2527
24793W        W44327  10.698  15.987  15.443 -0.1874  0.1335  0.0047
24794W        W44328  12.903   7.653   4.506  0.0096  0.2010  0.1628
24795W        W44329  16.947   4.024  13.954  0.2212  0.1936 -0.0525
24796W        W44330   6.588  14.363  10.849  0.1177 -0.0093 -0.0006
24797W        W44331  12.167   2.566   4.701 -0.0286  0.0925 -0.2088
24798W        W44332   9.163   5.221  12.387 -0.0323 -0.1201  0.2992
24799W        W44333  14.859  13.927   0.954 -0.0047 -0.1068 -0.1349
24800W        W44334  17.595   1.595  12.218 -0.0002 -0.0512 -0.2203
24801W        W44335   8.492  12.611   5.158  0.1361 -0.1990  0.3384
24802W        W44336  15.317  10.743  14.934  0.1367  0.3903 -0.4033
24803W        W44337   7.035   2.035   4.730  0.0888  0.0269  0.1502
24804W        W44338  17.917  17.418  15.130 -0.2193  0.3095 -0.3496
24805W        W44339   6.180   8.170   3.762  0.0804  0.1219  0.1924
24806W        W44340   3.723   3.828  11.369 -0.1588  0.0158 -0.3298
24807W        W44341  12.832   1.854   4.450 -0.0925  0.1834 -0.0368
24808W        W44342  11.927  18.160  12.716  0.0580 -0.1109 -0.1342
24809W        W44343   2.764   5.933  14.145  0.2503  0.1593 -0.1646
24810W        W44344   6.546   3.371   3.605  0.2357 -0.2078  0.0971
24811W        W44345   3.683   2.284   2.566  0.1606 -0.0049  0.0956
24812W        W44346   7.865   5.661   4.630 -0.0016 -0.0115  0.4263
24813W        W44347   5.191   7.722  15.102 -0.3595 -0.2498  0.3762
24814W        W44348  17.719  17.108   4.756 -0.1873  0.4853  0.1286
24815W        W44349   8.379   4.640   3.628  0.0365  0.3392 -0.1600
24816W        W44350  13.881  12.511  14.338  0.2852 -0.1482 -0.0221
24817W        W44351   5.428   9.509   3.585  0.1540 -0.1547  0.0572
24818W        W44352  17.566   6.769  13.616 -0.0407  0.3491  0.0788
24819W        W44353   1.663   2.765   2.821 -0.1245  0.0773  0.2144
24820W        W44354   8.775   0.153   3.095 -0.1371  0.5800 -0.3234
24821W        W44355  12.053   3.049   3.186 -0.0323 -0.1950 -0.0802
24822W        W44356  17.535  15.412   0.051 -0.2675 -0.0706  0.0588
24823W        W44357  12.540   1.889   2.344 -0.3383 -0.1655 -0.0636
24824W        W44358  13.548   6.365   3.782 -0.0685  0.1429 -0.2447
24825W        W44359   8.916   0.274  15.339 -0.0019  0.1544  0.1783
24826W        W44360  11.397   7.442  14.090  0.2240 -0.1297  0.0510
24827W        W44361   2.457   7.598   3.247 -0.2124 -0.1215  0.0672
24828W        W44362  16.299  16.863   5.110 -0.0981 -0.0969 -0.2351
24829W        W44363   1.176   3.207  13.657  0.1249  0.0540 -0.1888
24830W        W44364   5.292  15.252   0.404 -0.2158 -0.0620 -0.1880
24831W        W44365  14.375   2.288   3.107  0.2964 -0.1750  0.0572
24832W        W44366  17.515   4.848  11.564 -0.1712 -0.2140 -0.0281
24833W        W44367  12.141  12.242  11.302  0.1816  0.0779 -0.1452
24834W        W44368  17.196   7.140   4.125  0.3542 -0.2852 -0.0497
24835W        W44369   2.999   4.385   5.478  0.1677  0.0332 -0.2342
24836W        W44370  17.028  14.270   0.807  0.2383 -0.0269 -0.3528
24837W        W44371   9.343   3.353  14.540  0.1958  0.1063  0.1270
24838W        W44372  17.961   9.363   0.198  0.0877 -0.0731  0.2815
24839W        W44373  10.752  15.477  12.324  0.0843  0.1845 -0.2478
24840W        W44374   6.104  15.188   0.045  0.1929 -0.0600  0.4886
24841W        W44375   7.075   5.122  13.206 -0.0335  0.0270  0.3245
24842W        W44376  16.861  12.839  15.241 -0.1632  0.0795 -0.1669
24843W        W44377  15.743   0.776   2.348  0.0505  0.0158 -0.0540
24844W        W44378   5.693  16.101  15.618 -0.3110  0.0696 -0.0618
24845W        W44379   2.211   2.154  12.848  0.1988 -0.0396  0.4160
24846W        W44380   6.307  17.319  11.175 -0.0176  0.2322 -0.0118
24847W        W44381  17.328  13.739  15.798 -0.1316 -0.0154  0.1430
24848W        W44382  10.346  16.240  13.121 -0.0546  0.4821  0.0615
24849W        W44383  11.123   9.295   3.061 -0.2023  0.0447 -0.2016
24850W        W44384  13.452  18.013   0.193 -0.2877 -0.1507  0.0739
24851W        W44385   4.543   9.376  11.845  0.0530  0.0045  0.0925
24852W        W44386  13.186  13.771  16.021  0.2742 -0.3335 -0.3771
24853W        W44387   0.794   7.033  14.753  0.0383  0.0864  0.1261
24854W        W44388   0.047   2.126   3.574 -0.2834 -0.0945 -0.0712
24855W        W44389  11.374   8.839   2.366  0.1160  0.0053  0.2400
24856W        W44390   5.041  15.679  12.849  0.0339 -0.1080  0.1353
24857W        W44391   9.693  12.045   3.233 -0.3175 -0.1231 -0.1275
24858W        W44392   1.166   7.797   4.798  0.1028  0.0763 -0.2963
24859W        W44393  15.859  11.281   1.443  0.0163 -0.1323 -0.0707
24860W        W44394   8.621   9.330  14.843 -0.0371 -0.1202  0.1562
24861W        W44395  18.138   3.403  14.184  0.0906  0.1129 -0.1506
24862W        W44396  17.055  17.936  13.759  0.1738 -0.0956 -0.1104
24863W        W44397  13.816   7.055  13.550  0.2167 -0.2302 -0.0649
24864W        W44398  12.612   8.844  11.683 -0.1247 -0.2807  0.0303
24865W        W44399   4.627   1.185  14.946 -0.1350 -0.0833 -0.1072
24866W        W44400   7.362  13.013  12.053  0.0527  0.1915 -0.0203
24867W        W44401   5.659  11.955  12.512 -0.1463  0.2083  0.0131
24868W        W44402   0.978  14.240   0.761  0.0260  0.0305  0.1138
24869W        W44403  12.933  15.175   3.749  0.0389  0.0886  0.1146
24870W        W44404   1.609  15.877   2.273 -0.4233  0.3818  0.1633
24871W        W44405   1.916  11.102  12.402 -0.1855  0.1311 -0.1607
24872W        W44406  11.062   0.586   0.664  0.1944 -0.1964  0.1641
24873W        W44407   8.930  10.679   0.994  0.2203  0.1589 -0.0490
24874W        W44408   1.440  15.405   2.279 -0.0765  0.1149  0.2106
24875W        W44409   7.859  12.575  15.923 -0.1429  0.0550 -0.0411
24876W        W44410   1.121  14.620  15.507  0.0366 -0.0469 -0.0817
24877W        W44411   5.444   2.705   0.287 -0.1192  0.0461 -0.1957
24878W        W44412   8.319   7.952  15.461 -0.4436 -0.3863  0.0739
24879W        W44413   2.759   5.667   3.591 -0.0302 -0.0646 -0.0707
24880W        W44414  10.370   4.290  12.175  0.1183  0.1460  0.2606
24881W        W44415   5.474  13.066  15.735 -0.0252  0.1243 -0.2010
24882W        W44416   5.835  13.817  15.304  0.0508  0.1541 -0.0155
24883W        W44417  14.033  14.294   0.987 -0.0688 -0.1732 -0.0085
24884W        W44418  17.100   3.287  15.780 -0.0462 -0.0916  0.4894
24885W        W44419   1.536  18.010  11.708  0.1133 -0.0057 -0.1073
24886W        W44420   3.782   6.671   1.649 -0.0019 -0.2491  0.1236
24887W        W44421   7.949  13.284  14.300  0.1677  0.2330 -0.1326
24888W        W44422   9.705  13.082   3.525 -0.2508  0.0321 -0.0316
24889W        W44423  17.008  11.149  13.306  0.2953 -0.1511 -0.0462
24890W        W44424   8.465   6.947   4.631  0.0241 -0.0829 -0.2359
24891W        W44425   5.096   3.097  11.958  0.1528  0.1261 -0.4167
24892W        W44426  10.034  13.485   0.044  0.1664  0.1828 -0.0427
24893W        W44427   8.478   0.641  15.025  0.0513 -0.2135 -0.1343
24894W        W44428  15.792   7.822  15.378  0.3173 -0.0300 -0.0369
24895W        W44429  10.618   4.946  14.371 -0.0141 -0.0640  0.3675
24896W        W44430  14.129   7.209   3.685 -0.1616  0.0419 -0.1513
24897W        W44431  14.822   5.777   0.262 -0.1945 -0.0611  0.1918
24898W        W44432  10.314  17.123  12.838 -0.0015 -0.0228  0.1470
24899W        W44433  12.392   1.447   2.644  0.1561  0.1015 -0.0255
24900W        W44434  10.037  16.267   3.830 -0.0120 -0.0903  0.2146
24901W        W44435   7.352  17.350  11.160  0.0745 -0.1966 -0.3794
24902W        W44436  14.679  17.277   3.311  0.0199 -0.0008  0.0586
24903W        W44437  14.291   6.268  15.743  0.1987  0.3647 -0.0440
24904W        W44438   7.630  10.401   3.808 -0.0564 -0.1761  0.0688
24905W        W44439  16.626   6.850  12.052  0.2189  0.2003 -0.3301
24906W        W44440   3.670  13.610   0.997  0.1733 -0.0435 -0.0826
24907W        W44441   2.932   1.947   1.216  0.1429  0.0114  0.1851
24908W        W44442  15.618  17.243   4.238  0.0022 -0.3477 -0.0443
24909W        W44443  15.529   3.295  12.344 -0.0709  0.0900  0.1582
24910W        W44444   9.939   3.910  15.027  0.0693  0.0375  0.0460
24911W        W44445  17.071   9.156  14.146 -0.0505 -0.0788 -0.0036
24912W        W44446  12.896  16.576  13.150 -0.3410 -0.3826 -0.2008
24913W        W44447   3.340  12.943   1.441  0.0519  0.1344 -0.0548
24914W        W44448  14.572  11.385   3.776 -0.0557  0.0422  0.0919
24915W        W44449   0.748   3.143  15.917 -0.1229  0.2421  0.0587
24916W        W44450  17.900   3.531   3.820 -0.3039 -0.0020  0.0152
24917W        W44451  16.907  16.338  15.313  0.1100  0.1569 -0.2050
24918W        W44452  14.281  11.449   0.013  0.1401 -0.0910 -0.1160
24919W        W44453   9.423  10.890  12.859 -0.0709  0.0261 -0.1484
24920W        W44454   3.556   0.237   3.442 -0.0612  0.1356 -0.1696
24921W        W44455   4.276   2.550  15.121 -0.0789  0.1291 -0.0157
24922W        W44456  14.873  10.492  12.546  0.0551  0.1154  0.1315
24923W        W44457   2.227  11.327  14.100  0.3119  0.0077  0.0904
24924W        W44458  14.563  13.686   1.375 -0.2604 -0.1184  0.4155
24925W        W44459   7.173  15.014   4.429 -0.2345  0.0351  0.0330
24926W        W44460  13.941  10.693  13.176  0.2568 -0.1091 -0.0409
24927W        W44461   2.094   2.217   1.437  0.2803  0.1414  0.4796
24928W        W44462   0.371  10.393   3.886  0.0138  0.0146  0.1993
24929W        W44463  17.485  10.213   2.065  0.1054 -0.0878 -0.1776
24930W        W44464   5.662   4.736  12.512  0.0090  0.1506  0.1741
24931W        W44465  13.169  15.064  12.567  0.1114  0.1933 -0.0663
24932W        W44466  16.496  11.413   0.487  0.1995  0.1119 -0.0803
24933W        W44467   7.578   8.853  12.065  0.0225  0.0529  0.2002
24934W        W44468  15.490   8.406   4.584 -0.2475  0.3320 -0.0214
24935W        W44469  11.733   9.709   4.588 -0.1057 -0.1309  0.0058
24936W        W44470   7.040   5.011  12.679  0.0046 -0.1155 -0.0787
24937W        W44471   1.608   5.190  15.914  0.0837 -0.1136  0.0074
24938W        W44472   4.114  17.596  11.941  0.0764 -0.1477  0.1612
24939W        W44473  15.155   4.253  13.974  0.0944  0.1097  0.0566
24940W        W44474   1.679   1.082  12.181  0.1451  0.0315  0.0572
24941W        W44475  10.631   1.035  14.683 -0.2878 -0.1929  0.0658
24942W        W44476   9.410  16.945   0.568  0.2412  0.4920 -0.3421
24943W        W44477  15.262  11.460   2.787  0.0542 -0.2502 -0.0508
24944W        W44478  14.597   4.834  12.063 -0.0037 -0.0276  0.2509
24945W        W44479  15.169  17.667  13.347 -0.0867  0.3887  0.1100
24946W        W44480   7.232  17.408  15.463 -0.0457  0.1967 -0.0873
24947W        W44481   6.515   8.715  11.780  0.0126  0.2103  0.2360
24948W        W44482  11.892   2.814   4.364  0.0601  0.0261  0.0839
24949W        W44483  12.937   7.890  13.859 -0.1517 -0.2110 -0.0265
24950W        W44484   5.721   5.418  13.729 -0.1114 -0.2219 -0.3759
24951W        W44485  15.974  15.613   1.740 -0.2053  0.2579 -0.1115
24952W        W44486   7.979   4.865  13.567 -0.0045  0.0872 -0.1506
24953W        W44487   7.964  15.498   3.924  0.2529  0.3244  0.2672
24954W        W44488   5.649  13.333   0.062 -0.1511 -0.3267 -0.0440
24955W        W44489   5.002   1.806   2.338 -0.3223  0.1192 -0.1620
24956W        W44490   6.108  10.450  14.409  0.0593  0.0663  0.0851
24957W        W44491   6.332  15.504  13.248 -0.0789 -0.1170 -0.2054
24958W        W44492   5.399  17.726  15.620 -0.2246  0.3250 -0.0746
24959W        W44493   2.784  15.001   2.643  0.1988 -0.0305 -0.1731
24960W        W44494  13.913  16.061   5.329 -0.1754  0.0729 -0.2589
24961W        W44495  13.201  10.387  15.329  0.0021  0.1623  0.3770
24962W        W44496  10.155   2.298  12.254  0.0679 -0.1143 -0.0562
24963W        W44497   5.398  13.785  15.602  0.3531  0.0501 -0.3674
24964W        W44498   0.510   8.502   2.732  0.0724 -0.3599  0.2351
24965W        W44499   2.671  13.691  12.852 -0.1715  0.5093  0.1149
24966W        W44500   6.804  12.327   2.085  0.1929 -0.1444  0.0501
24967W        W44501  13.651   9.376   1.591  0.0875 -0.1855  0.1599
24968W        W44502   5.167  14.789  13.964  0.0894  0.1463 -0.3452
24969W        W44503   4.609  14.849   0.421  0.1981 -0.1366 -0.0614
24970W        W44504   0.049   3.806  13.611 -0.0962  0.0825 -0.0233
24971W        W44505   3.912  10.973   0.843 -0.1613 -0.1528 -0.1617
24972W        W44506   4.416  15.778  12.072 -0.0058 -0.3047 -0.1903
24973W        W44507   8.180  16.376   0.430 -0.0757  0.1922  0.2242
24974W        W44508   4.334   8.743   1.254  0.1433 -0.2181  0.1337
24975W        W44509   6.877   6.231   2.156 -0.0547 -0.0599 -0.3418
24976W        W44510   3.992   7.075   0.345  0.1337  0.0105  0.0011
24977W        W44511  14.666   3.142   0.027  0.0123  0.0409  0.3342
24978W        W44512   8.550  14.938  14.895  0.1380  0.1852 -0.2512
24979W        W44513   6.442   7.890  11.371  0.0901  0.3020  0.0095
24980W        W44514   9.583  15.002  15.328 -0.0430 -0.1015 -0.0271
24981W        W44515   7.568   0.163  14.196 -0.3595  0.0419  0.0664
24982W        W44516   1.443  14.664  12.326  0.1694 -0.1034  0.2419
24983W        W44517  17.592  13.128  12.836  0.1777  0.1158  0.1515
24984W        W44518  14.687   9.564  14.457 -0.0263 -0.0332  0.0482
24985W        W44519   1.658  17.034   0.941 -0.1464 -0.0351  0.1723
24986W        W44520   5.460   4.973  15.052 -0.2468 -0.0505  0.0882
24987W        W44521   1.607  14.807  12.809  0.2111 -0.2171  0.2690
24988W        W44522   7.728  10.013  15.856  0.1146  0.0947  0.1137
24989W        W44523  11.602   3.709  13.272 -0.0997  0.2441 -0.3003
24990W        W44524   9.873   6.122  11.860  0.0186  0.2128 -0.1577
24991W        W44525   1.402  15.283   3.211 -0.3338 -0.0191  0.0523
24992W        W44526  16.181  10.328   1.365  0.1994  0.1782 -0.0959
24993W        W44527   6.556   8.355   0.332  0.1214 -0.0228 -0.0347
24994W        W44528  14.252   7.534   0.519 -0.1759  0.0254  0.1304
24995W        W44529   1.109  10.923   5.403  0.2133  0.2783 -0.1507
24996W        W44530  11.887   5.033  12.352  0.3280  0.1483 -0.0369
24997W        W44531   3.626  16.768  14.427  0.1162 -0.1390 -0.1121
24998W        W44532  14.241  15.616  11.729 -0.0311 -0.1338  0.3487
24999W        W44533   4.899   7.815   3.914 -0.0306 -0.1805  0.0573
25000W        W44534  14.135   6.267  11.988 -0.0647 -0.0184 -0.1330
25001W        W44535   5.275  15.289  11.711 -0.0547  0.0038 -0.1247
25002W        W44536   9.439   9.871   5.047 -0.1676 -0.4455  0.1453
25003W        W44537  14.969   6.469   0.839  0.0172  0.2650  0.1585
25004W        W44538   6.466   0.130   2.034  0.2132  0.1913  0.2860
25005W        W44539  10.237  15.267   4.256 -0.2199 -0.3013  0.1233
25006W        W44540   9.014   0.499   0.203  0.3840 -0.2831  0.0826
25007W        W44541  11.641   8.284  12.607 -0.1802  0.0344  0.1600
25008W        W44542   9.521  14.127   4.272  0.2484  0.2964  0.1376
25009W        W44543  10.775  11.661   4.049 -0.0216  0.1639  0.0018
25010W        W44544  11.750   9.496  13.476 -0.1034 -0.0328  0.1639
25011W        W44545  13.483   1.299  14.083  0.1903  0.1689  0.0381
25012W        W44546   3.919   3.765  13.437 -0.2249 -0.0704  0.1660
25013W        W44547   9.039   1.442  13.906 -0.3377  0.2186 -0.0184
25014W        W44548  10.345  13.154   0.390 -0.2162  0.0302  0.0087
25015W        W44549  17.908  14.365   3.293 -0.3383 -0.0616  0.2995
25016W        W44550   6.163   7.926  12.828  0.1744 -0.1993 -0.1477
25017W        W44551  12.764  10.265   3.702  0.1850  0.0068 -0.0649
25018W        W44552  15.880  16.855   2.964  0.0963  0.2167  0.0249
25019W        W44553   1.907   6.150  12.354 -0.2468 -0.0053  0.4567
25020W        W44554  11.806   1.655   3.423 -0.0681 -0.3767 -0.0074
25021W        W44555  13.245   7.607  15.634 -0.2449 -0.2113 -0.1189
25022W        W44556   2.915   8.734   1.608  0.1422  0.3325 -0.2506
25023W        W44557   0.243   5.564   0.081 -0.0047 -0.0700  0.0433
25024W        W44558  17.427   2.171   2.991  0.1012  0.1289  0.0608
25025W        W44559  11.941  11.288   2.936  0.0760 -0.2085  0.0777
25026W        W44560  12.943  11.870   0.740 -0.1381 -0.1298 -0.2595
25027W        W44561   8.036  12.282  14.944  0.1814 -0.0302 -0.0246
25028W        W44562   9.650   6.778   0.581  0.4457 -0.1508  0.0126
25029W        W44563   6.870   7.690   4.804  0.1302 -0.3654  0.3989
25030W        W44564   0.201  15.056   0.602  0.0680  0.2230 -0.2900
25031W        W44565  13.150  16.987  10.578 -0.2204 -0.0032  0.1054
25032W        W44566   6.826   8.931  14.669  0.0035 -0.0584 -0.2267
25033W        W44567  11.759   8.354   0.980 -0.1407  0.0767 -0.2551
25034W        W44568  13.778   2.601   4.757  0.1072 -0.1281  0.1096
25035W        W44569  13.886  15.086   1.801 -0.0503 -0.3677 -0.0064
25036W        W44570  13.511  17.646   0.676  0.2401  0.0158 -0.1615
25037W        W44571   6.401   0.359  12.823 -0.1967  0.1257 -0.0775
25038W        W44572   3.510  13.072   2.387  0.0484  0.2077 -0.1781
25039W        W44573   4.293   8.370   0.868 -0.0897 -0.1650 -0.1582
25040W        W44574  16.301  13.433   1.541  0.1260  0.4315  0.2051
25041W        W44575   0.231  15.528  15.291 -0.1983  0.0414 -0.1797
25042W        W44576   1.444   1.132   2.866  0.2070 -0.1509 -0.0332
25043W        W44577   2.197   1.497  10.119  0.0814  0.1103  0.2977
25044W        W44578   0.483   9.098  13.038  0.4756 -0.3695  0.3495
25045W        W44579   1.119  16.813   1.586 -0.0172 -0.1112  0.0555
25046W        W44580  17.781   6.069   3.592 -0.2580  0.1261  0.2140
25047W        W44581  14.234   7.992  11.107  0.0519  0.1656  0.1510
25048W        W44582   2.861   4.328  12.879  0.1444 -0.0649  0.2026
25049W        W44583   5.325  11.788  13.595  0.0182  0.0169 -0.2323
25050W        W44584  16.224  11.528  14.805  0.1300 -0.1026 -0.0395
25051W        W44585  12.024  15.088  14.883 -0.2803 -0.2033 -0.0342
25052W        W44586  10.335  13.004  12.244 -0.1740 -0.1231 -0.1078
25053W        W44587   4.102  10.710   3.102  0.1583  0.0391  0.1319
25054W        W44588   0.384   4.128  11.922 -0.0230  0.0601 -0.0230
25055W        W44589   6.287  14.968  11.905 -0.0547 -0.2786  0.2510
25056W        W44590   6.977   7.270   3.222 -0.0928  0.0149  0.3646
25057W        W44591   3.231  11.297   3.883  0.1519  0.0514 -0.0581
25058W        W44592  13.725   1.554  13.226  0.0836  0.0310  0.1976
25059W        W44593   7.339  16.474  16.012 -0.0356 -0.2671  0.0187
25060W        W44594   6.415  13.797  12.716  0.4012 -0.1289 -0.3409
25061W        W44595   9.722  14.333  13.401  0.0956 -0.0518 -0.2118
25062W        W44596   9.211   0.983   3.236 -0.3112 -0.2314 -0.0003
25063W        W44597   2.770  12.111   4.745  0.0454 -0.2018 -0.0328
25064W        W44598   8.228  13.033  12.985  0.1195 -0.2142  0.2547
25065W        W44599   4.848   9.364   2.215  0.2909  0.0674  0.1997
25066W        W44600   3.276  17.072  11.391  0.1223  0.0941 -0.0344
25067W        W44601  11.573  14.591  13.120  0.0913 -0.0786 -0.2859
25068W        W44602  13.814  16.661   3.862 -0.1294  0.0160  0.0040
25069W        W44603  13.263   7.440  12.654 -0.1408  0.1554  0.1387
25070W        W44604   5.427  12.608  13.188 -0.1826  0.0159 -0.0419
25071W        W44605  14.530   6.927   3.484 -0.1339  0.0982 -0.0162
25072W        W44606  15.477   2.319   4.002 -0.0370 -0.0560 -0.2717
25073W        W44607  16.279   2.644   3.858 -0.0088  0.0313  0.0899
25074W        W44608  12.190   6.739  15.532  0.1533 -0.1453 -0.1412
25075W        W44609  11.310  11.807  10.732 -0.2819 -0.2122 -0.3350
25076W        W44610   0.318   4.953  15.465 -0.1419  0.1663 -0.1702
25077W        W44611   4.361  16.456  15.738  0.0204 -0.0569  0.1324
25078W        W44612   2.187  12.478  11.612 -0.1529 -0.1467 -0.2166
25079W        W44613  15.958  13.733  15.646 -0.2106 -0.1810  0.1185
25080W        W44614  14.739  11.109  12.456 -0.2184  0.0091  0.1816
25081W        W44615  13.351  14.213  14.324  0.2141 -0.0419 -0.2282
25082W        W44616  16.269   8.058  15.423  0.1740  0.1735 -0.0740
25083W        W44617   9.394   3.960  13.940  0.0210 -0.1988 -0.0565
25084W        W44618  17.332   1.813  13.443  0.0805 -0.2792  0.2428
25085W        W44619   7.636   1.246  14.718 -0.0295 -0.1459 -0.0868
25086W        W44620   3.346   6.817   3.458 -0.2602 -0.1496  0.0299
25087W        W44621  12.764  11.413   1.528  0.3748 -0.5974 -0.1675
25088W        W44622   4.124  17.440  11.040 -0.2211  0.0271  0.0729
25089W        W44623   6.120   9.399  14.271 -0.0930 -0.0734  0.0017
25090W        W44624  10.756  13.561   1.564 -0.1661 -0.1958 -0.1323
25091W        W44625   4.009   0.494  14.859 -0.1329  0.1218  0.0403
25092W        W44626   1.481   9.431   4.205 -0.0813 -0.1298 -0.0278
25093W        W44627  10.306  16.888   0.738  0.0504  0.2268 -0.1493
25094W        W44628   6.184   1.224  10.942  0.1285 -0.3695  0.0887
25095W        W44629  10.162   7.703   1.395  0.2294  0.1481 -0.3094
25096W        W44630   2.338   8.898  14.716  0.1245 -0.1567 -0.0988
25097W        W44631   6.893   5.949   2.616 -0.0657  0.0118 -0.3602
25098W        W44632   8.022   1.194  12.933  0.1554  0.1127 -0.5888
25099W        W44633  15.842  15.836   1.317  0.0464  0.1924  0.1568
25100W        W44634  13.069   6.475   2.428 -0.0601  0.3453  0.1236
25101W        W44635   0.437  12.345  15.534 -0.2830 -0.0819  0.1675
25102W        W44636   2.117   2.472  13.764 -0.2980 -0.0229  0.2559
25103W        W44637  14.854  11.518  15.379  0.3483 -0.0385 -0.1194
25104W        W44638  14.744   3.635  15.893  0.0948 -0.0455  0.1836
25105W        W44639  15.528  13.307   2.841 -0.1060  0.0886 -0.4424
25106W        W44640   6.561   2.262  14.954 -0.0782 -0.0247 -0.2318
25107W        W44641   9.575  12.862  12.825 -0.4878 -0.1156 -0.0314
25108W        W44642   8.326   7.473  15.540 -0.0021  0.2760  0.2259
25109W        W44643   1.081  15.494   1.474 -0.0889 -0.1992  0.0965
25110W        W44644   9.695  13.099   0.163 -0.2099 -0.0123 -0.2435
25111W        W44645   8.354   9.021   4.372 -0.0324 -0.1715 -0.1095
25112W        W44646   9.155   8.289  15.570  0.0847  0.0246 -0.2652
25113W        W44647   4.697  14.884  15.630 -0.1435 -0.1292  0.3391
25114W        W44648   9.553   5.683   3.855 -0.0263  0.1593  0.0124
25115W        W44649  12.455   6.798   3.333 -0.0206 -0.2983  0.0170
25116W        W44650   3.679   5.012  12.823  0.4585 -0.1315  0.0870
25117W        W44651  17.776   4.636  11.042  0.1356  0.2039  0.1872
25118W        W44652   2.542  15.406   1.234 -0.0965 -0.2767  0.0610
25119W        W44653  12.582   3.335   2.322  0.2580 -0.0097  0.1899
25120W        W44654   0.858  11.837  14.657  0.0670 -0.2223  0.1927
25121W        W44655  11.092   9.637   4.237 -0.0766  0.4232 -0.0821
25122W        W44656  14.172  13.815  15.260  0.0044  0.2490  0.0560
25123W        W44657  13.184  16.615  14.940 -0.1433  0.2474 -0.0754
25124W        W44658  15.993   3.423  15.399  0.4068  0.2678  0.3136
25125W        W44659   3.995   8.783  15.872 -0.2236 -0.2164  0.0132
25126W        W44660  18.105  15.310   2.752 -0.1406 -0.2486  0.4874
25127W        W44661  14.184  10.306   1.524 -0.1611  0.0655 -0.1944
25128W        W44662  10.631  13.630   3.386  0.1198 -0.4113  0.3041
25129W        W44663  14.484  14.578  14.393  0.0514  0.2819  0.0149
25130W        W44664   5.188   8.423  14.076  0.0880  0.1894 -0.1699
25131W        W44665   1.952  11.858   3.993  0.1817  0.1508 -0.0410
25132W        W44666   7.107   8.739   2.061  0.0367 -0.0051  0.2302
25133W        W44667   4.509   6.923   0.939  0.1766 -0.0715 -0.0045
25134W        W44668   4.352  16.671   4.929 -0.1834  0.1629  0.1595
25135W        W44669   7.282   6.064   4.260 -0.1762  0.0583 -0.0460
25136W        W44670  15.112  17.173  13.521 -0.3785 -0.0259  0.0765
25137W        W44671   3.800   7.630  11.861 -0.0971 -0.0168 -0.1334
25138W        W44672   1.295  17.213   0.281  0.0736  0.2096 -0.4196
25139W        W44673   7.626   8.104  13.782 -0.0951 -0.2009  0.1356
25140W        W44674   6.313  15.581  14.697  0.2251 -0.2364  0.0815
25141W        W44675  16.837   8.862   0.926 -0.0080 -0.0076  0.3243
25142W        W44676  11.267   2.860  13.906 -0.0909  0.0646  0.0216
25143W        W44677  16.359   7.420  11.190 -0.0922  0.1840  0.1801
25144W        W44678   0.839  10.388  15.600 -0.0358  0.0904 -0.0488
25145W        W44679   8.541  14.659   2.281  0.1568 -0.0774 -0.1805
25146W        W44680   7.090   6.379   3.823 -0.0127 -0.1610  0.0385
25147W        W44681  15.374  10.020  14.301 -0.2724 -0.0647 -0.2083
25148W        W44682   0.092   5.441   1.803  0.1771 -0.1628  0.1981
25149W        W44683   7.874  17.678  12.670 -0.4046 -0.0902  0.1798
25150W        W44684  16.300   1.585   1.900  0.0440  0.0860 -0.0107
25151W        W44685  16.208   4.258   3.151 -0.1366 -0.1678  0.0461
25152W        W44686  11.794  14.744   1.521 -0.4337 -0.1391  0.4272
25153W        W44687   4.262  11.053   1.768  0.0220 -0.1910 -0.1955
25154W        W44688  16.982  13.282   6.218  0.1904  0.1114 -0.0978
25155W        W44689   0.708   9.404   4.391 -0.0628  0.3008  0.1200
25156W        W44690   6.731   8.877   2.304 -0.1188 -0.1925 -0.0839
25157W        W44691  15.838  13.505   0.821 -0.0960 -0.2058 -0.0757
25158W        W44692  17.304  11.130   4.357  0.2047  0.0681  0.2579
25159W        W44693   2.434  11.996  15.435 -0.1726 -0.5262  0.0921
25160W        W44694   9.738  16.414  12.157  0.0048  0.0486 -0.1421
25161W        W44695   2.080   8.985   3.896 -0.0662 -0.1023 -0.1607
25162W        W44696  16.017  17.590   1.080  0.0842 -0.0599 -0.0925
25163W        W44697   9.115   2.120  12.701  0.3099  0.0725 -0.0977
25164W        W44698  12.252  15.898  12.148 -0.0995  0.0357  0.0173
25165W        W44699  12.149  16.142   0.152  0.2870 -0.0383 -0.1346
25166W        W44700  17.277   6.882  11.343 -0.2354 -0.3464 -0.1736
25167W        W44701  10.106  11.380  16.057  0.1780  0.0072  0.1042
25168W        W44702  14.969  18.181   1.063  0.1985 -0.0473  0.0465
25169W        W44703   0.889   9.684  12.721 -0.0587 -0.4593 -0.1413
25170W        W44704  17.213  16.668  14.769  0.0300 -0.3370  0.1882
25171W        W44705  11.089  10.822   2.429  0.0988 -0.0366 -0.0863
25172W        W44706  13.298  12.235   0.850  0.1946 -0.0531  0.1566
25173W        W44707  14.207   3.061  12.112  0.0798  0.0008  0.1538
25174W        W44708   2.045   9.301  10.094  0.1727 -0.0830 -0.4445
25175W        W44709   1.828   5.117  14.398  0.0228 -0.0152  0.0325
25176W        W44710   4.059   0.922   1.828 -0.2748  0.3290  0.0243
25177W        W44711  11.500  15.623   1.553  0.1951  0.3659 -0.1344
25178W        W44712  16.757   5.492   1.411 -0.2765  0.1398 -0.1597
25179W        W44713  14.779   9.007  14.421  0.0829  0.1386  0.0150
25180W        W44714   7.274  17.809   0.606  0.0422 -0.2494  0.2575
25181W        W44715   8.164   4.798  15.115  0.1525  0.1609  0.0405
25182W        W44716   9.951   9.223   0.635  0.0181 -0.0059 -0.2276
25183W        W44717  11.618   9.769  15.903 -0.0782 -0.0039  0.2293
25184W        W44718   3.514  15.246   1.168  0.0184  0.2517  0.0532
25185W        W44719   9.745  11.562   3.034 -0.1344  0.1950  0.1107
25186W        W44720  13.494   6.284  15.096  0.3878 -0.0819  0.0107
25187W        W44721  16.442   4.129  14.071  0.1797 -0.0792  0.0292
25188W        W44722  10.903  15.577   3.138 -0.0756  0.1191  0.1980
25189W        W44723  11.047  10.391   3.280 -0.0888 -0.1599 -0.1818
25190W        W44724   9.293  11.533   2.120  0.0773 -0.0967 -0.3233
25191W        W44725  12.660   8.742  15.849  0.0150  0.1557 -0.0852
25192W        W44726   5.675   2.674  15.646 -0.3416 -0.1324 -0.3004
25193W        W44727  13.130  13.439   2.957  0.0808 -0.0943  0.1231
25194W        W44728   2.924   4.810  15.526 -0.2387 -0.0690 -0.2339
25195W        W44729  11.679  12.361  14.521 -0.0375 -0.2494  0.1224
25196W        W44730   2.308   0.793  15.183  0.1484 -0.0570 -0.2469
25197W        W44731  13.521   9.941  11.680  0.2504  0.2482  0.0204
25198W        W44732   7.098  11.219  13.095  0.1093 -0.1920 -0.0668
25199W        W44733  13.566  15.503  13.754  0.0866  0.0434  0.1788
25200W        W44734  16.679  13.587   2.228  0.0090  0.1139 -0.1253
25201W        W44735  16.563   3.769   4.685 -0.2446 -0.0372  0.1352
25202W        W44736   3.761   5.157  13.339 -0.2769  0.0937  0.3935
25203W        W44737   7.558  17.735  13.080 -0.0423 -0.1734 -0.2265
25204W        W44738  12.090  14.721  15.613 -0.1834 -0.0350 -0.2029
25205W        W44739  10.329  11.622  15.538 -0.0470 -0.0118  0.0928
25206W        W44740   6.847  14.317   4.042 -0.1335  0.2437 -0.0411
25207W        W44741  10.514   4.789  11.981 -0.0503 -0.0347  0.0311
25208W        W44742  17.228  12.866   2.201 -0.4015 -0.1767 -0.1022
25209W        W44743   0.603  14.443  11.809 -0.0573  0.0796  0.3005
25210W        W44744   7.848   6.327   0.662  0.0738  0.0254 -0.3165
25211W        W44745   4.891  11.696  11.841  0.4207  0.1663  0.1577
25212W        W44746   5.634  10.409   1.780  0.2710  0.1710  0.1614
25213W        W44747   4.234  14.275   1.007 -0.0672 -0.0220 -0.1591
25214W        W44748   5.007   9.465  11.757  0.0379 -0.0879  0.2335
25215W        W44749  11.768  14.884  12.705  0.1385  0.1337  0.2498
25216W        W44750  15.899  13.801   3.686 -0.1830  0.2379  0.0704
25217W        W44751  15.530   5.076  12.320 -0.1279 -0.0910  0.0433
25218W        W44752  13.211  10.027   3.167  0.0116  0.3365  0.0859
25219W        W44753   8.418   5.782  15.030 -0.0022 -0.0957 -0.1192
25220W        W44754   8.263  11.595  14.095 -0.2695 -0.1189  0.1015
25221W        W44755   9.380  11.722   2.574 -0.1818 -0.3233  0.2177
25222W        W44756   9.534   4.019  11.728 -0.0410 -0.1408 -0.1406
25223W        W44757  11.473   1.946  15.717  0.0930 -0.2016  0.0956
25224W        W44758   1.337  10.448   2.902  0.0820 -0.1061 -0.2252
25225W        W44759   4.628  14.951  12.155  0.0924 -0.0597  0.2947
25226W        W44760  11.273  10.454   0.505 -0.0728  0.4281  0.2940
25227W        W44761  10.931  16.386  15.305  0.0308 -0.1253  0.0522
25228W        W44762   0.696   0.279  13.495  0.0226 -0.1457  0.0439
25229W        W44763   9.751  16.969   3.246 -0.0995 -0.2467 -0.0888
25230W        W44764  17.734   6.478  12.154 -0.0680 -0.1682 -0.5515
25231W        W44765   7.453   3.984  12.726  0.1707 -0.0248 -0.0804
25232W        W44766  14.399   0.133  14.273 -0.1891 -0.0797  0.0661
25233W        W44767  13.926   9.625  15.387 -0.0883 -0.1924  0.1846
25234W        W44768  12.861  14.194   3.004  0.1073  0.2279  0.1548
25235W        W44769  10.620  16.993  12.456  0.0551 -0.0707 -0.3829
25236W        W44770  11.049   6.695   3.544  0.2256 -0.0317 -0.0763
25237W        W44771   0.164   1.432   1.186  0.1316 -0.1688  0.2348
25238W        W44772   8.169   5.876  14.513  0.4013 -0.2203 -0.1051
25239W        W44773   2.165  14.762   2.665 -0.1276  0.1294  0.1708
25240W        W44774   4.839  15.662  12.394 -0.1570 -0.1299  0.3903
25241W        W44775   6.992   6.897  12.904  0.0661 -0.0420  0.2382
25242W        W44776   8.854   2.497  12.461 -0.1616 -0.0177 -0.0847
25243W        W44777  10.610  12.076   3.136  0.1228 -0.1357 -0.1665
25244W        W44778   9.659   9.705  14.735  0.2053  0.0924  0.3619
25245W        W44779   6.454   1.500   0.839 -0.0825  0.0989  0.0430
25246W        W44780   7.380  10.361   4.306  0.0664  0.0057  0.0495
25247W        W44781  15.909  14.447   3.039 -0.0899  0.0959 -0.0022
25248W        W44782  15.541  15.865  12.037 -0.0653  0.1214  0.0449
25249W        W44783  10.400   6.593  14.476 -0.0345 -0.0765 -0.0954
25250W        W44784  13.546  12.034   1.209 -0.1039 -0.2755 -0.1064
25251W        W44785   8.922   3.787   0.167  0.0569  0.3231  0.0264
25252W        W44786  12.410   1.618  14.859 -0.0670 -0.2254  0.0204
25253W        W44787   3.583   3.724   0.704  0.0399 -0.0532  0.0637
25254W        W44788   2.844   5.852  14.620 -0.1022 -0.0243  0.3625
25255W        W44789  13.244   3.509  12.974 -0.1234  0.2660  0.2776
25256W        W44790   1.367   6.346  14.667  0.0985  0.0369 -0.4339
25257W        W44791  16.775   9.594   1.648 -0.0030 -0.1635  0.0893
25258W        W44792  11.965  14.957  12.242 -0.0051  0.2000  0.2188
25259W        W44793  12.734   3.710  15.892  0.0170  0.1206 -0.3225
25260W        W44794   7.239   0.634  14.168  0.0021 -0.1301 -0.1043
25261W        W44795  10.002   3.443  14.507  0.0496 -0.1960  0.0484
25262W        W44796   8.714   1.889  15.725  0.0872 -0.0696  0.2357
25263W        W44797   6.965  17.789  14.653 -0.0612  0.2502  0.2698
25264W        W44798  17.200  14.654  13.071  0.0600  0.1026 -0.0300
25265W        W44799   4.250  12.990  13.269  0.1909  0.1633 -0.3500
25266W        W44800   3.488   0.765   0.479  0.1264 -0.0549 -0.0324
25267W        W44801  10.874   1.280   4.828  0.2038  0.0852 -0.1478
25268W        W44802  10.666   8.268  15.137  0.0618  0.0842  0.0551
25269W        W44803   2.897  11.378   1.841  0.0238 -0.3344 -0.0168
25270W        W44804  10.292  17.978  12.750 -0.0613  0.1321 -0.3343
25271W        W44805   0.612   8.762  12.457 -0.1229 -0.1593  0.0260
25272W        W44806  12.771  16.513   1.518  0.1137  0.1418 -0.2603
25273W        W44807   7.997   8.977   1.797 -0.0337  0.0144 -0.0840
25274W        W44808  17.384  10.229   4.227 -0.0222  0.2114  0.0236
25275W        W44809   6.664   6.631  11.811  0.0098 -0.1046  0.0916
25276W        W44810   0.421  13.392   2.280  0.1528 -0.1461 -0.0429
25277W        W44811   6.989  13.222  14.288 -0.0440 -0.1147 -0.0572
25278W        W44812  11.376  12.785  11.607  0.0514  0.3124 -0.2239
25279W        W44813   5.590   9.344   5.742  0.1103  0.1510  0.1802
25280W        W44814   0.133  14.143   3.494 -0.0215 -0.2625  0.0539
25281W        W44815   3.169  13.396   1.763  0.0316 -0.0507 -0.0942
25282W        W44816   5.967  16.663   1.735  0.3588 -0.0379 -0.2376
25283W        W44817   8.694  10.250   3.982 -0.0255  0.0174  0.0295
25284W        W44818   1.963   1.479  14.898 -0.0474  0.3600 -0.0117
25285W        W44819  17.609  15.603  15.513  0.2387 -0.0950 -0.1609
25286W        W44820   7.160   4.206  14.936  0.0733 -0.0632  0.1728
25287W        W44821   3.769  12.509  15.933  0.3737 -0.2237 -0.0609
25288W        W44822  17.138   6.953  13.443  0.0998 -0.1205  0.0099
25289W        W44823   5.117   6.192   3.947  0.1500 -0.0171  0.0330
25290W        W44824   3.633   4.602   3.141  0.2093  0.0947 -0.0870
25291W        W44825  10.050   4.105  13.366  0.0784 -0.1366 -0.0275
25292W        W44826   4.324  16.346  13.297 -0.0471 -0.1225 -0.2685
25293W        W44827   1.266  12.979   0.648 -0.0666  0.0671 -0.0757
25294W        W44828  14.779   0.748   4.267  0.3335  0.0214 -0.2085
25295W        W44829  11.860   4.143   4.578  0.0653  0.0427  0.0116
25296W        W44830   3.787   7.044  15.841  0.4057  0.0343 -0.0217
25297W        W44831  16.343   8.704  12.027 -0.0044  0.0048  0.1083
25298W        W44832   6.583   4.673  14.319 -0.2288 -0.1121 -0.1514
25299W        W44833   4.801   5.828  11.756  0.0053  0.2424  0.0839
25300W        W44834   1.201   2.854  15.944 -0.2298  0.1836  0.0548
25301W        W44835   3.077   0.533   2.483 -0.0127  0.1246 -0.1757
25302W        W44836   2.240  14.460   0.269  0.2304  0.0696 -0.0543
25303W        W44837   1.874  12.458   3.352  0.0900  0.3449 -0.3385
25304W        W44838  15.955  13.734   5.429 -0.0854 -0.1463 -0.0394
25305W        W44839  13.416   6.329   4.562 -0.1018  0.0750  0.2368
25306W        W44840  17.506   4.699   3.295 -0.1262  0.3640 -0.1803
25307W        W44841  12.513   5.358   4.816 -0.2341  0.2301  0.0989
25308W        W44842   2.361   3.516   2.826 -0.1943  0.0108 -0.2237
25309W        W44843  11.608  11.884  14.919 -0.0782 -0.0714  0.0456
25310W        W44844   1.744   0.949   5.119 -0.0405 -0.1459 -0.0455
25311W        W44845  18.130  15.656  15.676  0.5962  0.2250  0.1007
25312W        W44846   0.160   0.012   4.089  0.0670  0.3001  0.4908
25313W        W44847   2.573   3.497  14.704  0.0367  0.0294  0.0506
25314W        W44848   8.377  12.298  15.850  0.0778  0.2490  0.0954
25315W        W44849  14.659  16.722   4.298 -0.0715 -0.0346  0.3801
25316W        W44850  14.318  14.906  15.606  0.1434  0.2181  0.0466
25317W        W44851  17.703  11.898  14.922  0.0345 -0.2657 -0.3917
25318W        W44852   6.850   2.091   3.639 -0.2787 -0.0643 -0.2466
25319W        W44853  11.643   4.542   0.205  0.0785 -0.1998  0.4852
25320W        W44854   0.936   7.236  14.324  0.2468  0.2218 -0.0939
25321W        W44855   3.624   9.993   3.391 -0.2059 -0.0189  0.0887
25322W        W44856  13.013  14.012  11.952 -0.0182  0.0875  0.0424
25323W        W44857   2.846  12.868  13.386 -0.1289 -0.1109 -0.1570
25324W        W44858   7.808   5.144  15.388  0.1071  0.0088  0.0181
25325W        W44859  12.146   5.191  13.192 -0.1167  0.0324 -0.1974
25326W        W44860  17.486   7.761  13.032 -0.0154  0.2392 -0.0767
25327W        W44861  12.124   7.822  15.052  0.2602  0.3179  0.0904
25328W        W44862  16.451   1.762  11.991 -0.1688 -0.1040  0.0908
25329W        W44863   8.411   1.860  12.538  0.3034 -0.1575  0.0777
25330W        W44864   4.230   4.198  15.427 -0.1734 -0.3221  0.0873
25331W        W44865  15.225  12.256  14.388  0.0103 -0.0742  0.3481
25332W        W44866  17.872   3.103  12.649 -0.2117  0.1371 -0.2250
25333W        W44867  12.391   6.521   2.938 -0.3237  0.0503  0.0923
25334W        W44868  14.549   0.094  15.886 -0.2991  0.1153 -0.2150
25335W        W44869   4.309   4.245  14.912 -0.2118 -0.2773 -0.2546
25336W        W44870  12.923   2.287   0.702  0.1610  0.1289  0.2188
25337W        W44871  16.630   3.674  14.282  0.1992 -0.2385 -0.0182
25338W        W44872   7.025   1.168   3.059  0.4499 -0.0761  0.0401
25339W        W44873  14.472   9.160  13.351  0.0952 -0.0856 -0.0876
25340W        W44874  14.588  17.235   0.438 -0.0604  0.0384  0.0784
25341W        W44875   5.656   4.068  13.149  0.5256 -0.3043  0.3329
25342W        W44876  16.261  18.125  14.272  0.1806 -0.4650  0.1084
25343W        W44877  11.874   5.040  15.070 -0.0964  0.0936 -0.0911
25344W        W44878   6.611   3.250  14.271  0.0648  0.2955  0.1589
25345W        W44879   2.607  12.988   3.365  0.2598 -0.0195  0.3246
25346W        W44880   6.172   8.886  12.136  0.0416 -0.1115  0.2996
25347W        W44881  11.163   3.773   2.072  0.2146 -0.2864  0.1850
25348W        W44882   9.560  10.870   3.800 -0.2170 -0.3342  0.0571
25349W        W44883   5.156   4.313   1.820  0.2636  0.4092 -0.0665
25350W        W44884   9.378  14.022  13.253 -0.0524 -0.0557  0.1098
25351W        W44885   5.926   7.687   2.833 -0.0743  0.1755 -0.0735
25352W        W44886   9.780   3.316  13.395  0.3575  0.1203  0.1628
25353W        W44887   4.110  14.801  12.281  0.1659  0.0480 -0.0399
25354W        W44888  14.132   0.388  13.850  0.0952 -0.1673  0.3194
25355W        W44889  16.213  12.807  11.591  0.4883  0.1824  0.2605
25356W        W44890   8.104  10.123  15.532  0.0423 -0.0491 -0.0302
25357W        W44891  12.308  12.692   2.059  0.2102 -0.1841 -0.0286
25358W        W44892   1.981  13.589   4.717 -0.0205 -0.1744 -0.1655
25359W        W44893   6.793   9.094  11.631  0.0499 -0.1262  0.2957
25360W        W44894   3.525   3.043   4.147 -0.1230  0.1864  0.2222
25361W        W44895   5.893  12.508   2.120  0.1375  0.1013  0.0753
25362W        W44896  11.704  12.554  13.390 -0.1287  0.0332 -0.2011
25363W        W44897   2.795   0.216   4.083 -0.1054 -0.0120 -0.4415
25364W        W44898  17.114   8.691  15.326  0.1421  0.1860  0.0573
25365W        W44899  12.557  13.039   3.881  0.2691 -0.0549  0.1012
25366W        W44900  15.570   3.266  14.505  0.0945  0.2927  0.2883
25367W        W44901  16.818  10.023  14.600 -0.1101 -0.0480  0.0108
25368W        W44902   4.759   5.321  13.482 -0.0754 -0.0356  0.0785
25369W        W44903   8.605   0.554  11.769 -0.2694  0.4830  0.3395
25370W        W44904   4.090   5.634   4.735  0.3875  0.0093  0.1345
25371W        W44905   0.648  12.185  15.115  0.3314  0.1318  0.1497
25372W        W44906   3.562  11.830   1.421  0.0198  0.0416  0.1480
25373W        W44907   7.545   7.154   2.040 -0.0812 -0.2625 -0.1349
25374W        W44908   3.099   3.405  14.579  0.1974  0.1608  0.1345
25375W        W44909  10.089  17.379   3.114  0.0607 -0.0191 -0.0678
25376W        W44910   4.708  15.390  15.796  0.3652  0.2820 -0.1025
25377W        W44911   8.596   2.499   0.604 -0.1661  0.1684 -0.0963
25378W        W44912   6.250   8.106   2.750 -0.1234 -0.3369 -0.1233
25379W        W44913   6.347  11.165   1.396 -0.2355  0.0278  0.1639
25380W        W44914  12.458  10.206   2.775  0.0262 -0.3627 -0.1897
25381W        W44915  14.293   6.722  13.424  0.0168  0.0663  0.1275
25382W        W44916   7.169   2.114  15.673 -0.1082  0.0412  0.0497
25383W        W44917   2.304  17.575  11.359 -0.1822 -0.2267 -0.1074
25384W        W44918  13.829   3.072  10.897  0.1243 -0.2210 -0.0363
25385W        W44919   9.711   0.481  11.927 -0.1771  0.1012 -0.1458
25386W        W44920   0.081  16.116  11.094 -0.0711  0.0913 -0.0402
25387W        W44921   0.810  16.623  12.827  0.0368  0.0490 -0.0342
25388W        W44922  12.966   6.676   0.155 -0.1131 -0.1856  0.1314
25389W        W44923   2.781   1.215  12.545 -0.1958  0.0654 -0.0504
25390W        W44924   8.309   8.756   2.133 -0.1478  0.2408 -0.0703
25391W        W44925  17.920  10.868  14.897 -0.0601  0.1274 -0.2796
25392W        W44926   2.968   8.275  12.792  0.0545 -0.2469 -0.0102
25393W        W44927   4.955  13.360  12.124 -0.0075  0.2569  0.0041
25394W        W44928  12.762  11.002   0.033  0.0740  0.2274 -0.0234
25395W        W44929   3.975  13.411   2.084  0.1556 -0.0356  0.0857
25396W        W44930  15.268   2.257  11.731  0.0029  0.3415  0.3104
25397W        W44931  17.756  12.872  13.354 -0.0995  0.1202  0.2156
25398W        W44932  15.497   3.396   3.811 -0.0012 -0.2396  0.0438
25399W        W44933  15.995   9.457   0.592 -0.0918 -0.3143  0.0737
25400W        W44934  17.427   2.053   4.800  0.3093 -0.0627  0.2110
25401W        W44935   9.002   5.922  11.922  0.1481  0.0350  0.0177
25402W        W44936   3.714   8.557   4.289  0.0060 -0.0391  0.3503
25403W        W44937  16.936  11.651  11.919  0.0150 -0.0225 -0.1836
25404W        W44938   4.726  16.619   0.292 -0.3174 -0.3503  0.0909
25405W        W44939  15.005   9.245  13.598 -0.2128 -0.2070 -0.0585
25406W        W44940  12.147   3.882  12.479 -0.2709 -0.1060 -0.0419
25407W        W44941   9.438   7.351  12.357 -0.1556  0.0620  0.0439
25408W        W44942  14.322   9.894  15.561 -0.1048  0.0969  0.6843
25409W        W44943   1.978  14.154  13.780  0.0250  0.0261  0.2438
25410W        W44944  17.239  11.128  13.756  0.0382  0.1677 -0.1977
25411W        W44945  10.834  17.904   0.996  0.0115 -0.0297 -0.3720
25412W        W44946   2.577  17.254  14.807  0.1904  0.1445 -0.2305
25413W        W44947  14.773  17.584   1.283  0.0167 -0.0760 -0.0465
25414W        W44948  14.656   9.279  11.179 -0.3417  0.1067  0.0299
25415W        W44949  13.518  13.182  13.745  0.1166  0.0842 -0.1055
25416W        W44950   3.840   7.121  15.093  0.1754  0.1547 -0.1519
25417W        W44951   8.823  11.602   2.647  0.4084  0.0002  0.0025
25418W        W44952   0.980  13.996   1.300 -0.2359  0.1592  0.1454
25419W        W44953  12.581  10.081   0.385 -0.2695  0.0095 -0.0959
25420W        W44954  17.320  10.640   2.299  0.1971  0.1461 -0.0048
25421W        W44955  11.845  11.689  13.147 -0.1365 -0.0529 -0.0083
25422W        W44956   9.510   1.505  15.379 -0.0053 -0.1376 -0.0065
25423W        W44957  12.655   5.044  12.889  0.0713 -0.1118  0.1885
25424W        W44958   5.996   0.265   0.867 -0.0441  0.0338 -0.0648
25425W        W44959   5.062   1.134  15.764  0.2056  0.0784 -0.1086
25426W        W44960   1.971  17.285  14.164 -0.1046 -0.2577 -0.2074
25427W        W44961  13.558   2.574  12.943 -0.0847  0.2967 -0.4448
25428W        W44962  12.180  13.551  15.959 -0.1079 -0.1047  0.2140
25429W        W44963   1.250  13.157   3.497  0.1471 -0.1609 -0.0370
25430W        W44964  11.841  14.464   1.936  0.0085 -0.3861 -0.0355
25431W        W44965   0.181   0.520   2.461  0.3557 -0.2395  0.1702
25432W        W44966   7.501   1.882   4.730 -0.0148  0.0819  0.0174
25433W        W44967   0.452  16.984   2.233  0.2357  0.1071 -0.0721
25434W        W44968   8.913  12.781   3.691  0.0204  0.3003 -0.0767
25435W        W44969   3.158   3.888   3.836  0.0666 -0.1303 -0.0939
25436W        W44970  13.347   0.682  11.950 -0.2870 -0.0710 -0.1741
25437W        W44971  12.613   0.328   3.857  0.4360  0.0077  0.0146
25438W        W44972   8.823  14.563   2.749  0.1043  0.1942 -0.2125
25439W        W44973   3.691   0.063  11.450  0.0358  0.0446 -0.0229
25440W        W44974   1.540  16.506  15.711  0.2230 -0.0510 -0.0804
25441W        W44975   4.412   8.145   1.336  0.1479 -0.1449  0.2443
25442W        W44976  12.627  14.873  12.224  0.0962 -0.0586  0.1211
25443W        W44977   5.300  14.868   4.254  0.3467  0.0059  0.0373
25444W        W44978   5.156   0.932  13.562 -0.1108  0.0820  0.1705
25445W        W44979  11.771  11.183   3.774  0.3843 -0.0472  0.2853
25446W        W44980   6.698   1.070  13.815 -0.2760 -0.0703 -0.0702
25447W        W44981  15.466   1.705   4.574  0.1372  0.0812 -0.1305
25448W        W44982   2.852  12.351  15.277  0.0914  0.0793  0.1787
25449W        W44983   3.529  12.081   2.015  0.0566 -0.0451 -0.0630
25450W        W44984   6.208   8.672   1.641 -0.2916  0.0238  0.1996
25451W        W44985  16.308  12.948  13.057 -0.2370 -0.1703  0.0582
25452W        W44986  14.078   9.345   0.559  0.3079  0.1003 -0.1132
25453W        W44987  14.686   5.124  14.330 -0.0494  0.1644 -0.0679
25454W        W44988  18.110  11.912   0.704 -0.0453  0.5687 -0.0542
25455W        W44989   3.456   1.081   1.198 -0.0792 -0.4508 -0.0836
25456W        W44990   3.739   3.945   1.631 -0.0008  0.3176 -0.0279
25457W        W44991   8.518   0.001   5.225 -0.0762 -0.1580  0.4223
25458W        W44992   2.550   7.045   0.599  0.2256  0.0387  0.2670
25459W        W44993   1.345  14.907   2.243 -0.1432  0.3103 -0.3254
25460W        W44994   3.956   4.250   3.327 -0.2148  0.1775 -0.3784
25461W        W44995   2.211   4.918   1.724  0.2219 -0.0613  0.3089
25462W        W44996  16.224   1.324  13.062  0.1062  0.1217  0.0359
25463W        W44997   8.832   8.956  13.451  0.1400  0.0537 -0.1496
25464W        W44998   5.823   3.866  11.964  0.0108 -0.0891  0.0728
25465W        W44999   5.104  12.735  15.860  0.3276  0.0556 -0.0029
25466W        W45000   4.193  11.187   3.105  0.1205  0.1030  0.0940
25467W        W45001   2.821   1.827   2.523  0.0762  0.1991 -0.1659
25468W        W45002  12.721  13.657   3.120  0.1642  0.0800 -0.0967
25469W        W45003  10.705   1.931   1.754  0.1728 -0.1090  0.1027
25470W        W45004   7.349  11.554   2.849  0.4465  0.2291  0.1148
25471W        W45005  14.010  15.179  11.414  0.0366 -0.0938 -0.0641
25472W        W45006   0.481  13.861   1.455  0.1345 -0.4499  0.1324
25473W        W45007   8.406  13.061   1.792  0.3212  0.1584  0.0297
25474W        W45008   8.745   2.173   4.381  0.0080  0.1786 -0.1612
25475W        W45009  15.712  17.292   1.356  0.2115 -0.1403  0.2626
25476W        W45010   5.372   6.713   1.794  0.2386  0.0557 -0.0516
25477W        W45011  10.727   0.779  13.878  0.0777 -0.0366  0.2122
25478W        W45012   4.079  10.944   5.352  0.0355  0.1351  0.0439
25479W        W45013  10.800   4.795  11.567 -0.1250  0.2872 -0.0351
25480W        W45014  16.258   4.481  14.553 -0.2094  0.0854 -0.0839
25481W        W45015  11.619   0.693  15.999 -0.0932 -0.2028 -0.2184
25482W        W45016  17.765   4.084   2.187  0.0697 -0.2155 -0.0482
25483W        W45017  14.837   5.841  12.662 -0.1628  0.2561  0.0393
25484W        W45018   0.725   4.644   3.015 -0.1401 -0.0697  0.1350
25485W        W45019  12.771  17.992   3.092  0.0629 -0.0683 -0.2448
25486W        W45020  15.345  17.888   3.996 -0.3662 -0.2565 -0.0549
25487W        W45021  12.473  13.276  14.385 -0.3903 -0.1170 -0.0128
25488W        W45022  15.130   9.461  14.610  0.2461  0.0580 -0.0632
25489W        W45023   5.703   6.831  12.190 -0.1574 -0.0435  0.3124
25490W        W45024   2.397  15.032   3.002  0.1676 -0.0327  0.1090
25491W        W45025  14.617   9.329   1.824  0.1199 -0.0502  0.0251
25492W        W45026   5.311  17.415  11.867  0.0739 -0.1285 -0.0971
25493W        W45027   1.804   3.253   2.031  0.0993 -0.2044 -0.0207
25494W        W45028  10.953   0.542  14.681 -0.1680 -0.0116  0.0362
25495W        W45029   2.875   6.652   3.397  0.1905 -0.2983  0.0604
25496W        W45030  11.388   9.579  15.281 -0.1119 -0.3924 -0.0200
25497W        W45031   3.387   4.974   1.082 -0.2132  0.3159 -0.0633
25498W        W45032   6.906   0.406  12.922  0.4675 -0.4757 -0.0276
25499W        W45033   9.588   3.098  12.544 -0.2508 -0.0894  0.1253
25500W        W45034   4.614  14.075   0.742 -0.1021  0.3010 -0.1176
25501W        W45035   3.350  17.253  14.224 -0.1156  0.0339 -0.0561
25502W        W45036   7.331  11.971  13.968 -0.0650 -0.1978  0.0975
25503W        W45037   9.246  17.903  13.533 -0.0634 -0.2581 -0.5755
25504W        W45038  12.893   9.950  13.131  0.1333  0.2693 -0.0394
25505W        W45039  14.864  14.312   4.543  0.2101  0.0355  0.1403
25506W        W45040   7.355  14.988   0.999 -0.2919  0.1258  0.3325
25507W        W45041  10.441   0.385  15.950  0.0158 -0.0701 -0.4336
25508W        W45042  10.852   8.370   2.560 -0.0597 -0.1779  0.0237
25509W        W45043  12.990   9.742  13.742 -0.0396 -0.0209  0.0060
25510W        W45044  10.326  13.664   4.636  0.0739  0.1068  0.0282
25511W        W45045  18.088   9.744  11.746  0.0221 -0.0503  0.0900
25512W        W45046   6.441  11.187   0.854 -0.1743 -0.1779  0.2851
25513W        W45047   6.899  10.769   0.514  0.0094 -0.1600  0.0234
25514W        W45048   2.866   6.438   4.824 -0.2312 -0.2505  0.1782
25515W        W45049  12.999  14.269  14.943 -0.3612  0.0623  0.0223
25516W        W45050   4.228   4.868   1.452 -0.0774 -0.0436 -0.0330
25517W        W45051  16.254  10.792   1.486 -0.1908 -0.1356 -0.2111
25518W        W45052   9.428  13.879   1.123 -0.0580 -0.3023 -0.2979
25519W        W45053   8.968   1.017   0.351 -0.0833 -0.2800  0.0109
25520W        W45054  17.011  14.711   0.982 -0.2254 -0.0026 -0.1363
25521W        W45055   8.984  10.483   2.902 -0.0740  0.2818 -0.0769
25522W        W45056   3.880   9.160   4.832  0.1651 -0.2753  0.0125
25523W        W45057  12.329   2.811   2.456 -0.0133  0.0468 -0.1375
25524W        W45058   5.503   9.545  13.707  0.2858  0.1788  0.1664
25525W        W45059   8.193  16.474  14.036  0.2153  0.1930 -0.1667
25526W        W45060  16.528  14.816  14.502  0.0665  0.0448 -0.2068
25527W        W45061  13.481   6.680   1.197  0.0924  0.0166  0.1106
25528W        W45062   3.426   0.407  14.117 -0.1686 -0.1267  0.0982
25529W        W45063  16.932   4.214  11.905  0.2276  0.0403 -0.0394
25530W        W45064  11.896  14.422  14.354  0.0929 -0.1791 -0.1057
25531W        W45065  15.020  10.036  11.917 -0.0722  0.1299  0.0750
25532W        W45066  18.012   7.183   4.340 -0.2601  0.2370  0.0773
25533W        W45067  13.568   5.670   0.241 -0.1613  0.0376 -0.2044
25534W        W45068  17.005   9.717  13.223  0.1458  0.1521 -0.0384
25535W        W45069  17.300   1.713   4.402 -0.1451  0.0276  0.1670
25536W        W45070  15.753  18.191   4.068 -0.1067 -0.0387 -0.2706
25537W        W45071   7.462   3.721  14.088  0.2329 -0.0006 -0.0640
25538W        W45072  10.374  13.355  12.665 -0.1568 -0.4264 -0.0637
25539W        W45073   4.386  15.664   2.817  0.1638  0.0197  0.2466
25540W        W45074  14.486  17.060  15.359 -0.0331  0.1373  0.0857
25541W        W45075  18.180  12.510  15.269  0.1301  0.2017 -0.2518
25542W        W45076   6.604   4.374  15.730  0.2848  0.1389 -0.0742
25543W        W45077  10.254   5.931   1.295 -0.2637  0.0420  0.0020
25544W        W45078   6.543  12.241  12.517 -0.2451  0.2142 -0.0019
25545W        W45079  13.866   3.958  15.876  0.1169  0.0351 -0.2048
25546W        W45080   2.416  13.923  13.711  0.0629 -0.2268  0.1587
25547W        W45081  12.090   4.557  14.947  0.1422 -0.4259 -0.4113
25548W        W45082   7.244   6.515   1.582  0.1353  0.2284  0.0916
25549W        W45083   9.968   1.382   2.573  0.0193  0.1390  0.0709
25550W        W45084   4.449  14.496   4.469  0.0153 -0.0584 -0.0576
25551W        W45085   6.528   9.052  13.016 -0.0002  0.2815  0.1121
25552W        W45086   5.108   4.633   2.908  0.1115 -0.2774 -0.2096
25553W        W45087  11.714  12.830   2.308  0.3069  0.0035 -0.1807
25554W        W45088  11.307   1.965  15.224  0.0313 -0.0923 -0.1443
25555W        W45089   0.619   1.740  13.879  0.0343 -0.0017 -0.2004
25556W        W45090   9.369  17.956  12.632  0.0912 -0.1449  0.1541
25557W        W45091   1.066   6.596   1.284  0.2500  0.3331  0.1279
25558W        W45092  14.257   3.292   3.819 -0.2258 -0.2920 -0.1039
25559W        W45093   9.485   0.542   3.756  0.0312  0.2260 -0.1413
25560W        W45094   3.194  17.985  14.557  0.1742 -0.2386 -0.0171
25561W        W45095   6.284   8.616  13.180 -0.4032  0.0270 -0.0510
25562W        W45096   6.578   2.589   0.041  0.1929  0.2435  0.0452
25563W        W45097  10.905  14.433  15.415  0.2806  0.0681  0.3357
25564W        W45098   3.929  10.695  14.691 -0.2358  0.3128 -0.0574
25565W        W45099  12.632  11.718  15.350 -0.1145 -0.0878  0.3403
25566W        W45100  14.054  15.516  13.064  0.0067 -0.0742  0.1121
25567W        W45101   3.122  16.232   0.149  0.2139 -0.2617 -0.1886
25568W        W45102   1.752  15.923   1.703 -0.2805  0.2075 -0.3758
25569W        W45103  13.965  15.239   0.433 -0.1035  0.2530  0.0073
25570W        W45104  16.254   1.812  14.050 -0.0141  0.0755  0.0545
25571W        W45105   8.809   2.484   1.337  0.2310 -0.0887  0.2002
25572W        W45106   9.459  17.533  13.841 -0.0257  0.0560  0.2466
25573W        W45107   7.764   2.102  15.219 -0.1046  0.1398 -0.3506
25574W        W45108  12.543   3.082  13.964 -0.1456 -0.0812  0.1072
25575W        W45109  11.172   7.472   2.867 -0.0893  0.0315  0.1576
25576W        W45110  14.738   8.292   0.146 -0.0182  0.2424 -0.0580
25577W        W45111   3.781  13.804   0.528  0.0719  0.3375  0.0519
25578W        W45112  17.333   1.279  11.713 -0.1596 -0.3896 -0.0181
25579W        W45113   6.980   9.148   3.015  0.3250 -0.2455 -0.0884
25580W        W45114  10.663   9.884  15.822  0.2397 -0.1310  0.0788
25581W        W45115   3.094   3.933  14.478 -0.0846  0.0263 -0.0955
25582W        W45116   7.657   8.125  11.294  0.0011  0.1341  0.0011
25583W        W45117  17.990   8.473  14.568 -0.1572  0.0725  0.0187
25584W        W45118   6.153  12.968   2.456  0.0116  0.0118 -0.1998
25585W        W45119  12.659   5.646   2.083 -0.1771 -0.0159 -0.0299
25586W        W45120   3.252   3.307   0.635  0.0932  0.2320  0.1722
25587W        W45121  13.995  12.801  15.728 -0.0979 -0.0361  0.0217
25588W        W45122   5.963   3.637  15.304  0.0753 -0.0117  0.0492
25589W        W45123   7.360   7.627   0.407 -0.1312 -0.0012 -0.0600
25590W        W45124   6.543   2.730   4.183 -0.1193 -0.1561  0.0856
25591W        W45125   0.015  12.894   3.664 -0.2589  0.0172 -0.0232
25592W        W45126  11.073  15.288  11.983  0.1922 -0.0295  0.0036
25593W        W45127  13.796   3.121   2.080 -0.0583 -0.0491  0.0011
25594W        W45128  16.994  15.550  14.208 -0.0470  0.1077 -0.1410
25595W        W45129   3.237  10.724  10.828  0.1360  0.0642 -0.0256
25596W        W45130   0.654   2.202   1.158  0.1183 -0.2595  0.3589
25597W        W45131   4.878   6.683  14.682  0.1925 -0.1361 -0.1121
25598W        W45132   2.405  16.501   0.756  0.2208 -0.2160  0.0096
25599W        W45133   6.158  11.302   3.541  0.0114  0.2246 -0.2277
25600W        W45134   3.530  11.012  15.747 -0.2020 -0.0721 -0.0065
25601W        W45135   6.092   9.947  14.507 -0.2463 -0.2583 -0.0421
25602W        W45136   9.513  17.263  13.380 -0.0872  0.0559 -0.0901
25603W        W45137   3.021  16.739  13.562  0.1854 -0.0252  0.2673
25604W        W45138   7.943   5.418   3.337  0.0447  0.1023  0.0198
25605W        W45139  11.997   0.412  14.584 -0.1889  0.0335  0.1680
25606W        W45140   1.291  12.937  15.597  0.0484  0.1901 -0.0152
25607W        W45141   4.534   8.068  11.738 -0.1074 -0.0107 -0.1310
25608W        W45142  12.213   2.955   1.771  0.0914  0.0323 -0.1448
25609W        W45143   8.631  15.996   3.284  0.1527  0.0836 -0.1880
25610W        W45144   0.334   0.959   2.817 -0.1132 -0.0167 -0.0694
25611W        W45145   4.083   5.835   2.072 -0.3156  0.1364  0.1170
25612W        W45146   8.145   1.745   4.237  0.0713  0.0050  0.0310
25613W        W45147   1.329   8.623   3.633 -0.1103 -0.0118 -0.0648
25614W        W45148  12.743  10.636   2.740  0.4147  0.0230  0.0154
25615W        W45149  13.660  14.421  13.954  0.1718  0.0565  0.2836
25616W        W45150  14.108   2.727   3.206 -0.2351  0.1918  0.0276
25617W        W45151   2.222   7.836  15.579 -0.1438 -0.4342  0.0645
25618W        W45152   9.886  14.678  12.815  0.0881  0.1923 -0.0770
25619W        W45153  17.197  12.947   3.479  0.1262 -0.2295 -0.1424
25620W        W45154   6.248  12.674  15.671  0.0665 -0.1922 -0.1793
25621W        W45155  14.263  17.685   0.416 -0.4057 -0.3736 -0.0617
25622W        W45156   8.898  13.168   1.501  0.0834  0.0777  0.1656
25623W        W45157  11.219  12.876  12.647  0.1392 -0.3684 -0.0070
25624W        W45158   8.202   6.304  12.042 -0.2783 -0.1788 -0.2745
25625W        W45159  13.253  11.466   2.509  0.2234  0.2215 -0.0939
25626W        W45160  11.969  13.280  15.044  0.1566  0.0053  0.2516
25627W        W45161   5.858   1.132   4.066  0.3567 -0.0510 -0.0114
25628W        W45162  18.052   3.037   1.106  0.0955  0.0698 -0.0058
25629W        W45163  10.909   7.012   1.226 -0.1111 -0.1847 -0.1022
25630W        W45164  12.058  11.200   4.491 -0.2702  0.2076 -0.0193
25631W        W45165   3.397   5.166  14.673 -0.1412 -0.4493 -0.0681
25632W        W45166  12.122  17.643   4.799  0.3034 -0.1073 -0.2519
25633W        W45167  11.319  16.250  12.180 -0.1234 -0.1670  0.2078
25634W        W45168   0.076   6.267  15.786  0.1644 -0.2954 -0.1081
25635W        W45169  15.198   9.709  13.509 -0.0321  0.0624  0.0345
25636W        W45170   1.156   0.317  14.083 -0.0828 -0.0951  0.0014
25637W        W45171   1.184   7.124  15.014 -0.1645  0.2137  0.1217
25638W        W45172  10.707  14.178  13.817  0.1878 -0.0885  0.1119
25639W        W45173   9.199   7.659   1.306  0.1019 -0.1296 -0.2018
25640W        W45174  14.201   1.707  15.215 -0.1904 -0.3822  0.0055
25641W        W45175  17.940  16.794  12.669 -0.0714  0.2015  0.0534
25642W        W45176   0.406  11.738  11.838 -0.2287 -0.1325  0.2260
25643W        W45177   0.517   2.488   3.563 -0.3433 -0.0846  0.0659
25644W        W45178  11.612  15.266  13.475  0.1050  0.3214 -0.3420
25645W        W45179  15.855   0.812  15.577  0.0952  0.0144  0.0302
25646W        W45180   4.888  12.926   1.874 -0.0282  0.2538  0.1244
25647W        W45181   3.776  16.640   0.612  0.0943 -0.0925  0.1106
25648W        W45182   9.677   1.449  11.683  0.2573  0.0783 -0.3238
25649W        W45183   1.044   7.444   1.425  0.2011 -0.1421 -0.0131
25650W        W45184   9.469  10.540   2.189 -0.0626 -0.1435 -0.2511
25651W        W45185  17.586   2.795  11.820 -0.1658  0.2402 -0.1186
25652W        W45186  10.021   7.394   2.238  0.2642  0.0953 -0.2434
25653W        W45187   0.789  15.148   2.785 -0.3114 -0.0450  0.1035
25654W        W45188  10.061   2.195   0.258  0.0001  0.1735  0.0710
25655W        W45189   2.062   5.555   0.023 -0.0782 -0.1435  0.0069
25656W        W45190   9.014  14.893   2.411  0.1088  0.1925 -0.0433
25657W        W45191   7.413   1.531   0.529  0.2841  0.2375  0.0535
25658W        W45192   3.457  17.058  14.807 -0.0139  0.1150  0.1153
25659W        W45193  15.347   1.436   3.292  0.1719 -0.2426  0.0088
25660W        W45194  10.791   9.938  12.291  0.1836  0.0232 -0.0970
25661W        W45195   5.171  17.544   2.331 -0.0504  0.0322  0.0422
25662W        W45196  17.227   8.649  12.555 -0.0654 -0.4231  0.0450
25663W        W45197   2.095   0.376  14.016 -0.0769  0.2059 -0.1928
25664W        W45198  17.125  13.832  13.817  0.1494 -0.0026 -0.1751
25665W        W45199  14.530   7.035  12.329  0.3004  0.2663 -0.2483
25666W        W45200   5.790   0.042  13.931 -0.0313  0.1892  0.0438
25667W        W45201   8.900   3.115  13.773 -0.1484 -0.1521 -0.1024
25668W        W45202  10.918  14.982  15.473  0.1020 -0.2244  0.1282
25669W        W45203  10.638  13.687  10.745 -0.1643  0.1915  0.2194
25670W        W45204   1.165   8.553   4.100 -0.2076  0.1957  0.0954
25671W        W45205   1.186   9.522  12.364  0.0463 -0.1718  0.3436
25672W        W45206  13.922   8.070  15.458 -0.0573 -0.0563  0.0922
25673W        W45207  15.928   0.356   2.075  0.4052 -0.1818 -0.1073
25674W        W45208   1.312   6.855  13.019 -0.0221 -0.0574  0.1260
25675W        W45209  11.544   1.569   2.764  0.3981 -0.1453 -0.0980
25676W        W45210   3.949   3.944  11.838  0.3757 -0.0599 -0.1908
25677W        W45211  10.986   7.914   3.696 -0.0406 -0.0278 -0.1770
25678W        W45212   1.729  18.178  15.876  0.2350 -0.3904  0.0006
25679W        W45213   5.042   2.820  10.341  0.0370 -0.2865  0.3864
25680W        W45214  10.745   1.176   1.381 -0.1953  0.0127  0.2113
25681W        W45215   2.333  11.994  13.070 -0.2675  0.0753 -0.1877
25682W        W45216   4.290   1.886   2.577  0.1100 -0.2397  0.0241
25683W        W45217   6.412  11.763  15.082  0.1513 -0.0291 -0.1737
25684W        W45218   8.121   0.370   2.539 -0.1175  0.0033  0.2241
25685W        W45219   1.258   3.094   3.410 -0.1943  0.2350 -0.0043
25686W        W45220  11.060   6.386   0.451 -0.0905 -0.1517  0.0214
25687W        W45221  17.205   6.827  12.898  0.1119  0.2719  0.0347
25688W        W45222   3.829  12.712  13.650  0.0547  0.0260 -0.4145
25689W        W45223   6.522  16.827   0.556  0.1644  0.0797  0.1530
25690W        W45224   9.127  13.513  15.496  0.2534 -0.1418 -0.1074
25691W        W45225  12.699   5.483   0.110  0.3677  0.2292  0.0842
25692W        W45226  14.599  11.790  12.721  0.0351  0.1333 -0.2505
25693W        W45227   9.963  15.162   3.116 -0.0343  0.0283  0.0452
25694W        W45228   9.607   4.473  11.918  0.0680  0.2829 -0.2392
25695W        W45229   7.090   6.815   2.935  0.0043  0.2357  0.1011
25696W        W45230  16.939  11.815   2.083  0.3187  0.2661  0.0511
25697W        W45231  11.701  17.175  14.714 -0.1996 -0.0190  0.1860
25698W        W45232  11.194   3.502   5.495 -0.0124  0.0354  0.2771
25699W        W45233   5.620  11.034   4.190 -0.0168  0.0574  0.0326
25700W        W45234   7.806   6.405   1.493  0.1735  0.0282  0.1206
25701W        W45235   5.912   3.690   0.441 -0.1364 -0.3910 -0.0732
25702W        W45236   3.758   7.648   4.466 -0.0500 -0.0378 -0.1880
25703W        W45237  13.742  17.371   4.823  0.2172 -0.2511  0.0407
25704W        W45238  14.547  13.516   2.855  0.0844 -0.2204 -0.0005
25705W        W45239  17.857  15.746  12.734  0.0773  0.0387  0.1285
25706W        W45240   5.465  10.841   0.230  0.0626  0.2085  0.0836
25707W        W45241  13.103   9.650  15.801 -0.0031 -0.0018 -0.2231
25708W        W45242   3.301   5.643  15.883  0.0833  0.0048  0.3055
25709W        W45243  10.557   9.905   3.966 -0.2021  0.0078 -0.1442
25710W        W45244  15.498   1.501   1.538  0.3008 -0.0525 -0.2714
25711W        W45245   7.463  18.021   3.146  0.0395 -0.0873 -0.3467
25712W        W45246  12.440   6.828   1.717 -0.1827  0.0763 -0.1058
25713W        W45247  15.851  16.518   1.926  0.1676  0.2829  0.0412
25714W        W45248  17.894  14.989  13.830  0.0911  0.4650  0.0371
25715W        W45249  14.047  15.853  15.533  0.2331 -0.2406  0.1159
25716W        W45250  10.061   7.535   4.472  0.4590 -0.2402 -0.1413
25717W        W45251   9.280  17.568  14.748  0.0063 -0.0364  0.0596
25718W        W45252  15.345  12.574   5.576 -0.1986  0.0431  0.0447
25719W        W45253  14.996   8.887   1.902  0.1684  0.0992 -0.0385
25720W        W45254  15.285  14.662   4.346  0.1325 -0.2277  0.0090
25721W        W45255  10.463   9.136  15.254 -0.2344  0.0268 -0.0942
25722W        W45256   4.509   5.922   3.901 -0.1708 -0.2008 -0.3229
25723W        W45257   4.493  16.877   3.655 -0.1878 -0.1929  0.2390
25724W        W45258   8.103   1.376  12.486 -0.1993 -0.0128  0.1870
25725W        W45259   4.355   3.660  12.007  0.0930  0.0323 -0.2255
25726W        W45260   6.948  16.250  11.860  0.0201  0.0962  0.1359
25727W        W45261   4.998  15.795  14.354 -0.1624 -0.3795  0.2029
25728W        W45262  12.039   2.242   3.170 -0.0784 -0.1151 -0.0245
25729W        W45263   7.679  10.866   0.421  0.0435  0.0084  0.0897
25730W        W45264  17.075   7.869  14.768 -0.0569  0.1502  0.0862
25731W        W45265  14.478   3.189   0.463  0.0871  0.0694 -0.2558
25732W        W45266  14.926   8.485   0.586 -0.0236 -0.0184 -0.1554
25733W        W45267  16.898  11.023  11.806 -0.2565  0.2165 -0.0471
25734W        W45268  17.914  14.325  14.929 -0.2457 -0.0594 -0.3433
25735W        W45269  16.528  16.218  14.852 -0.0426  0.2117  0.3275
25736W        W45270   0.167  17.640  13.961 -0.1832  0.0430  0.2081
25737W        W45271  16.194  11.233  12.934  0.1456 -0.1800  0.1145
25738W        W45272   6.259   0.309  14.796  0.1109 -0.4442  0.3808
25739W        W45273   4.839   2.995   3.791  0.0256 -0.0034 -0.2420
25740W        W45274  17.045  15.840   2.888 -0.2647  0.0035  0.0519
25741W        W45275   9.308  12.105  13.676  0.0554 -0.0649  0.2281
25742W        W45276   1.388   6.691   4.293 -0.0671 -0.1321  0.1088
25743W        W45277   0.892  10.659  12.004  0.1991 -0.1673  0.1317
25744W        W45278  16.789   9.341  10.070 -0.1234 -0.0808  0.3113
25745W        W45279  11.511   5.664   5.099 -0.0666 -0.0138 -0.0735
25746W        W45280   5.277  10.865   0.925  0.0339 -0.0380 -0.0032
25747W        W45281   5.380  10.196   2.601  0.0185  0.0717 -0.0561
25748W        W45282  10.311  12.710  13.922  0.1898  0.1788 -0.1293
25749W        W45283   9.587  17.845   2.451 -0.2375  0.3053 -0.2462
25750W        W45284   0.525   8.143  14.233 -0.1594  0.1574 -0.1737
25751W        W45285   7.045  15.235   4.023 -0.0414 -0.1944 -0.0369
25752W        W45286   2.331  17.296   3.039 -0.0074 -0.1793  0.1547
25753W        W45287  16.840  16.661  12.903 -0.2540 -0.0380 -0.1073
25754W        W45288  13.473   3.182  11.495 -0.2768 -0.2195  0.1758
25755W        W45289   3.774  16.839  15.183  0.0211 -0.1608 -0.0787
25756W        W45290  15.076  14.278   3.667 -0.1499  0.1468 -0.0387
25757W        W45291  16.551  11.250  13.978 -0.1401 -0.1166 -0.0057
25758W        W45292  15.670   8.797  15.113  0.0576  0.0115 -0.1188
25759W        W45293  16.314  13.281  13.481 -0.0258  0.1038 -0.2698
25760W        W45294  10.505   7.383   3.504 -0.0070 -0.2789  0.0831
25761W        W45295   6.306   1.860  14.096  0.1902  0.0013 -0.2152
25762W        W45296   9.984  14.503  11.611  0.0853 -0.0155  0.2970
25763W        W45297  13.842  17.687   3.906 -0.0557  0.1242 -0.0152
25764W        W45298  15.523  16.650  12.249 -0.0792  0.1166  0.1180
25765W        W45299   4.562   4.289  14.464 -0.0084  0.1537 -0.2746
25766W        W45300  10.220  15.326  12.146 -0.0102 -0.0095 -0.1085
25767W        W45301   4.273  14.993  12.876 -0.0987  0.3814 -0.1394
25768W        W45302   2.552   3.421  13.847  0.2425 -0.0752  0.2910
25769W        W45303  10.779  11.288  15.465 -0.4314 -0.2462 -0.2525
25770W        W45304   0.761  12.273   2.662  0.0543  0.2159  0.0132
25771W        W45305  13.569   3.013   0.784 -0.0982  0.0341 -0.1412
25772W        W45306  16.021  11.106  13.790 -0.2081  0.0567  0.0664
25773W        W45307  17.899  12.064   4.571 -0.2853 -0.1992 -0.2103
25774W        W45308  17.604  17.178  12.515 -0.2545  0.0036 -0.0961
25775W        W45309   3.448  12.967  15.791 -0.0696 -0.1323  0.2914
25776W        W45310   4.985   2.806   0.443 -0.3304 -0.1168  0.1321
25777W        W45311   1.713   4.635  13.128 -0.0965  0.2586  0.0345
25778W        W45312   2.319   1.878  12.442  0.0736 -0.0898  0.0577
25779W        W45313   5.549  14.426   5.064  0.6296  0.1591  0.1388
25780W        W45314   2.704  11.034   0.018  0.1175  0.1936 -0.1431
25781W        W45315  16.472   6.220  11.308 -0.1401 -0.1029  0.0214
25782W        W45316  18.186  16.057  11.595  0.1262 -0.1923  0.1208
25783W        W45317   4.372   4.745   5.258 -0.0813  0.1293 -0.0054
25784W        W45318   9.932   1.406  13.620 -0.2030  0.1380 -0.3757
25785W        W45319  12.244  15.085   4.070  0.2808  0.1192  0.2097
25786W        W45320  10.189   8.462  12.490 -0.0478  0.0753  0.1005
25787W        W45321   5.310   8.119   3.941  0.1091  0.1317 -0.0955
25788W        W45322   4.164  13.010  15.282  0.1886  0.0754  0.0172
25789W        W45323   3.084   9.457   2.046  0.0566 -0.1542  0.2150
25790W        W45324   4.988  16.497  11.855  0.0815 -0.2386 -0.0406
25791W        W45325  16.148   2.440   6.048  0.0710 -0.2288  0.1251
25792W        W45326   9.424  15.345  13.238  0.2376 -0.2219 -0.3812
25793W        W45327   1.803  13.495   1.141 -0.1608 -0.1522  0.0068
25794W        W45328   3.500   1.515   1.916  0.1557 -0.1173  0.2096
25795W        W45329  11.160   2.710  11.740  0.3942 -0.0479 -0.0907
25796W        W45330  11.167  12.782   1.742 -0.0568 -0.0594  0.1161
25797W        W45331   9.330  16.746  12.082  0.3586 -0.0567  0.3095
25798W        W45332  11.355   3.184   3.450 -0.2319 -0.0568 -0.2322
25799W        W45333  10.835   5.652   4.062 -0.3236 -0.2554 -0.1661
25800W        W45334  16.692   3.734  13.059  0.3914 -0.2412  0.3270
25801W        W45335   6.755   5.713   0.893 -0.0366  0.1783 -0.1775
25802W        W45336  12.387   4.208   4.431 -0.0692 -0.2814 -0.2429
25803W        W45337  16.453   2.731  11.566 -0.1747 -0.1968  0.0853
25804W        W45338  11.208  12.193   0.237 -0.1017  0.1744 -0.0798
25805W        W45339   4.620  11.388   3.286 -0.1476  0.1473 -0.1114
25806W        W45340   8.956   8.159   0.567 -0.0749 -0.0781 -0.1870
25807W        W45341  10.139   7.539   2.796 -0.1347 -0.0198  0.0249
25808W        W45342  10.074   8.308   3.240 -0.0149  0.0403 -0.0521
25809W        W45343   8.213   1.461   1.812 -0.0039  0.1419 -0.0433
25810W        W45344   6.634  13.917   2.940 -0.1521 -0.0770 -0.1215
25811W        W45345   7.579  12.425  15.525 -0.1238  0.0037  0.1560
25812W        W45346   8.746  12.786  14.955  0.0424  0.1744  0.2920
25813W        W45347  12.766   0.409   0.843  0.0088 -0.1999 -0.3139
25814W        W45348   5.525  12.016  15.397 -0.2834  0.3299  0.1299
25815W        W45349  14.663  14.065   5.045 -0.0498  0.2011  0.0222
25816W        W45350  10.999  17.631   3.290 -0.2327  0.3809  0.1987
25817W        W45351   6.027   6.095  11.411  0.2376 -0.0286 -0.0070
25818W        W45352  10.233   5.563  14.938 -0.0024 -0.2145  0.2536
25819W        W45353  11.340  13.691   2.844 -0.1816  0.0532  0.2114
25820W        W45354   0.605  10.755   2.952  0.1636 -0.1098  0.3454
25821W        W45355   3.984   2.402   0.140 -0.2078  0.1421  0.1467
25822W        W45356   8.644  11.189   1.559 -0.3086  0.0949 -0.1190
25823W        W45357   7.024   8.907  15.797  0.2201  0.0662 -0.1197
25824W        W45358   3.018   0.829  10.208 -0.2832 -0.1950  0.3426
25825W        W45359  10.929  14.860   0.656  0.0893  0.2474  0.0806
25826W        W45360  14.373  16.731  13.389  0.0992  0.2590 -0.2796
25827W        W45361  11.720  11.519   4.718 -0.0141  0.1265 -0.3592
25828W        W45362   2.797   2.751   4.660  0.4106  0.0285  0.1251
25829W        W45363   2.786  16.368  10.758  0.0552 -0.0599 -0.1368
25830W        W45364   8.991  12.118  12.379  0.0316 -0.2724 -0.1803
25831W        W45365  17.681   8.776  12.424  0.2211  0.2257  0.1070
25832W        W45366   4.687  14.067   4.619 -0.0410 -0.0103  0.0718
25833W        W45367  10.333   9.726  14.423  0.0170 -0.0832 -0.1334
25834W        W45368   6.727  14.711   4.452  0.0058 -0.2306  0.0768
25835W        W45369   1.248   8.761  15.649 -0.1238  0.1521 -0.2272
25836W        W45370   1.184   5.544  15.658  0.0898  0.0823  0.2415
25837W        W45371  15.985  17.533   4.629  0.1885  0.0720  0.2030
25838W        W45372   0.716   7.261  15.201  0.0328 -0.1919  0.0351
25839W        W45373  11.336  13.894   0.778  0.0688  0.2314 -0.0518
25840W        W45374   4.245   0.678  13.535 -0.0496 -0.2101 -0.0383
25841W        W45375   0.155   5.690   0.675  0.0488 -0.1466  0.3119
25842W        W45376   2.533  10.460   0.419  0.2248  0.0681 -0.2278
25843W        W45377  17.981   1.893  12.427 -0.0123  0.2700  0.0249
25844W        W45378   7.687   6.348  14.140 -0.2232  0.1124 -0.2395
25845W        W45379  16.833   5.538   0.938  0.2252  0.0878  0.0444
25846W        W45380   7.671   3.015   2.982 -0.2218  0.0723 -0.1552
25847W        W45381   0.546   7.623   2.350  0.1449 -0.2753 -0.2698
25848W        W45382   1.308  16.038   0.907  0.1829 -0.1285 -0.0169
25849W        W45383  10.615  15.746   3.596  0.2929  0.2490  0.1923
25850W        W45384  13.553   2.629  15.021  0.0472  0.1283 -0.1298
25851W        W45385  16.988   1.177   1.518 -0.0605  0.3324 -0.0533
25852W        W45386   9.197   3.047   2.918  0.2217  0.1217 -0.1884
25853W        W45387  15.070  10.561  13.610  0.0282  0.0339 -0.1429
25854W        W45388  15.439   1.000   3.828  0.3769  0.1906 -0.1502
25855W        W45389  15.024  15.846  15.132  0.0128 -0.0827  0.0882
25856W        W45390  13.198  10.809  12.176  0.0034  0.2282 -0.0669
25857W        W45391   7.172  16.729  12.682  0.3574  0.0873 -0.2084
25858W        W45392   3.244  13.401  15.982  0.1026  0.0430  0.3517
25859W        W45393  10.926   6.867  11.368 -0.0489 -0.3167  0.1830
25860W        W45394   7.062  12.344   0.731  0.2709 -0.2066  0.1465
25861W        W45395  13.796  11.431   2.599 -0.2479 -0.2106 -0.1628
25862W        W45396  16.754   7.008   0.455  0.0098  0.0547 -0.1258
25863W        W45397   1.559  16.700   1.319 -0.1469 -0.0312  0.0483
25864W        W45398   9.303  15.337   4.335  0.0600  0.1454  0.0502
25865W        W45399   9.294   0.577   0.836 -0.0233  0.1293  0.1003
25866W        W45400   9.942  15.424  14.548 -0.2141 -0.1134 -0.0544
25867W        W45401  11.092  13.455  14.379 -0.2588  0.1183  0.0829
25868W        W45402  16.166   7.875  14.951  0.1155  0.2426 -0.0806
25869W        W45403  11.758   2.687   1.317 -0.0625 -0.1128  0.2936
25870W        W45404   5.162   6.841  15.405 -0.0856  0.0679 -0.1099
25871W        W45405   3.313  18.092  11.016 -0.0675 -0.0759 -0.2119
25872W        W45406   9.455  10.006  11.310 -0.0362 -0.0943 -0.2514
25873W        W45407  12.341  11.363  11.908  0.1391  0.0870 -0.1856
25874W        W45408  10.674   4.554   5.320  0.1577 -0.2622 -0.0215
25875W        W45409   6.031  14.724  15.910 -0.2825  0.1483  0.0311
25876W        W45410  11.875   2.943  14.382 -0.0268  0.2406 -0.1467
25877W        W45411  11.201   3.461   2.506 -0.0549 -0.0423 -0.0224
25878W        W45412   2.436   1.013   4.632  0.1475  0.1795 -0.1623
25879W        W45413  17.908   2.568  15.841  0.1157  0.2032  0.1119
25880W        W45414   6.345  13.417   2.659  0.3172  0.1159  0.1151
25881W        W45415  15.959   1.648   0.176 -0.3435 -0.2010 -0.0733
25882W        W45416  13.957   4.502  15.945  0.0054 -0.0519  0.3302
25883W        W45417   9.318   8.959   2.333 -0.2217 -0.1326 -0.0517
25884W        W45418   0.007  16.433  14.783 -0.3820 -0.3604 -0.0446
25885W        W45419   1.943   0.588   3.973 -0.0852 -0.0626  0.0584
25886W        W45420   9.951   9.770   2.450 -0.0228  0.0169 -0.0811
25887W        W45421  17.092  14.866  14.416  0.1065 -0.2536  0.3389
25888W        W45422   6.780  13.415  12.224  0.0936  0.4640 -0.1235
25889W        W45423  12.402  11.335   2.209  0.0948  0.0309  0.0432
25890W        W45424   3.134  13.931   3.471 -0.1713 -0.1410 -0.0552
25891W        W45425  11.597   8.837  12.754 -0.0986 -0.0786 -0.0589
25892W        W45426   4.438  12.571   3.084  0.1116  0.1642 -0.5072
25893W        W45427  14.461   2.056  15.455 -0.0798  0.1555 -0.0539
25894W        W45428  12.728  14.566  11.234  0.0013 -0.0062 -0.0074
25895W        W45429  11.742  14.763   0.441 -0.0800 -0.0754  0.3548
25896W        W45430  12.081   8.592   1.343  0.3647 -0.2310  0.1325
25897W        W45431  13.711   1.520  15.300  0.1989  0.2240 -0.0195
25898W        W45432  14.987   6.913   0.561  0.2611  0.2124  0.0228
25899W        W45433   7.824   8.849  12.575 -0.2737 -0.0769  0.3811
25900W        W45434  12.433  17.053   1.306  0.0170  0.0978  0.2449
25901W        W45435  10.440   2.033  12.542 -0.1913 -0.1570 -0.1965
25902W        W45436   9.296  13.364  14.503 -0.1363  0.0504 -0.1213
25903W        W45437   4.219   2.913  12.988  0.0966  0.0553 -0.3068
25904W        W45438  17.917  10.483   4.374 -0.1730 -0.0721  0.2116
25905W        W45439   4.505  16.816  13.424  0.2769 -0.0339 -0.2692
25906W        W45440   2.134   5.795   2.845  0.2786 -0.1408 -0.0830
25907W        W45441  13.062  14.624  15.714  0.1666 -0.1015  0.0808
25908W        W45442  11.583   9.409   2.178 -0.1820  0.1563 -0.1584
25909W        W45443  10.998   3.500   1.467 -0.1213 -0.1915  0.1657
25910W        W45444   3.489   6.544   0.612  0.0960  0.1497 -0.2441
25911W        W45445   8.289   1.980   3.822 -0.1804  0.2069 -0.1045
25912W        W45446   2.778  16.752   3.741  0.1628  0.2103  0.3294
25913W        W45447  18.106  12.570  11.747  0.3866  0.1383 -0.0183
25914W        W45448  12.903   2.898  13.427  0.3953 -0.1189 -0.0791
25915W        W45449   5.424   4.523  11.871 -0.1390 -0.0127  0.0590
25916W        W45450  11.302   3.786   0.773  0.1996  0.2323 -0.3654
25917W        W45451   2.629   7.962  11.713  0.0715  0.1882 -0.3455
25918W        W45452  12.235   7.218   4.871 -0.0897 -0.0078 -0.2080
25919W        W45453   0.036   4.990   2.888  0.0125  0.1317  0.1969
25920W        W45454  13.620   4.517  11.925 -0.0550  0.0843  0.0027
25921W        W45455  17.997   5.271   3.876 -0.2249  0.1168 -0.1956
25922W        W45456   9.106   9.733   2.586 -0.0852  0.1654  0.2450
25923W        W45457   0.494   8.112   2.380  0.0059  0.2599  0.0073
25924W        W45458   6.355   9.840  13.925  0.4091 -0.2927  0.3339
25925W        W45459   1.685  14.434   3.778  0.2036 -0.0838  0.2858
25926W        W45460   9.740   1.656   1.972 -0.0439 -0.2142  0.1884
25927W        W45461  15.416   5.234  13.182  0.1282  0.1043  0.0514
25928W        W45462   9.378  14.269  12.172  0.0675 -0.0952 -0.4204
25929W        W45463   8.984   0.664  15.014  0.2608  0.1545  0.2039
25930W        W45464   1.863   3.395  15.200 -0.0436 -0.1969  0.0769
25931W        W45465   9.136   5.331   1.737 -0.1976  0.0564 -0.1145
25932W        W45466   8.696  14.909  13.116  0.2302  0.1445 -0.0890
25933W        W45467   2.590   5.867   1.408 -0.1419 -0.2566 -0.0284
25934W        W45468   7.393   0.590  12.819  0.1972 -0.2409  0.1505
25935W        W45469  16.081  17.524  15.135  0.4319 -0.1180  0.1030
25936W        W45470   7.736  16.656  14.035  0.0652 -0.1004  0.0093
25937W        W45471   3.361   6.108   1.036  0.2548 -0.3492  0.2501
25938W        W45472   6.259  16.843   2.114  0.1968 -0.1736 -0.0806
25939W        W45473   7.813  17.747  14.690  0.0014  0.2954  0.2067
25940W        W45474  16.307   6.225   4.814  0.1152  0.4281 -0.0915
25941W        W45475  10.454   6.135  13.492  0.0337 -0.0280 -0.3478
25942W        W45476   7.394   4.662  14.074  0.0392  0.1467  0.1866
25943W        W45477   3.214  13.172   2.769 -0.4747  0.0945 -0.1907
25944W        W45478  14.991   3.775  15.320  0.0413  0.0135  0.0746
25945W        W45479  17.950  13.672  13.827 -0.4046 -0.2065 -0.0790
25946W        W45480  16.679  15.515  12.149  0.0882  0.1041 -0.0062
25947W        W45481   5.982   5.899   1.428 -0.1145 -0.2244 -0.1855
25948W        W45482   2.471  10.671   2.793  0.1789 -0.0674 -0.3065
25949W        W45483   8.939   9.357   2.294  0.0059 -0.0263 -0.2489
25950W        W45484  11.246   2.393   2.922  0.1654  0.1928 -0.3142
25951W        W45485  12.925  13.286  14.617  0.0655 -0.1548 -0.1037
25952W        W45486  12.021  11.036   2.520 -0.1518 -0.2742 -0.0559
25953W        W45487   4.994   8.465  14.859 -0.1356 -0.1452 -0.1284
25954W        W45488   1.027  16.879   3.878  0.1701  0.2642  0.0036
25955W        W45489  16.410   9.715   3.401  0.2729  0.3354  0.0810
25956W        W45490   1.108  11.989  15.267  0.1243  0.3481  0.2052
25957W        W45491   8.675   6.442   4.083 -0.2867  0.1757  0.3044
25958W        W45492  16.961   2.834   1.998 -0.0678  0.0597  0.2230
25959W        W45493  13.313   3.119  14.197 -0.1576  0.0172  0.1062
25960W        W45494  11.458  14.938   2.850  0.1262 -0.0281  0.1565
25961W        W45495   1.827   1.330   2.511 -0.0443 -0.3734  0.3293
25962W        W45496   9.067   9.582   3.369 -0.0999 -0.1864 -0.2316
25963W        W45497  16.946  13.678   4.291  0.0226  0.1487  0.2935
25964W        W45498   6.639  13.821   0.852 -0.3056 -0.1099  0.1964
25965W        W45499  17.239   9.210  14.603 -0.0270  0.1321 -0.2408
25966W        W45500  11.469   3.239   0.116  0.2828 -0.0026  0.0651
25967W        W45501  12.391   5.077  13.665  0.3857 -0.4427 -0.2847
25968W        W45502  17.844  14.322  12.280 -0.2783  0.2068  0.0366
25969W        W45503  11.819   8.488  14.464 -0.0426 -0.0346 -0.3469
25970W        W45504  12.375   4.635   2.234  0.0780 -0.0317 -0.0510
25971W        W45505   2.712  10.145  14.797  0.1923 -0.0996  0.2212
25972W        W45506  10.627  14.478  12.087 -0.2007 -0.1139  0.1127
25973W        W45507   8.566  15.538   2.497 -0.0438  0.3432 -0.3377
25974W        W45508   8.081   3.960   0.648 -0.0562  0.0032  0.1994
25975W        W45509   3.250  17.770  11.997 -0.0216 -0.0154  0.0407
25976W        W45510   6.621   3.725   1.809  0.1514 -0.0730 -0.3864
25977W        W45511   6.954   9.631   4.667 -0.1473 -0.1559 -0.0170
25978W        W45512  13.608   1.112   3.644  0.1135 -0.2982  0.3075
25979W        W45513   6.982   4.002   3.456  0.0517 -0.0973 -0.1058
25980W        W45514  10.456   0.575  14.880 -0.0798 -0.1973  0.1455
25981W        W45515   6.470  14.823  12.382  0.1079  0.3395  0.4657
25982W        W45516   3.331   6.945  13.867 -0.2196  0.0475 -0.1603
25983W        W45517   2.961   7.275  13.962  0.4847 -0.1924 -0.1504
25984W        W45518  13.917   8.697   3.197  0.0912 -0.0892 -0.1473
25985W        W45519  17.463  12.867  12.395 -0.2960  0.3826 -0.0008
25986W        W45520   4.941   0.235   2.152 -0.0522 -0.0523  0.0920
25987W        W45521  16.847  16.075   2.496 -0.4960 -0.2412 -0.0579
25988W        W45522  15.283  13.188  12.433  0.1070 -0.2782  0.0427
25989W        W45523  17.819   6.365  11.659  0.2998  0.1234 -0.3016
25990W        W45524   7.573   4.532  16.045  0.1187 -0.0655 -0.0169
25991W        W45525  16.477   0.731  13.893 -0.0413  0.3269  0.0181
25992W        W45526  12.436   6.385  14.696 -0.0055 -0.0964  0.2046
25993W        W45527  15.410   0.056   1.275 -0.2273 -0.3813  0.1789
25994W        W45528  13.161  14.909  11.439 -0.0113 -0.0094 -0.1017
25995W        W45529   9.209   7.285   4.577 -0.0014  0.0138  0.1462
25996W        W45530  16.143  13.752   0.502 -0.0771  0.2397 -0.2509
25997W        W45531   5.673  14.178   1.061 -0.0375 -0.2988  0.3111
25998W        W45532   0.999   0.900   3.214  0.0553 -0.2956 -0.0334
25999W        W45533  17.573  12.401  12.124 -0.0044  0.4760  0.0502
26000W        W45534   0.642  11.312   0.595  0.2476 -0.2158 -0.1522
26001W        W45535  14.995  13.940  11.988  0.0698  0.0036 -0.1698
26002W        W45536   3.555  10.666   0.006 -0.0800 -0.0198  0.1879
26003W        W45537  17.380   3.620   1.429  0.1964 -0.3740  0.0603
26004W        W45538  13.736   0.219   4.952 -0.3121  0.2428 -0.0365
26005W        W45539   7.093   9.244   3.984  0.0335 -0.0885 -0.2962
26006W        W45540  10.313   4.680  14.855  0.1323 -0.2649 -0.0126
26007W        W45541   7.136  12.277  15.244  0.2173 -0.0619 -0.0670
26008W        W45542   8.817  15.966  12.365 -0.1793 -0.1585  0.0688
26009W        W45543  11.513  12.419  10.686 -0.1579 -0.0522  0.1666
26010W        W45544   1.840  18.012  13.875 -0.2045  0.1089 -0.4099
26011W        W45545  17.259   6.640   4.025  0.3382  0.0427 -0.2450
26012W        W45546   2.141  17.627   1.339 -0.1201 -0.2910 -0.2223
26013W        W45547  13.314  17.993   4.761 -0.1449 -0.0697  0.2028
26014W        W45548   6.688  12.394  14.551 -0.2770  0.1614  0.0383
26015W        W45549  14.174   4.829  15.636 -0.0435  0.0359  0.1958
26016W        W45550  10.579   2.434  12.785 -0.1412 -0.1620 -0.1496
26017W        W45551   8.021  10.161   1.395  0.0437 -0.0718  0.0122
26018W        W45552   5.817   6.648  14.583  0.1375 -0.1279 -0.0144
26019W        W45553  15.092   2.996   2.669  0.0269 -0.1182 -0.3218
26020W        W45554  17.306   0.255   1.505 -0.0661  0.3235  0.1290
26021W        W45555   3.905  13.877  14.830  0.1073  0.0367 -0.0026
26022W        W45556   1.657   9.300   1.621 -0.1349 -0.1851  0.3193
26023W        W45557   5.663  12.855   4.391 -0.2065  0.1919  0.0688
26024W        W45558   9.526  14.698  12.429  0.0554  0.3049 -0.0885
26025W        W45559   3.186   4.361  15.523 -0.1250  0.1454 -0.1481
26026W        W45560   4.806   5.857   2.812  0.3579  0.2627 -0.2703
26027W        W45561   9.026   8.558  15.106 -0.1679  0.1740 -0.0120
26028W        W45562  13.733  10.193  15.273 -0.0066 -0.1771 -0.0553
26029W        W45563   6.026   6.299   1.139 -0.1006  0.3096  0.3231
26030W        W45564  17.676  10.633  15.277 -0.0002  0.1664 -0.1061
26031W        W45565   1.518   7.421  15.238  0.2592 -0.0359  0.2289
26032W        W45566  12.368   5.739   5.096 -0.0404 -0.1973 -0.0040
26033W        W45567   3.170  16.969   1.790 -0.0198  0.2123  0.0918
26034W        W45568  15.972   1.711   5.606  0.1533  0.2171 -0.2626
26035W        W45569   3.474   4.401  11.674  0.0902  0.0239 -0.4085
26036W        W45570  13.787   9.823   4.577  0.1667  0.0894  0.3218
26037W        W45571   8.733  11.367   3.168 -0.2332 -0.0473  0.1100
26038W        W45572   5.757  12.657   3.620  0.1176 -0.5745 -0.0824
26039W        W45573   2.968  13.532  12.487 -0.0306  0.1311  0.0846
26040W        W45574   1.840   6.804   1.414 -0.0327  0.2510 -0.1250
26041W        W45575   1.230  10.717  11.687 -0.0876 -0.1234  0.0591
26042W        W45576   9.203  14.829  14.053 -0.4839 -0.0855  0.3191
26043W        W45577   0.136   7.294   1.115 -0.1747 -0.0713  0.0382
26044W        W45578  11.249   9.000  15.389  0.0200  0.1397 -0.3346
26045W        W45579   2.998   3.860   4.341 -0.1132 -0.0670 -0.5389
26046W        W45580  12.954   4.142  12.232 -0.0584 -0.1100 -0.0424
26047W        W45581   8.763  14.126   3.039 -0.2569  0.0127  0.0004
26048W        W45582   5.617  12.414  11.582  0.0311 -0.0318 -0.1396
26049W        W45583  12.997   1.716  15.716  0.2174 -0.1242 -0.0915
26050W        W45584  12.066  17.785  11.927  0.0922  0.2404  0.0780
26051W        W45585  16.219  11.558  13.693 -0.1997  0.0748  0.0269
26052W        W45586   5.288   6.245  14.125  0.2515 -0.1454 -0.1979
26053W        W45587  12.312  17.621   3.537 -0.4720  0.0610 -0.1704
26054W        W45588   7.059   3.865  13.300 -0.0726 -0.2660  0.0853
26055W        W45589   0.574  12.425  12.490 -0.0545  0.2995  0.0090
26056W        W45590   7.489  15.019   3.013  0.4327 -0.5222 -0.3430
26057W        W45591  12.718  17.102   4.421 -0.0096  0.0561  0.1168
26058W        W45592   8.098   4.565  11.877  0.2222  0.1002 -0.4055
26059W        W45593   9.375   5.620   4.423  0.1362  0.2069  0.0238
26060W        W45594   5.185   1.894   1.095 -0.0981 -0.2600  0.0881
26061W        W45595  17.573   5.548   1.943 -0.1532  0.3484  0.2300
26062W        W45596   5.117   5.657   3.182  0.3359  0.1806  0.2653
26063W        W45597   9.666  17.900  12.106 -0.0080  0.0760 -0.2391
26064W        W45598  10.949   7.516   3.349 -0.0184  0.0095  0.0645
26065W        W45599   0.045  15.628  14.750 -0.0986 -0.0639 -0.1965
26066W        W45600  16.723  10.436  12.801 -0.0285  0.0336  0.2313
26067W        W45601   3.936   8.924   1.875 -0.1481 -0.0228  0.0574
26068W        W45602   4.545   9.907  13.852  0.0978  0.3885  0.1103
26069W        W45603   9.058   7.929  11.799 -0.0345 -0.2212  0.0756
26070W        W45604   3.207  17.182  12.820 -0.0208 -0.0378  0.1456
26071W        W45605   2.388  14.627  13.746 -0.0258 -0.0393  0.1141
26072W        W45606   0.614  10.601  15.236  0.4332 -0.2208  0.1430
26073W        W45607   7.673  17.575  15.822  0.0667  0.0216  0.0903
26074W        W45608   3.933   9.683   3.192 -0.1627 -0.2434  0.3105
26075W        W45609   1.552   7.304   2.349  0.2070 -0.4775  0.0793
26076W        W45610   0.711   0.448   0.658 -0.0818  0.1735 -0.0341
26077W        W45611   2.031   4.850  16.028 -0.0346 -0.0086 -0.2350
26078W        W45612  16.628   8.730   2.144 -0.1793 -0.1060 -0.0919
26079W        W45613   7.424  12.388   0.383  0.2467  0.1119 -0.3637
26080W        W45614   3.490   2.282   2.032  0.0191  0.0123  0.0253
26081W        W45615  10.304   8.804   0.179 -0.0152 -0.1435 -0.1355
26082W        W45616  16.875  11.944  15.366  0.1367 -0.0310  0.1243
26083W        W45617  15.349  11.717   2.114 -0.0218  0.0053  0.1553
26084W        W45618   6.299   1.122   3.758  0.1620 -0.0381 -0.5415
26085W        W45619   1.958   0.633  12.493  0.0028 -0.4756 -0.2991
26086W        W45620  17.230  16.190   4.856 -0.1581  0.1862  0.0371
26087W        W45621   7.765   2.128  12.485  0.0934 -0.1199 -0.2383
26088W        W45622  14.707   9.452  14.996 -0.0303 -0.0542 -0.2268
26089W        W45623  10.761   6.543   5.558  0.1274  0.2735 -0.1622
26090W        W45624   5.984   8.991   2.968 -0.0956 -0.1633  0.1147
26091W        W45625   6.191   2.381  10.598  0.1586 -0.0468 -0.0783
26092W        W45626   1.329  17.594   3.836  0.1805  0.2439  0.1790
26093W        W45627  15.500   8.003  11.143  0.1968 -0.0765 -0.1076
26094W        W45628   9.322  10.577   0.715 -0.1820  0.1836  0.2091
26095W        W45629   3.857   3.034  12.570 -0.0252 -0.3809  0.1404
26096W        W45630  14.601   2.435   1.123 -0.0124  0.0508  0.0746
26097W        W45631  13.381  12.904  12.605  0.2453  0.0811 -0.1420
26098W        W45632   4.516   0.355   3.598  0.2206  0.1267 -0.2429
26099W        W45633   6.233   7.254  15.561 -0.2578 -0.0504  0.0867
26100W        W45634  17.809  14.621   0.739 -0.0634  0.4203  0.0040
26101W        W45635   9.344   9.897  15.101  0.1520  0.2363  0.0461
26102W        W45636  10.011   2.910   3.297 -0.1984  0.2373 -0.1601
26103W        W45637  11.916  16.740  14.715 -0.3285  0.0961  0.0265
26104W        W45638   2.203   7.104   1.011 -0.0155  0.0317 -0.1960
26105W        W45639   3.146   6.033  12.114 -0.1981 -0.0725  0.0241
26106W        W45640   0.735  10.517   1.763  0.1449  0.0853  0.2191
26107W        W45641   0.511   5.882   0.387 -0.3763 -0.4239  0.2337
26108W        W45642  12.728  15.135   5.564  0.0722  0.1007  0.2718
26109W        W45643   9.117   6.942  15.409 -0.2947  0.1455  0.3336
26110W        W45644   7.676  17.253  10.707  0.2906 -0.0771  0.1562
26111W        W45645  14.004   2.322  10.477 -0.0481  0.0491  0.0718
26112W        W45646   7.028   8.909   3.489 -0.0393 -0.1339 -0.1092
26113W        W45647   9.994   2.141   1.159 -0.4195  0.2296 -0.0861
26114W        W45648  12.377   1.110   0.792  0.1840  0.0236  0.0206
26115W        W45649   2.837  10.535  13.256 -0.0170  0.1771 -0.0307
26116W        W45650   3.629  14.794  11.595  0.0842 -0.0869  0.0405
26117W        W45651  14.783   0.578   0.893  0.2480  0.2196 -0.0620
26118W        W45652  11.613  12.479   3.126  0.0402  0.0343 -0.0331
26119W        W45653  13.499   6.985   0.760 -0.0782 -0.1484  0.0815
26120W        W45654   7.025   0.172   0.691  0.0400 -0.1444 -0.1627
26121W        W45655   3.559  14.908   4.793  0.1809  0.2132 -0.0015
26122W        W45656  11.745   1.633   0.668 -0.1580 -0.2539 -0.2812
26123W        W45657   8.240  11.538   3.431 -0.2507 -0.2209 -0.0100
26124W        W45658   6.639   4.189   4.350 -0.2672  0.0798 -0.0743
26125W        W45659  17.045   5.085  12.099 -0.1661 -0.1107  0.0463
26126W        W45660   1.661  17.545   2.943 -0.5431  0.1245 -0.2544
26127W        W45661  10.398   9.413  15.678  0.1059  0.1590 -0.0325
26128W        W45662  14.293   6.786   1.834  0.0214 -0.2365  0.0770
26129W        W45663  15.525  13.123  11.861 -0.0754  0.0366  0.1205
26130W        W45664  10.715   4.997   1.163  0.0748 -0.0751 -0.0747
26131W        W45665   4.448  11.091  15.289  0.1185 -0.1738 -0.2038
26132W        W45666   1.162   8.171   4.408  0.1733  0.1830 -0.1597
26133W        W45667  10.636  18.086   1.600  0.0563  0.0565 -0.2162
26134W        W45668   6.244  12.655   3.798  0.0301  0.0461 -0.3491
26135W        W45669   8.724   0.715   3.087 -0.1392  0.0202 -0.0511
26136W        W45670  12.859   2.509  15.794  0.0675 -0.1743 -0.0768
26137W        W45671  13.965   3.283  11.396 -0.0024 -0.0232 -0.1048
26138W        W45672  12.375   8.657   3.738  0.0798 -0.0094 -0.2496
26139W        W45673  13.744   1.612   2.061  0.0676 -0.2754 -0.0034
26140W        W45674   0.376   7.265   3.941  0.2100  0.2195 -0.1806
26141W        W45675   8.791  12.332   3.506  0.0700  0.0113 -0.1491
26142W        W45676   0.630   5.738   4.378  0.0047  0.0324 -0.0902
26143W        W45677   0.348   5.017  13.304 -0.0630 -0.2356 -0.3089
26144W        W45678  11.299   6.389  12.751  0.0310  0.0204 -0.1932
26145W        W45679   4.829   0.034  13.640 -0.1619 -0.1688  0.2412
26146W        W45680  15.980  16.632   4.739  0.2994  0.3809 -0.3820
26147W        W45681   7.872   5.732  15.945 -0.1600 -0.2383  0.2034
26148W        W45682   8.968  11.134   1.992  0.2186 -0.0362  0.1353
26149W        W45683  11.629   2.633  12.637  0.2213 -0.0111 -0.1362
26150W        W45684  14.709   0.119   2.524  0.2114  0.0027 -0.1754
26151W        W45685  12.619   1.450   3.539 -0.4328  0.2017  0.0678
26152W        W45686   6.773  17.073  10.435 -0.2450  0.2523 -0.1560
26153W        W45687   7.502   2.377   1.103  0.2088 -0.2955  0.3716
26154W        W45688  13.920  12.927  13.894  0.2665  0.1014  0.0295
26155W        W45689  15.836   6.986   4.306 -0.0839 -0.2999  0.2266
26156W        W45690   6.968   8.990  15.239  0.0425 -0.0512  0.1856
26157W        W45691  14.509   7.848   3.609 -0.0576 -0.1043  0.1619
26158W        W45692   9.655  15.441   3.983  0.0402  0.3310 -0.1025
26159W        W45693  10.423  14.285   3.575  0.1317 -0.2948  0.1199
26160W        W45694   2.417  12.953   5.325 -0.0344  0.0021 -0.0171
26161W        W45695  13.199  16.622   4.583  0.0237  0.1573 -0.4325
26162W        W45696  11.655   4.072   0.920  0.0510 -0.1269 -0.2066
26163W        W45697  14.604  10.419  14.475 -0.2674  0.1534 -0.0724
26164W        W45698   9.610   8.950  14.277  0.2167 -0.1973  0.0411
26165W        W45699   7.704   5.612  12.052 -0.2101 -0.1042 -0.0257
26166W        W45700   1.253   2.162  14.856 -0.1378 -0.1121 -0.1651
26167W        W45701  14.119   0.317  11.877 -0.1358 -0.1539  0.2224
26168W        W45702   5.015   3.122  15.198 -0.0484 -0.0800 -0.2159
26169W        W45703  14.735  15.470  13.438  0.2528 -0.1000 -0.0917
26170W        W45704  17.991  16.073   3.133 -0.1078 -0.0623  0.0279
26171W        W45705  12.496   7.427  16.042 -0.0708  0.0861 -0.2079
26172W        W45706   8.605  13.614  12.226  0.2027  0.0375  0.2315
26173W        W45707  14.791  11.339   2.766  0.1053 -0.0343 -0.3973
26174W        W45708   0.088  14.959   3.922  0.0836 -0.0003  0.0078
26175W        W45709  16.327  12.893  14.346 -0.0133 -0.2148  0.0421
26176W        W45710  15.632  17.971   4.665  0.2210  0.3006  0.0408
26177W        W45711  15.921  17.415   2.118  0.0108  0.0024 -0.1133
26178W        W45712   5.281  14.643   1.066  0.1228  0.4585 -0.0712
26179W        W45713   9.123   0.877  13.352  0.0521  0.0260 -0.1855
26180W        W45714  11.437  16.078  13.385  0.0229 -0.1458 -0.0314
26181W        W45715  16.716   9.398  15.742  0.0775  0.2667 -0.0977
26182W        W45716  17.738   6.947  12.814 -0.0031  0.3038  0.0690
26183W        W45717   3.798  16.404   3.248  0.4853  0.0747 -0.2188
26184W        W45718   7.853   5.397  12.472  0.0863  0.1546 -0.1487
26185W        W45719  13.778   1.388   2.612  0.0871  0.0025 -0.1888
26186W        W45720   4.589  10.040   4.486  0.0260 -0.1733  0.0213
26187W        W45721  15.066  15.506   4.835  0.1997  0.3371 -0.1500
26188W        W45722   3.826   9.496  15.493 -0.4508 -0.1399 -0.1046
26189W        W45723   4.660   6.662   4.469 -0.0753 -0.0198  0.0219
26190W        W45724   2.263   9.460   2.626  0.1715  0.5273  0.2649
26191W        W45725  16.339  16.378  12.197 -0.1794  0.1878 -0.0132
26192W        W45726  16.814   2.993  13.784 -0.2698 -0.3145  0.2391
26193W        W45727  17.817   2.460  14.683 -0.1300 -0.0692 -0.1014
26194W        W45728  17.715   0.151  13.830 -0.0310 -0.2579 -0.0846
26195W        W45729  17.871  12.701   3.991  0.1170  0.1042 -0.1719
26196W        W45730   9.181  16.770   1.872 -0.1922  0.2206  0.0808
26197W        W45731   3.418   2.055  14.176  0.0644  0.2042  0.2217
26198W        W45732   4.400   9.815  12.377  0.1549 -0.2568 -0.0604
26199W        W45733  11.697   1.253   3.160  0.0571 -0.4323  0.0586
26200W        W45734  13.181   4.911   3.284 -0.1897 -0.0088 -0.0887
26201W        W45735   9.438   5.039   2.123 -0.1444  0.3873 -0.0734
26202W        W45736  17.490  12.761  15.267  0.0835  0.0511  0.0014
26203W        W45737  15.901  14.552  15.216 -0.3478  0.3398  0.2445
26204W        W45738   6.506   0.167   0.704  0.1475  0.0144 -0.0428
26205W        W45739  11.900  14.935  13.251 -0.0102  0.1054  0.1112
26206W        W45740  13.476   2.865  15.488  0.0452  0.0145 -0.3410
26207W        W45741   2.693   8.537  15.501 -0.2658  0.2476  0.1518
26208W        W45742   9.278   1.269  13.040  0.0010  0.0265  0.1893
26209W        W45743  15.123   6.621   0.117  0.3585 -0.1001 -0.0188
26210W        W45744  13.684   4.935   3.265 -0.1808  0.0438  0.1972
26211W        W45745  11.493   8.005   0.373 -0.0897 -0.0194  0.0338
26212W        W45746  11.326   2.520   2.300 -0.0044  0.2433 -0.2879
26213W        W45747  12.505   1.094  15.027  0.0390 -0.0108 -0.2520
26214W        W45748  12.469   6.966  12.991 -0.2705 -0.1123  0.3265
26215W        W45749   4.584  15.434  12.977 -0.1432  0.0395  0.1714
26216W        W45750  13.769   4.657   0.368 -0.2141  0.0045  0.2885
26217W        W45751   2.847   0.351   2.885  0.0453 -0.7233  0.0196
26218W        W45752   5.375  10.874   4.950  0.0095 -0.2228 -0.2573
26219W        W45753   8.088   8.257   3.337  0.0259 -0.2213  0.3573
26220W        W45754   0.681  16.737  15.518  0.1395 -0.0314 -0.3740
26221W        W45755   5.396  17.315   2.893  0.1134 -0.0137  0.0876
26222W        W45756  16.526  17.509  13.027 -0.1142  0.2229 -0.4073
26223W        W45757   3.099  16.323   3.899  0.2479  0.0919  0.2129
26224W        W45758   8.199  15.849   2.307  0.1455  0.1596  0.0124
26225W        W45759   8.860   3.394  12.278  0.2479 -0.0981  0.0009
26226W        W45760   6.944  15.641  15.843 -0.0999 -0.1638  0.1747
26227W        W45761  15.705  17.482  15.451  0.0495  0.1841 -0.1380
26228W        W45762  18.085  16.322   0.610 -0.0596 -0.2065 -0.0289
26229W        W45763   2.775   3.658  14.203 -0.1007 -0.2819 -0.0151
26230W        W45764  11.302   7.611   0.648  0.0492  0.0802  0.0762
26231W        W45765  10.627  12.433   4.523  0.2251 -0.0438 -0.2469
26232W        W45766   2.394  13.989  12.112 -0.2453  0.1855  0.1092
26233W        W45767   4.805   7.259  14.196 -0.0600 -0.1737 -0.1198
26234W        W45768  10.612   5.566   0.601  0.1227 -0.1330  0.0183
26235W        W45769   9.413   1.872  10.490  0.1000 -0.0795 -0.0923
26236W        W45770  12.921   0.385  13.238  0.2974  0.2271 -0.2292
26237W        W45771  11.647   7.380   0.311  0.3680 -0.1729 -0.1731
26238W        W45772  17.237  13.607  13.346 -0.1329 -0.1510 -0.3069
26239W        W45773   6.214  10.561  10.633  0.1393  0.0292  0.0334
26240W        W45774  12.675   2.886   2.109 -0.0327  0.2100  0.1040
26241W        W45775  14.293   8.047  15.065 -0.1184 -0.0741  0.1923
26242W        W45776  14.059   3.409   4.908  0.0332  0.3527 -0.2086
26243W        W45777  12.373   5.359   1.684  0.3253  0.0829  0.0903
26244W        W45778  15.365  13.426   1.623 -0.2279  0.1436  0.0519
26245W        W45779  17.952   2.884  14.956  0.0403 -0.1518 -0.1822
26246W        W45780  17.465  10.508   0.838  0.2543  0.1699 -0.2405
26247W        W45781   9.064   9.855   0.629  0.1896 -0.1052 -0.1344
26248W        W45782   5.518  15.655  15.623 -0.2464 -0.1262  0.2534
26249W        W45783  14.818   4.129   2.981  0.1485  0.3450 -0.0712
26250W        W45784  11.215   9.305  11.600 -0.0262 -0.2144 -0.0095
26251W        W45785  11.545   6.994  13.668 -0.0576 -0.2823  0.3955
26252W        W45786  18.077  13.155   4.081 -0.1727 -0.0575  0.0824
26253W        W45787   5.377   4.561   1.404  0.0624 -0.1915  0.3720
26254W        W45788   0.063   2.881   2.740 -0.1194 -0.3524 -0.2055
26255W        W45789  12.789  11.802   4.010  0.0054 -0.1389 -0.0374
26256W        W45790  10.193   3.634  14.048 -0.5254  0.1327  0.1009
26257W        W45791  14.798  15.643   2.476 -0.0592  0.0892  0.0418
26258W        W45792   8.150  12.111  14.333 -0.1372 -0.0404  0.1511
26259W        W45793   2.254   3.177   1.832 -0.0593 -0.0869 -0.1530
26260W        W45794  11.377   4.660  13.473  0.1143 -0.1760  0.2370
26261W        W45795  12.228   9.488  13.734  0.2484 -0.2139  0.0158
26262W        W45796  10.888  17.705   1.732 -0.0725 -0.0779  0.2116
26263W        W45797   0.588  14.218  12.610  0.1557 -0.2480  0.3799
26264W        W45798   7.470   5.127  12.863  0.1050 -0.0468  0.1923
26265W        W45799   9.701   0.561  14.162  0.2376  0.0348  0.0024
26266W        W45800  10.490   8.847   1.826 -0.1923 -0.1633  0.1712
26267W        W45801   2.828   7.693  12.794  0.0374 -0.0381 -0.2265
26268W        W45802   3.196  16.666  14.041  0.2787  0.2189  0.1256
26269W        W45803  11.332   9.586   3.462  0.2611  0.2905 -0.0873
26270W        W45804  16.367  10.051   0.126  0.0041  0.0160  0.2920
26271W        W45805  13.146  12.563   2.437  0.1250  0.0206  0.1829
26272W        W45806  16.602  14.995  13.160  0.2603  0.2617 -0.0820
26273W        W45807  15.664  11.400  11.664  0.0309 -0.0948  0.3794
26274W        W45808  16.420  10.551   0.067 -0.2678  0.1368 -0.2565
26275W        W45809   6.592  10.557  12.955 -0.3606 -0.3585  0.2009
26276W        W45810   6.249   1.863  11.836 -0.0501 -0.0299  0.3353
26277W        W45811  11.046   6.304   3.857  0.0287  0.0281  0.0912
26278W        W45812   6.073   1.045   0.030  0.1822 -0.1869  0.5970
26279W        W45813   8.251  15.078  15.941  0.2438 -0.1625 -0.1102
26280W        W45814   4.447  11.386  12.581 -0.5083  0.1326  0.0620
26281W        W45815   2.795   3.449   1.664  0.1972 -0.1277  0.3600
26282W        W45816  11.803   0.417  13.005 -0.2227  0.3375 -0.1758
26283W        W45817   4.265   0.350   2.757  0.4454  0.0481 -0.1112
26284W        W45818  13.511   3.996   0.816  0.2736 -0.1693 -0.0995
26285W        W45819   1.901   8.627   0.018 -0.0403  0.0715  0.1588
26286W        W45820  15.657   2.794  12.227 -0.1785  0.1792 -0.1826
26287W        W45821  16.218   3.805   0.303  0.1363 -0.0758 -0.1681
26288W        W45822  12.259   9.102   3.833  0.2189  0.2767  0.1731
26289W        W45823  14.588  15.603  14.402 -0.2814  0.1585  0.1310
26290W        W45824   4.269  12.588   0.055 -0.1270 -0.1393 -0.0592
26291W        W45825   2.825  11.054  14.188  0.0776  0.2319  0.0353
26292W        W45826   5.167   4.155  13.549  0.0791  0.2808  0.0871
26293W        W45827  17.769   0.782   3.233 -0.2306 -0.0904 -0.3859
26294W        W45828   0.348   7.925   4.198  0.1788  0.5489  0.1942
26295W        W45829   2.801  11.461   3.431  0.1626 -0.0602 -0.0882
26296W        W45830   1.133   0.366   2.215  0.1752 -0.1695  0.0144
26297W        W45831   7.151  12.208   3.074 -0.1338  0.0433  0.0471
26298W        W45832  10.459   0.549   4.536 -0.1852  0.1075  0.0156
26299W        W45833   8.321   0.438   4.641 -0.0150 -0.2844  0.1618
26300W        W45834  14.823  11.428  13.230  0.0112  0.0950 -0.1504
26301W        W45835   2.280   2.363  11.060  0.0470 -0.0455 -0.3718
26302W        W45836   6.309   5.237  13.528  0.0396 -0.0874 -0.1283
26303W        W45837  13.341   1.687   1.198 -0.3943 -0.1566 -0.0340
26304W        W45838  11.730   9.643   0.721  0.0785 -0.1421  0.1185
26305W        W45839  12.432   5.747  11.879 -0.1188  0.0012 -0.0829
26306W        W45840  13.575   1.607   3.327 -0.1223 -0.0187  0.1431
26307W        W45841   0.168   2.461  15.928  0.4351  0.1189  0.0395
26308W        W45842   2.890   8.159   1.528  0.1600  0.0739 -0.1451
26309W        W45843   2.748   0.942  10.618  0.0007 -0.4234 -0.1444
26310W        W45844   1.272   2.152  15.399  0.1710  0.0730 -0.2335
26311W        W45845  17.852  12.926  12.097  0.2817  0.0084  0.1641
26312W        W45846  16.962  11.398   1.213  0.1657  0.0613  0.2083
26313W        W45847  16.317   2.850  14.275  0.0225  0.0688  0.2203
26314W        W45848   3.721  11.837  15.057  0.0646 -0.0172  0.1076
26315W        W45849  14.211   7.386   1.057 -0.0269 -0.1532  0.1739
26316W        W45850   6.466   6.497  12.288 -0.1015  0.0182 -0.0303
26317W        W45851   4.578  17.555   2.580 -0.0017  0.2636  0.1205
26318W        W45852  15.314  17.240  15.147  0.0381  0.1972  0.0761
26319W        W45853   5.106  11.338  13.678  0.1360 -0.0967 -0.0348
26320W        W45854   6.268   5.463  14.359 -0.0415  0.0973  0.3552
26321W        W45855  14.599   0.358   1.297  0.0011 -0.0405 -0.1233
26322W        W45856   1.818  16.158  14.287 -0.0239  0.1831 -0.2047
26323W        W45857   0.379   0.989  12.838  0.1086  0.0535  0.1383
26324W        W45858   8.708   0.683   0.720 -0.0381 -0.0874 -0.0268
26325W        W45859   8.271  15.248  13.675 -0.1359 -0.1216  0.1209
26326W        W45860   0.159   3.910   3.716 -0.2524  0.2925 -0.1186
26327W        W45861   9.947   6.309  13.960 -0.1450 -0.0649 -0.2094
26328W        W45862   3.318   0.333  11.229 -0.0560 -0.1145  0.1570
26329W        W45863  10.765  15.658  15.806  0.0856  0.1460 -0.1305
26330W        W45864  16.954   1.028  14.034  0.1473 -0.0168  0.1077
26331W        W45865   0.177  14.062   4.074 -0.1250  0.0917  0.2047
26332W        W45866   7.833   7.544   0.616 -0.0337  0.1834  0.2782
26333W        W45867   7.467  14.456   1.129  0.3447  0.1205 -0.2898
26334W        W45868  12.620   0.176   0.362 -0.0320  0.5213  0.4161
26335W        W45869   9.121   0.498  14.056  0.0838  0.2850  0.0263
26336W        W45870   6.685   0.367   1.559 -0.0435 -0.2506  0.0276
26337W        W45871   0.471   3.230   2.100 -0.0739 -0.1820 -0.0515
26338W        W45872   0.045  16.416   2.871  0.2836 -0.1385 -0.2102
26339W        W45873   9.833   4.803   2.167 -0.4034  0.1764  0.2160
26340W        W45874  14.947   1.583  14.683 -0.1442  0.0586 -0.1757
26341W        W45875   1.530   6.381  12.564 -0.2821 -0.1057 -0.0358
26342W        W45876  13.150   4.928  15.681 -0.0569 -0.2183  0.0237
26343W        W45877   7.129   1.199  13.479 -0.0677 -0.2187  0.0351
26344W        W45878   9.376  13.375  15.940 -0.0450  0.1705  0.2488
26345W        W45879   4.571  17.000   4.577 -0.1251  0.0377  0.1862
26346W        W45880   6.758   4.683  11.062  0.0952  0.2423 -0.0919
26347W        W45881   3.009   2.654  12.847  0.1523 -0.0420  0.0316
26348W        W45882  17.960   9.575  12.190 -0.3521  0.3106 -0.0862
26349W        W45883  16.131  13.237   2.634  0.0552  0.0674 -0.3925
26350W        W45884   8.144   4.230   3.341 -0.0411  0.0998  0.2068
26351W        W45885   9.197   9.953  14.594 -0.0537 -0.0741 -0.0840
26352W        W45886   5.094  10.109  15.247  0.1021  0.0527 -0.2002
26353W        W45887  13.103  12.461   4.532 -0.0793 -0.1980 -0.1590
26354W        W45888  16.416  16.913   3.182  0.2340 -0.3428 -0.3475
26355W        W45889   6.728   5.719   2.220 -0.0262 -0.3032  0.0461
26356W        W45890  12.573  11.647   1.149 -0.2192 -0.0414  0.1964
26357W        W45891  11.831   1.260  12.692 -0.1139 -0.0332 -0.0806
26358W        W45892   7.494   0.771  12.359  0.3734  0.1943 -0.3181
26359W        W45893  11.811  10.308   0.732  0.1351 -0.5153  0.1553
26360W        W45894  12.978   3.795  14.194 -0.0440 -0.0472  0.1826
26361W        W45895  14.668   7.055   1.874 -0.0913 -0.1880 -0.0852
26362W        W45896   1.000   6.522  12.762 -0.0695 -0.0326  0.0744
26363W        W45897   5.045   5.931  15.305 -0.0286  0.0354 -0.0119
26364W        W45898   3.657   9.897  11.926  0.0365  0.0103 -0.1163
26365W        W45899   5.149  14.347  12.666 -0.0851  0.2295  0.0505
26366W        W45900  11.706  11.892  13.622  0.2346 -0.3818  0.0682
26367W        W45901   4.824   0.428  11.598 -0.0673  0.1265  0.1941
26368W        W45902  17.857   0.954  13.281  0.1057 -0.0221  0.0121
26369W        W45903   9.490   9.861   3.780 -0.4366  0.0614  0.0308
26370W        W45904   6.428  15.151   4.604  0.2401  0.1115  0.1492
26371W        W45905  12.108   2.347   3.669  0.2219 -0.3027  0.1531
26372W        W45906  15.608   7.386  13.765 -0.0196 -0.2944  0.0454
26373W        W45907   5.995   3.575   3.873 -0.1807 -0.0604  0.0884
26374W        W45908  15.167   0.775   0.522 -0.2794 -0.3631 -0.0132
26375W        W45909   1.012  11.330  12.476 -0.2246 -0.2028 -0.2128
26376W        W45910  15.099  16.492  15.672  0.1588 -0.0812 -0.0745
26377W        W45911   5.997   1.689  15.337  0.1071 -0.2369  0.1265
26378W        W45912  16.439  14.087   6.011  0.0042 -0.0574  0.2340
26379W        W45913   1.861   1.271   3.056 -0.0944  0.0710 -0.2460
26380W        W45914  12.553  14.272  12.901  0.0280 -0.0674 -0.1892
26381W        W45915  15.706   6.292   3.956  0.0207 -0.0030 -0.0905
26382W        W45916   4.729   4.010  15.337  0.0008 -0.0329 -0.2290
26383W        W45917   3.262   1.806  13.760  0.0592  0.0922  0.2217
26384W        W45918   2.217  14.845  13.163 -0.0215 -0.1156 -0.1288
26385W        W45919  13.943  12.466   2.907  0.0142  0.3814 -0.0403
26386W        W45920  13.191   1.265   3.166 -0.0613  0.1582  0.0371
26387W        W45921  16.194  14.043  15.195 -0.2472 -0.2151  0.1168
26388W        W45922   3.868   3.907  14.940 -0.0365 -0.0351 -0.0371
26389W        W45923   1.869   5.107  12.411 -0.0071  0.0771 -0.3821
26390W        W45924   2.631   7.938   1.133  0.2423  0.0198 -0.4001
26391W        W45925  15.846  17.053   4.979  0.0780 -0.1616 -0.1046
26392W        W45926   9.128   1.160  15.255 -0.0873 -0.1111 -0.0793
26393W        W45927  15.842  10.137   4.594  0.0585 -0.3170 -0.0448
26394W        W45928   0.952  13.694   3.683  0.2584 -0.0502  0.0995
26395W        W45929   8.712   7.325   3.082  0.1158  0.2033  0.1897
26396W        W45930  13.619   7.322   3.896  0.3580 -0.0729  0.1614
26397W        W45931   2.674   0.736   1.750 -0.3009 -0.1464  0.2296
26398W        W45932  10.441  17.080  13.415 -0.0020  0.0839 -0.0297
26399W        W45933  11.333   0.079  14.131 -0.1754  0.1890 -0.0956
26400W        W45934   3.236  15.012   0.779  0.0629  0.0228 -0.1387
26401W        W45935   8.847  11.477  13.337  0.0576  0.1475 -0.2055
26402W        W45936  14.569   4.597   0.008 -0.2610 -0.1386 -0.0090
26403W        W45937  17.857  10.397  14.084 -0.2099 -0.1000  0.0600
26404W        W45938   1.119  15.111  13.018  0.2153  0.0311  0.3263
26405W        W45939  17.169   1.841  14.303 -0.1400 -0.0618  0.2461
26406W        W45940  13.697   1.955  12.882 -0.1725 -0.0612 -0.1926
26407W        W45941  16.803   1.489   1.889 -0.2296  0.2640 -0.0807
26408W        W45942   4.579  14.613  12.543  0.4631  0.1888  0.0974
26409W        W45943   0.932  14.238   1.757 -0.0704  0.0200 -0.1334
26410W        W45944  10.194  10.840  12.383 -0.2720 -0.1629 -0.1139
26411W        W45945  14.612   9.186  13.991 -0.0865  0.0060 -0.0644
26412W        W45946  12.237  11.711   3.994  0.1380  0.0886  0.0341
26413W        W45947   8.949   1.404  15.995  0.1464 -0.1020 -0.1915
26414W        W45948  12.441   3.063  15.945  0.0883 -0.2535 -0.1334
26415W        W45949   8.795   9.698  14.491 -0.2158  0.1745  0.2654
26416W        W45950  11.940   7.628   1.260 -0.0970  0.0452 -0.1757
26417W        W45951   1.148   0.796   4.153 -0.0226  0.2079  0.0357
26418W        W45952  13.362   1.174  15.200  0.0149 -0.1597  0.0555
26419W        W45953  16.160   4.983   0.582  0.1761  0.0466  0.0927
26420W        W45954   8.517   8.476   3.146  0.2671  0.1170 -0.0179
26421W        W45955   2.209   1.161  13.299 -0.1046 -0.1251 -0.2850
26422W        W45956   6.787   2.312   2.033  0.1533 -0.1804  0.1420
26423W        W45957   6.286   1.418   0.348  0.2118  0.0643  0.2091
26424W        W45958  10.692  17.725   0.552  0.0295 -0.0144 -0.3086
26425W        W45959  12.385   9.321  12.347  0.0084  0.0113  0.0349
26426W        W45960   7.339   8.088   0.142  0.1359  0.1078 -0.0417
26427W        W45961   9.618  10.139  12.199  0.0591  0.1264 -0.0125
26428W        W45962   2.616  17.050  12.879 -0.0715 -0.2278 -0.2206
26429W        W45963   9.684  14.889   1.327 -0.1924 -0.0924 -0.4304
26430W        W45964   9.539  15.905  13.246 -0.3252 -0.0234 -0.0843
26431W        W45965  10.175   4.716  12.496 -0.1114 -0.1152 -0.0856
26432W        W45966  16.914   6.303   0.992  0.0395 -0.1502 -0.0745
26433W        W45967  16.123   3.894  12.451 -0.0554 -0.2684 -0.1318
26434W        W45968  14.156   2.293   4.448  0.0329  0.1217 -0.1385
26435W        W45969   1.081   4.470   3.496  0.0220 -0.2649  0.1731
26436W        W45970   1.081  10.029  13.753  0.0509  0.0461  0.1704
26437W        W45971   6.947  17.023  13.447  0.0580  0.0354 -0.0168
26438W        W45972   2.334   3.180  15.664  0.1975 -0.1186  0.1279
26439W        W45973  14.462   4.123  13.213 -0.0693  0.3161  0.0963
26440W        W45974  18.145   3.934  11.510  0.2011 -0.0262  0.0935
26441W        W45975   7.529  16.603  14.510 -0.0885 -0.3666  0.1948
26442W        W45976   9.191  14.865   1.430  0.2347 -0.0450  0.2859
26443W        W45977   8.865  10.152  11.719 -0.3153  0.0995  0.0084
26444W        W45978   9.158  14.466  13.243 -0.1839 -0.2419  0.0039
26445W        W45979   5.226  10.607   4.151 -0.0532  0.2974  0.1259
26446W        W45980  10.938   4.868  14.934 -0.1536  0.1517  0.4579
26447W        W45981  18.136  11.733  12.798 -0.0229  0.0894 -0.0920
26448W        W45982   4.171  13.129   1.667  0.0720 -0.3430  0.1350
26449W        W45983   7.733   7.993  14.768 -0.1643 -0.2038 -0.1185
26450W        W45984  15.857  17.062  15.142 -0.1231  0.0139  0.0766
26451W        W45985  10.154   7.899  12.806 -0.0250  0.0076 -0.2446
26452W        W45986  10.671   7.998  12.742 -0.0328 -0.0149 -0.0960
26453W        W45987   8.765  16.852   0.453  0.2876 -0.1297 -0.1600
26454W        W45988  15.299  14.645   0.377 -0.2403 -0.0376 -0.1190
26455W        W45989  15.281  13.805   3.804 -0.0964 -0.2911 -0.1249
26456W        W45990   5.431   1.471  15.443 -0.1269 -0.1231  0.0140
26457W        W45991  13.306  14.724   4.834  0.2554  0.1147 -0.1509
26458W        W45992   8.624  16.251  14.066  0.0475  0.2983 -0.5815
26459W        W45993  17.637  15.438  13.670  0.1009  0.0590  0.0844
26460W        W45994   3.973  11.735   2.707  0.0173  0.2423  0.1532
26461W        W45995  17.308   2.587  12.196  0.2213  0.1461 -0.0162
26462W        W45996   8.220  16.448  11.825  0.0696  0.1656 -0.1712
26463W        W45997   0.190   8.842   4.413 -0.2798  0.0465 -0.1223
26464W        W45998  17.465  10.145  12.643  0.0214  0.0175 -0.2076
26465W        W45999   9.124  12.375   3.842 -0.0470 -0.0875  0.2751
26466W        W46000   1.438  16.476  14.286  0.2101 -0.0632 -0.1070
26467W        W46001   9.577  17.339   2.381 -0.0271 -0.0177  0.1582
26468W        W46002   1.287   1.167   3.850 -0.2199  0.1526 -0.1705
26469W        W46003  10.551   6.338   0.624  0.2055  0.0598 -0.1606
26470W        W46004  13.577   6.546  11.759 -0.0912 -0.1441 -0.3553
26471W        W46005   2.416   8.989   1.207 -0.1189  0.4393 -0.0123
26472W        W46006   3.421  10.240  15.846 -0.2974  0.0174  0.0524
26473W        W46007   2.256   7.261  11.713 -0.1189 -0.0481  0.2421
26474W        W46008   5.849   2.587  14.381  0.0628  0.1344  0.0522
26475W        W46009   8.131  11.826  12.170 -0.0519 -0.0214  0.2332
26476W        W46010   2.375  16.047   0.502  0.0609 -0.1095 -0.0298
26477W        W46011  12.019   4.337   0.555  0.0463  0.0854 -0.0241
26478W        W46012  16.194   2.106  12.417 -0.0507  0.2407  0.0129
26479W        W46013  12.165  14.317  15.326 -0.2598 -0.2279 -0.0795
26480W        W46014  13.195   7.990   1.207  0.3321 -0.0470  0.2022
26481W        W46015  13.287   3.470  14.949 -0.1691  0.0516 -0.0305
26482W        W46016   8.239  14.569   0.586 -0.0235  0.3032 -0.1816
26483W        W46017   8.138  14.814  15.269  0.2548  0.1330 -0.2387
26484W        W46018   1.455  15.967  13.990  0.2759  0.0193 -0.2563
26485W        W46019   7.468  13.596   4.066  0.0282 -0.1011  0.3104
26486W        W46020  14.774  14.418  12.110  0.3071  0.1035 -0.3013
26487W        W46021  18.186   3.801   4.215 -0.1720 -0.1024  0.3431
26488W        W46022   6.593   9.347   4.384  0.0541 -0.0306 -0.1703
26489W        W46023   4.414   4.403   1.310  0.1963 -0.1138 -0.0947
26490W        W46024  14.089  10.180   4.633 -0.0768 -0.1071  0.2063
26491W        W46025  14.981  15.197  11.963 -0.3507 -0.1654  0.1283
26492W        W46026  10.619  11.415  11.165 -0.1411 -0.0049 -0.0935
26493W        W46027   4.795   1.946  12.909 -0.0796  0.0144  0.1042
26494W        W46028   8.760   8.497   1.140 -0.2111 -0.0233 -0.0761
26495W        W46029  16.581   2.471  12.551 -0.0497 -0.1697 -0.1180
26496W        W46030  16.775   1.575  14.126 -0.3788  0.1378 -0.1168
26497W        W46031   8.828  13.640  13.318 -0.1417  0.0825  0.0912
26498W        W46032   0.259   1.976  14.198 -0.4108 -0.0862  0.1602
26499W        W46033   0.724   4.703  15.136 -0.1084 -0.0311  0.1242
26500W        W46034   5.678  13.025  14.984 -0.0707  0.0623  0.3271
26501W        W46035  11.796  10.840   1.219  0.0570 -0.0092 -0.0266
26502W        W46036   9.409   4.483   2.115  0.3448 -0.0282  0.4821
26503W        W46037  10.222   4.918  13.049 -0.0864  0.0777  0.0840
26504W        W46038  14.447   9.733  11.782  0.1073  0.0731 -0.0563
26505W        W46039  14.840  15.810   0.071 -0.0184  0.1824  0.3812
26506W        W46040  12.021   2.617  12.200  0.1317 -0.0309 -0.4356
26507W        W46041   3.535  10.289   3.835 -0.1203  0.1284  0.0912
26508W        W46042   3.190   9.103  15.957  0.0539 -0.3539 -0.0514
26509W        W46043   0.233   1.040  12.346 -0.0888  0.4122 -0.1202
26510W        W46044   2.092  14.474  14.439  0.0584 -0.1160 -0.5311
26511W        W46045  12.411   8.409   0.200 -0.2662 -0.2990  0.0562
26512W        W46046  12.434   1.443  15.390 -0.3569  0.0633 -0.0225
26513W        W46047  14.699   0.972   1.216 -0.3737  0.0767 -0.1778
26514W        W46048   9.296  14.561   0.408  0.1563  0.0761 -0.1822
26515W        W46049  15.895  10.457  15.572 -0.0428  0.1384  0.1917
26516W        W46050   1.225   6.594  15.052 -0.1077 -0.2017  0.0244
26517W        W46051  10.581   8.034   4.135 -0.0020 -0.1135 -0.1580
26518W        W46052  13.196  10.221   0.459 -0.0099 -0.1771  0.0432
26519W        W46053  17.166   0.716   4.369  0.1384  0.1639 -0.0959
26520W        W46054  12.772  15.924   4.599 -0.0863  0.5018 -0.1330
26521W        W46055   4.095   9.161   0.509 -0.1268 -0.1954 -0.0501
26522W        W46056   5.495  14.454   1.449  0.2501 -0.0397  0.2255
26523W        W46057  16.194   3.641   3.028 -0.1094  0.3595 -0.0004
26524W        W46058   4.965   8.281   4.652 -0.3688 -0.1222  0.0014
26525W        W46059   0.500  10.735   1.326 -0.1507  0.2970 -0.0384
26526W        W46060  15.551   3.652   1.417  0.0476  0.3020 -0.0712
26527W        W46061   4.560   0.043   2.406 -0.0284  0.2509 -0.1360
26528W        W46062   7.580   3.060   5.520 -0.1383 -0.2119 -0.1558
26529W        W46063  18.184  10.833  13.352  0.0902  0.3584 -0.1892
26530W        W46064  17.378  14.026   5.635  0.1491  0.1260 -0.1302
26531W        W46065  15.016  15.970  13.399  0.0825 -0.0012 -0.2295
26532W        W46066  11.795   0.161  15.964  0.1302 -0.0180 -0.1484
26533W        W46067   1.547  10.735   3.216  0.2540  0.0420  0.0595
26534W        W46068   1.655   1.387  13.106  0.0377  0.1515 -0.1453
26535W        W46069   0.675   8.441  14.879  0.3171 -0.0565 -0.0486
26536W        W46070  14.472   4.074  10.190  0.2619 -0.1226 -0.2269
26537W        W46071  14.888   6.653   2.148  0.1402 -0.0627 -0.0937
26538W        W46072  15.787   4.848  11.848  0.0299 -0.2146  0.1610
26539W        W46073  17.702   5.083  11.188  0.1174  0.1310  0.1297
26540W        W46074  17.010   9.171   3.205  0.1787 -0.1796  0.2165
26541W        W46075   6.911  16.702  13.818  0.0634 -0.0032  0.2586
26542W        W46076   5.549   2.096   1.745  0.1185  0.0070  0.1703
26543W        W46077   7.045   0.961  12.990  0.0095  0.0723  0.0612
26544W        W46078  16.143  14.106   5.163  0.2424  0.3849 -0.1534
26545W        W46079   1.128   6.819   5.257  0.2999 -0.0035  0.2294
26546W        W46080   5.738   9.952   0.141 -0.0776 -0.1275  0.0714
26547W        W46081   2.497  17.398  13.287  0.0013  0.0993 -0.0056
26548W        W46082   0.880   9.350  14.420 -0.0123 -0.0713 -0.0292
26549W        W46083   0.417  15.698  15.803 -0.1912  0.1993  0.1694
26550W        W46084   3.843   0.655  13.820 -0.1240 -0.1203  0.2815
26551W        W46085  16.307  16.896   0.629  0.0215 -0.3567 -0.0670
26552W        W46086   4.548  17.927  14.643  0.0504 -0.3307 -0.1218
26553W        W46087  13.341   5.916   2.594  0.2266  0.0617 -0.0489
26554W        W46088  15.492   8.495  14.592  0.3440  0.1292 -0.1402
26555W        W46089   6.849   9.717  13.260  0.1351 -0.1558 -0.5196
26556W        W46090   2.475   3.815   0.804 -0.0143  0.0249  0.4047
26557W        W46091   1.793   2.668  12.805  0.0300  0.0685  0.0646
26558W        W46092   1.540  12.261   4.362 -0.3007  0.0037 -0.1032
26559W        W46093   4.966  14.249  13.224 -0.1106 -0.0292 -0.1563
26560W        W46094   0.131   0.074   1.231 -0.0030  0.2228 -0.1694
26561W        W46095   3.131  14.874   2.371 -0.0406  0.2524  0.2438
26562W        W46096  11.528   9.136   3.365 -0.2993 -0.0721 -0.2114
26563W        W46097   8.944   8.234   4.986 -0.1058  0.1449 -0.0647
26564W        W46098   3.870  10.280  12.180  0.0462  0.0486  0.0503
26565W        W46099  10.794  12.804   3.675 -0.0992 -0.1454 -0.2245
26566W        W46100  11.683  16.821   2.395 -0.0035 -0.0816 -0.2359
26567W        W46101   1.798  11.840  12.621 -0.1654 -0.0110 -0.0596
26568W        W46102   0.656   2.050  11.602 -0.2341  0.1242  0.0369
26569W        W46103   9.889   1.957  12.900 -0.0719 -0.0534  0.1344
26570W        W46104   6.155   0.313   3.876 -0.2088  0.1088 -0.1665
26571W        W46105   3.459  15.580   0.813 -0.0772 -0.2717  0.0206
26572W        W46106  15.993   8.657  14.658  0.2822 -0.1421 -0.1784
26573W        W46107  14.679  17.386  15.003 -0.3006  0.4400  0.0309
26574W        W46108  16.599  11.922   4.384  0.0993 -0.0948  0.2786
26575W        W46109  14.820  11.677   0.872 -0.0014  0.3660  0.3062
26576W        W46110   0.735  11.405   3.767  0.0529  0.1115  0.1092
26577W        W46111   5.842  15.324   0.492  0.1135 -0.0447  0.0938
26578W        W46112  12.729  14.192   1.249  0.1582  0.1171  0.2405
26579W        W46113   2.176  14.672  11.353  0.2415  0.1252 -0.1237
26580W        W46114  14.089   7.360  14.327 -0.0442 -0.1793  0.1979
26581W        W46115   1.381   3.399  12.287  0.0089  0.3392 -0.0394
26582W        W46116  16.139   4.855   1.846  0.3987  0.1512 -0.0988
26583W        W46117   3.140  11.010  14.632 -0.3557  0.0123 -0.2803
26584W        W46118  16.720   2.451   4.525 -0.1840 -0.0010 -0.1754
26585W        W46119  14.969   6.155   2.747  0.2131 -0.2993 -0.1813
26586W        W46120   6.106   2.553  14.769  0.0462  0.1022 -0.3472
26587W        W46121  17.295  11.983   1.157  0.1389 -0.1311  0.1212
26588W        W46122   6.213  14.738   4.416 -0.0509  0.2033 -0.0387
26589W        W46123   6.785  16.913  12.988 -0.3247 -0.1267 -0.1209
26590W        W46124   8.321  11.491   2.693  0.2143 -0.0564 -0.0889
26591W        W46125  10.572  11.541   2.990 -0.2703 -0.0037 -0.0012
26592W        W46126  17.098   2.036  12.809  0.0685  0.1162  0.2073
26593W        W46127   1.853  16.474   2.053  0.0193 -0.2625 -0.1244
26594W        W46128  10.084  15.716   1.029 -0.0976  0.0724 -0.2241
26595W        W46129   1.741   4.462   4.284 -0.1195  0.2080  0.0826
26596W        W46130   0.060   0.778  14.972  0.2179  0.0793 -0.0096
26597W        W46131   0.082   1.801   3.183 -0.0640 -0.1253  0.1032
26598W        W46132   6.696  10.874   1.146  0.1542 -0.1406  0.1538
26599W        W46133   7.161   4.593  14.527 -0.1279  0.1570  0.0417
26600W        W46134   5.095   0.076   3.687  0.0919 -0.3017 -0.2270
26601W        W46135  11.132  13.372  12.976 -0.1470 -0.0816 -0.0091
26602W        W46136   0.118  17.958   5.705  0.0182 -0.0128  0.0884
26603W        W46137   5.804  17.398  15.650  0.2725 -0.0244  0.2177
26604W        W46138  13.369   4.948   5.304  0.1186 -0.0345 -0.0495
26605W        W46139  11.962   2.061   0.996 -0.1187 -0.0417 -0.1734
26606W        W46140   2.070  16.572  12.719  0.0859 -0.1691 -0.0668
26607W        W46141   6.426   6.881  15.973 -0.0578 -0.3138  0.3464
26608W        W46142   7.777   7.599   2.056 -0.1392  0.2460 -0.0872
26609W        W46143  15.857  17.770  14.287  0.0129 -0.1070  0.1718
26610W        W46144   8.179   7.653   1.001 -0.2258 -0.0035 -0.2984
26611W        W46145   1.301  15.984   2.823  0.1497 -0.0987  0.0433
26612W        W46146   7.611  15.330   2.225 -0.1476  0.1658  0.2384
26613W        W46147   9.809   4.832  12.231  0.2039 -0.1916  0.0203
26614W        W46148   1.032  11.907  13.749 -0.3359  0.0627 -0.1971
26615W        W46149   7.210   1.393  14.567  0.1183  0.0982 -0.4227
26616W        W46150   0.197  11.725  11.409 -0.5086  0.2273 -0.1777
26617W        W46151   7.678  16.126  15.230  0.3686  0.1494 -0.0718
26618W        W46152   8.544   8.022  10.952  0.0566  0.0076 -0.1589
26619W        W46153  16.352   4.345   1.084  0.2060  0.0458 -0.0736
26620W        W46154  14.584   1.022   3.527  0.3789  0.1176  0.0923
26621W        W46155   4.529   3.106  12.078  0.4571 -0.1129  0.1164
26622W        W46156   4.027   9.252   3.447  0.2460 -0.1931  0.1897
26623W        W46157  15.836   4.505  13.660  0.2304 -0.1437 -0.1282
26624W        W46158   4.722   9.953   3.304  0.0141 -0.1166  0.0827
26625W        W46159  10.803   4.791  10.335 -0.1528  0.0109 -0.1838
26626W        W46160  17.837   1.694   3.656 -0.1443  0.1056 -0.0325
26627W        W46161  15.011  13.992  13.673 -0.0944 -0.1022  0.2584
26628W        W46162   4.131   8.931  11.817 -0.1629  0.2015  0.2071
26629W        W46163   0.327   0.487   1.954  0.1899  0.0048  0.0538
26630W        W46164   2.708   2.624   0.167 -0.0522  0.2300  0.3023
26631W        W46165  12.273   3.447   1.920  0.2100  0.0857  0.1174
26632W        W46166   4.138   2.809   0.397 -0.3965  0.0099  0.2192
26633W        W46167  16.814  12.980   1.812 -0.0780  0.1999  0.0653
26634W        W46168  10.446   5.224   2.813  0.2198 -0.1253  0.0184
26635W        W46169   8.510  16.926   3.773  0.3844  0.2257  0.1557
26636W        W46170   8.291   0.405  14.577 -0.0073  0.0295  0.0079
26637W        W46171  15.659   7.315  11.918 -0.0030  0.2319  0.1397
26638W        W46172   3.075  15.018  11.550  0.0769  0.0078 -0.3310
26639W        W46173   9.984  15.927  13.779  0.0138  0.0036 -0.2627
26640W        W46174  12.918   4.287   0.005 -0.0578 -0.4399  0.2431
26641W        W46175   7.935  14.680  15.808 -0.0155  0.1068  0.2062
26642W        W46176  11.934   7.828   2.750 -0.0300 -0.3118  0.3835
26643W        W46177   2.328  11.638  12.697  0.0630 -0.1185  0.1692
26644W        W46178  16.185  15.536   3.293  0.2123  0.0228 -0.0575
26645W        W46179  12.331   4.308  15.412  0.2724 -0.1036  0.0477
26646W        W46180   3.783   2.403  15.191 -0.2160 -0.2186 -0.0550
26647W        W46181   1.396   8.609  14.365 -0.1008  0.2525 -0.0386
26648W        W46182   8.358   0.765  13.152  0.0579 -0.0762  0.2661
26649W        W46183   3.288   3.741  14.054  0.2057  0.0776 -0.0256
26650W        W46184   2.048   1.005   0.683 -0.2386 -0.1196  0.0222
26651W        W46185  13.331   9.384   0.139  0.0570 -0.0233 -0.0228
26652W        W46186  15.760  13.053  12.532  0.2810  0.0726  0.4511
26653W        W46187  14.600  12.792  13.821 -0.0854 -0.2793 -0.4872
26654W        W46188  13.176  12.991   0.468  0.0202 -0.0345  0.0006
26655W        W46189   6.255   3.875   2.656 -0.1060  0.1191  0.0831
26656W        W46190  10.389   4.340   2.671  0.0478  0.1777 -0.0111
26657W        W46191   9.188   4.201  13.190  0.0259  0.1925  0.1246
26658W        W46192   0.353  14.047  14.319 -0.1542  0.1853 -0.3669
26659W        W46193   9.203   5.490   4.902  0.1570  0.1136  0.0236
26660W        W46194   7.366  15.600  13.219 -0.0312 -0.2788 -0.2616
26661W        W46195  15.279   3.515   3.393  0.1896  0.0096  0.0627
26662W        W46196  12.654   2.851  14.927  0.0799  0.0510 -0.1274
26663W        W46197   5.397  13.914  13.248 -0.2100  0.0709  0.2604
26664W        W46198   5.733  10.711  14.003  0.0763  0.0479 -0.1289
26665W        W46199  13.822   7.834   1.231 -0.2482  0.0998  0.2083
26666W        W46200   7.780  14.787   1.253  0.1137  0.0134 -0.1588
26667W        W46201   1.542   0.588  14.261 -0.1030 -0.0225  0.1138
26668W        W46202  11.566  13.542   1.708  0.1589 -0.0266 -0.2713
26669W        W46203   1.778   6.059   3.695  0.1449 -0.0154 -0.0919
26670W        W46204   6.248  13.652  15.523 -0.1788 -0.0868  0.3490
26671W        W46205   4.621  17.336  13.443 -0.1671  0.1041  0.0641
26672W        W46206   5.232  11.648  11.416 -0.0185 -0.1535 -0.2227
26673W        W46207   5.504  15.048  13.081 -0.5059  0.1588 -0.0865
26674W        W46208   1.829   1.855   3.291 -0.0313  0.2517 -0.2569
26675W        W46209  11.092   1.200  15.826  0.1121  0.3463  0.1364
26676W        W46210  11.375  13.714   1.253 -0.0745 -0.0294 -0.1200
26677W        W46211  18.081   5.219  12.038  0.0209 -0.0233  0.2313
26678W        W46212   1.353   9.902  12.826 -0.3416  0.1706  0.1178
26679W        W46213   0.937  12.094  14.192  0.2278 -0.0170 -0.1130
26680W        W46214  10.579  10.857  15.963  0.0228 -0.2533  0.3160
26681W        W46215  17.732  15.871   0.502 -0.1328 -0.1804 -0.0791
26682W        W46216   7.615  15.080  11.458  0.0800 -0.1752  0.0518
26683W        W46217   4.420  14.084  16.011 -0.2234 -0.0215  0.0858
26684W        W46218   3.508   4.211  12.300 -0.1262  0.0236 -0.1108
26685W        W46219  11.406   2.245  14.415  0.0608  0.1208  0.1544
26686W        W46220   6.429  15.953   0.636 -0.2681 -0.1482  0.0926
26687W        W46221  14.429   9.412  15.431  0.2703 -0.1956  0.1594
26688W        W46222   4.390   8.031   3.416 -0.2616 -0.0334 -0.1803
26689W        W46223   9.187  13.103   0.231  0.0612  0.1102 -0.3834
26690W        W46224   7.801   5.937  14.892 -0.0362  0.1987 -0.1959
26691W        W46225  13.625   5.612   4.011  0.1592 -0.0916  0.2013
26692W        W46226   4.909  15.629  13.820 -0.1616  0.0697  0.0752
26693W        W46227   2.683   8.227  15.966 -0.0211 -0.1179  0.1284
26694W        W46228  14.109   4.661   2.414 -0.1780  0.1617 -0.2627
26695W        W46229  14.101  13.686   4.244 -0.0549 -0.3030  0.0545
26696W        W46230   0.255  16.081  15.443  0.1204 -0.2152 -0.2466
26697W        W46231  11.305  13.699   4.746 -0.1094 -0.0823 -0.1012
26698W        W46232   6.381  11.924   0.965 -0.0831 -0.1378 -0.0389
26699W        W46233  11.195   5.619  11.774 -0.1388 -0.2872 -0.1474
26700W        W46234   2.201   8.192  16.024  0.2180  0.2198 -0.1630
26701W        W46235  16.979   0.273  12.659 -0.0989  0.0419 -0.0100
26702W        W46236  12.231  11.116  14.246 -0.0356 -0.0265  0.0410
26703W        W46237  17.121  17.510   4.327  0.0314  0.2970 -0.0859
26704W        W46238   3.934  11.732   0.796 -0.3145 -0.0794  0.3014
26705W        W46239   0.245  16.592   1.564 -0.2458  0.0759  0.1644
26706W        W46240  15.425  13.913   1.776 -0.3027  0.0946  0.0149
26707W        W46241   4.697   3.453  11.664  0.3194 -0.0051  0.1626
26708W        W46242   3.792  10.438   3.410 -0.1302  0.0176 -0.1311
26709W        W46243   9.900  17.348  11.582  0.2255 -0.0174 -0.1811
26710W        W46244   9.217   9.269   5.293  0.1541  0.0533 -0.0871
26711W        W46245   2.609   4.702  13.283 -0.0985 -0.2245  0.0927
26712W        W46246   9.651   3.494  11.950  0.1534  0.0274 -0.2082
26713W        W46247   4.323  16.168   2.940 -0.1678 -0.3031  0.0627
26714W        W46248   2.237  16.389   2.928  0.2759 -0.0014  0.0245
26715W        W46249   7.851  17.330  11.240 -0.1903  0.0583 -0.1995
26716W        W46250  10.501  14.864   2.408  0.1604  0.0277 -0.3021
26717W        W46251  15.258  17.125  12.233  0.2184  0.2257  0.0939
26718W        W46252   0.405   3.978   0.166  0.0178 -0.0813 -0.2121
26719W        W46253  13.518  14.762   1.744 -0.0432  0.2731  0.0881
26720W        W46254  15.847  18.182   2.752  0.3105 -0.1190 -0.2016
26721W        W46255   9.280  10.504  12.403  0.2905 -0.2714 -0.1371
26722W        W46256  15.452  13.778  13.571  0.0889 -0.1828 -0.4600
26723W        W46257  16.108   7.376   1.162 -0.0162  0.1549  0.0900
26724W        W46258   8.031  11.598  15.534 -0.0700  0.1996  0.3621
26725W        W46259   3.124   5.242   1.536 -0.1418  0.1374  0.0496
26726W        W46260   4.208   0.048  10.557 -0.1986  0.0776 -0.0050
26727W        W46261   2.625   9.251   2.260  0.2708 -0.1659  0.0925
26728W        W46262   7.916   5.915  12.787 -0.1427  0.2072  0.3593
26729W        W46263   0.620   9.390  15.814  0.0353 -0.3861 -0.1107
26730W        W46264   3.881  12.967   0.234 -0.0376  0.3211 -0.1842
26731W        W46265   4.132   2.832   2.065 -0.0554  0.2166 -0.1858
26732W        W46266   9.270   1.749  13.513  0.0701  0.1880 -0.2445
26733W        W46267   8.286   1.636   2.890 -0.0526  0.2178  0.0175
26734W        W46268  17.072   6.903  12.362 -0.0043  0.0148 -0.2377
26735W        W46269  12.040   9.938   5.004 -0.0141 -0.0270 -0.1881
26736W        W46270   2.929   7.989   4.368  0.1038 -0.0278 -0.1627
26737W        W46271   3.021   2.598  11.452 -0.1505  0.2416 -0.0840
26738W        W46272  12.644   8.008   2.152  0.2199  0.1135 -0.1269
26739W        W46273  11.740  11.352   0.917  0.2560 -0.1052  0.1674
26740W        W46274   9.927  15.031  15.785  0.2266  0.2479 -0.0390
26741W        W46275   6.941   7.450   1.713 -0.0866 -0.1858 -0.4801
26742W        W46276  11.488   6.883  15.933  0.0032 -0.1463  0.3004
26743W        W46277   7.360  12.574   2.791 -0.0883 -0.3580  0.0606
26744W        W46278  11.390  13.449  13.891 -0.1210  0.0484 -0.3007
26745W        W46279   6.785  13.835  15.027  0.1233 -0.2934 -0.3839
26746W        W46280  15.920  10.360   0.509  0.0000 -0.0877  0.1227
26747W        W46281   1.741  10.044   2.276  0.1941 -0.2289 -0.1191
26748W        W46282  13.953   6.653  12.277 -0.0575 -0.1549  0.0310
26749W        W46283   3.878  15.282   2.053  0.0037 -0.0531  0.1676
26750W        W46284   2.638   3.637  12.067 -0.1435  0.0592  0.1473
26751W        W46285   7.246   5.845  12.070  0.0296  0.1465 -0.0559
26752W        W46286  15.584  15.232   3.457  0.1184  0.0412  0.2153
26753W        W46287  16.326   0.684  15.365  0.0266 -0.1411  0.0458
26754W        W46288   1.317  16.868  12.014 -0.0035  0.2704  0.1073
26755W        W46289  15.734   0.788   1.845  0.2241  0.3217 -0.3672
26756W        W46290  17.362  11.576  12.421  0.0393  0.0409 -0.2891
26757W        W46291  18.023  11.167  13.955 -0.0716  0.1007 -0.2495
26758W        W46292   6.483   1.873  12.374  0.0097  0.0105  0.0024
26759W        W46293  12.268  12.911  15.750  0.0953  0.0035 -0.2745
26760W        W46294  16.848   4.397   3.866  0.1291  0.3051 -0.3996
26761W        W46295   7.940  17.483   1.958  0.1923  0.3728 -0.0953
26762W        W46296  10.992  16.276   2.882  0.0206  0.0376  0.3753
26763W        W46297   0.093   2.509  14.850  0.2429  0.1963 -0.0521
26764W        W46298   0.924   9.610   1.994 -0.1782  0.0599  0.1005
26765W        W46299  17.311   3.259  13.752  0.2492  0.0271  0.1113
26766W        W46300  14.212   5.898   0.677  0.0967 -0.2037 -0.2564
26767W        W46301  16.138  14.627   3.878 -0.0862 -0.1499  0.3538
26768W        W46302   9.076  17.295   2.204 -0.3252 -0.1570  0.0982
26769W        W46303  17.681  16.721   1.944 -0.0326 -0.0728  0.0005
26770W        W46304  13.396   7.943  14.761 -0.1031  0.0403 -0.2768
26771W        W46305  14.385  12.427  14.937  0.0061  0.1874  0.1397
26772W        W46306  16.127  13.367  12.565  0.0438 -0.1666 -0.1891
26773W        W46307  17.991  14.493   4.356  0.1239  0.1833  0.0174
26774W        W46308   2.125  14.714  10.785  0.1684  0.2054  0.1358
26775W        W46309   7.453   2.985   2.459  0.1631 -0.0778  0.0859
26776W        W46310  11.820  10.824   0.605 -0.0404  0.1753 -0.2401
26777W        W46311   0.282   6.630  15.534 -0.0183  0.0649  0.0588
26778W        W46312   4.160  13.411   1.265 -0.3913  0.1096 -0.1982
26779W        W46313  12.361   9.619   3.185 -0.2739  0.0514 -0.1809
26780W        W46314   8.136   9.368  14.964 -0.0995  0.1932 -0.2721
26781W        W46315  13.548   9.667   5.040 -0.0155 -0.2921  0.1309
26782W        W46316   0.903  15.705   5.530 -0.1201 -0.1030 -0.1920
26783W        W46317   6.064   2.913  11.846  0.1644  0.2061  0.0479
26784W        W46318   3.635  11.438   4.585  0.0112  0.1702 -0.1000
26785W        W46319  17.959  17.373   2.592  0.2561  0.0270  0.1887
26786W        W46320   2.385   3.413  15.205  0.0731  0.0746 -0.1264
26787W        W46321   5.545  17.485  11.355 -0.1137  0.0218 -0.0930
26788W        W46322  16.078   0.477   3.215  0.0542 -0.0183 -0.3838
26789W        W46323  12.050   8.950   0.996 -0.0707 -0.2513  0.0968
26790W        W46324  10.690  11.953  16.057  0.0823 -0.1261  0.0039
26791W        W46325  16.759   1.542   3.270 -0.0001  0.0419  0.1540
26792W        W46326   1.081  11.742   3.690 -0.1681  0.1451 -0.0215
26793W        W46327   4.004   5.880  14.143  0.0191 -0.1214 -0.0593
26794W        W46328   7.706  10.630   3.362  0.1196  0.0644  0.1911
26795W        W46329   0.624  13.846   0.451 -0.0087 -0.0131  0.2232
26796W        W46330  11.468   0.584  13.343 -0.2730  0.0326  0.1317
26797W        W46331   5.633   7.113  15.627  0.0253  0.0317  0.2488
26798W        W46332   3.846   6.442   3.443  0.0659  0.0557  0.2899
26799W        W46333   7.301  17.466   3.962  0.2186 -0.0992  0.1248
26800W        W46334  10.140  17.293   4.900  0.1395  0.2839  0.1561
26801W        W46335  13.364   8.340  12.575  0.0777  0.0539  0.1687
26802W        W46336  13.524   2.469   4.346 -0.0463  0.1383  0.0080
26803W        W46337   9.055   0.218  13.610 -0.2163  0.3809  0.1101
26804W        W46338  16.628   2.108  15.208 -0.0183  0.1756 -0.1378
26805W        W46339  16.150   3.158   4.061 -0.2119  0.6337 -0.1737
26806W        W46340  14.793   8.947   2.787 -0.1212  0.0277  0.3445
26807W        W46341  12.716  10.001   4.577  0.2110 -0.1297 -0.0512
26808W        W46342  15.715   6.443  15.330  0.1885  0.0357  0.3416
26809W        W46343  17.925   0.895   1.862  0.3439 -0.0332  0.1284
26810W        W46344  18.135   6.682  13.674  0.0146  0.0479  0.1068
26811W        W46345   3.492   6.429   1.952 -0.1251  0.2846  0.1930
26812W        W46346  14.243  16.052  15.950 -0.0138  0.0200 -0.0332
26813W        W46347  10.883  12.553  14.506  0.1702  0.0440 -0.1394
26814W        W46348   8.357   3.534  15.034  0.1869  0.1850 -0.1107
26815W        W46349  12.942  16.683   4.076 -0.1280  0.2112  0.1162
26816W        W46350  15.711   1.752  15.155 -0.2561 -0.3533  0.0473
26817W        W46351  12.389   6.273   0.378 -0.0044  0.1488  0.2264
26818W        W46352  17.211  14.880  12.234 -0.0877 -0.2156 -0.0900
26819W        W46353  16.262  12.919   3.335  0.0858  0.1599 -0.1275
26820W        W46354  13.693  12.616   6.145 -0.1927  0.2927 -0.2825
26821W        W46355  13.519  15.811   0.178 -0.0974 -0.0990  0.0514
26822W        W46356  17.162  10.384   3.786  0.0605 -0.0195  0.2271
26823W        W46357   4.936  15.118   3.859  0.1245  0.0692 -0.2540
26824W        W46358  11.759   6.583   2.770 -0.0651  0.1125  0.3109
26825W        W46359   6.112   6.665  14.943  0.1199 -0.0594 -0.1146
26826W        W46360   6.297   6.216  12.717 -0.1316 -0.1868  0.1505
26827W        W46361  11.915   0.410   3.973  0.2934 -0.0238  0.1123
26828W        W46362   8.669   6.841  11.554  0.0752 -0.2559 -0.1526
26829W        W46363   2.827  10.332   2.965  0.0348 -0.0296  0.0412
26830W        W46364  15.180   3.528  12.005 -0.1194 -0.2041 -0.0215
26831W        W46365   4.976   8.162  11.413  0.2933  0.2286 -0.1509
26832W        W46366  12.651  17.003  13.284 -0.1473 -0.0875 -0.4647
26833W        W46367   0.517  15.747   3.493 -0.0731  0.0500 -0.2431
26834W        W46368  15.319   7.887  15.004 -0.0219 -0.1590 -0.1186
26835W        W46369  15.691  11.568   4.267  0.1047  0.1173  0.4460
26836W        W46370  11.435   1.564  11.190 -0.0389  0.2112 -0.0802
26837W        W46371  16.139  14.150   3.986 -0.1115  0.0751  0.1912
26838W        W46372  14.334   6.238  14.450  0.1698  0.0491 -0.1763
26839W        W46373  10.497   0.176  13.925  0.1846 -0.0609 -0.1683
26840W        W46374  13.807  17.781  11.729  0.2272  0.1268  0.0452
26841W        W46375   5.165  16.553   4.002  0.0437 -0.0373  0.0476
26842W        W46376   0.058   4.370  12.678 -0.0520  0.0802  0.2578
26843W        W46377   9.316  16.181  11.344  0.1344 -0.0538  0.0798
26844W        W46378  12.130   8.061  14.598  0.2459 -0.1013  0.0768
26845W        W46379   7.297   4.035  11.932 -0.0724 -0.1038  0.0611
26846W        W46380   3.111   8.725  13.805 -0.2606  0.1111  0.2852
26847W        W46381   9.520   3.687   3.661  0.1727 -0.0107  0.0641
26848W        W46382   7.438   7.299   2.962  0.1498  0.0409  0.1199
26849W        W46383  15.487  16.684   4.888  0.3373 -0.1771 -0.0248
26850W        W46384   0.484  17.255  14.423  0.0561 -0.0547 -0.3259
26851W        W46385   5.717  14.034  12.050  0.0154  0.0226 -0.0259
26852W        W46386  10.023   0.330   2.082  0.1797  0.2027 -0.2416
26853W        W46387  14.918   0.740  10.546  0.0630 -0.1194 -0.1266
26854W        W46388  10.852  13.759   1.033  0.1059  0.0440 -0.0672
26855W        W46389  16.672  14.810   3.803  0.1897 -0.0863  0.3156
26856W        W46390   7.328   1.511   1.861 -0.0311 -0.0975  0.3322
26857W        W46391  17.988  12.191   4.054  0.0312  0.1051  0.0153
26858W        W46392  11.560  11.163   1.616  0.3452  0.0960  0.2139
26859W        W46393   5.125  15.078  15.741  0.0691  0.0478 -0.1978
26860W        W46394  16.969  17.163   1.207  0.0309 -0.2064 -0.1396
26861W        W46395   4.361   7.546   0.139  0.4316 -0.0589  0.1890
26862W        W46396   0.606  12.102   3.167  0.2231 -0.3488  0.2230
26863W        W46397  10.729   5.414  15.635 -0.3021  0.3393  0.2635
26864W        W46398   1.897   7.198  14.855  0.1803  0.2481  0.0431
26865W        W46399  14.680  17.070   3.817 -0.1129  0.0619 -0.0708
26866W        W46400   4.978  16.849  13.633  0.3903  0.3511 -0.1396
26867W        W46401   5.715   3.815  12.471 -0.0548 -0.0823 -0.1928
26868W        W46402   5.210   6.089  11.541 -0.0850  0.1378  0.0764
26869W        W46403   4.869   3.486  12.232 -0.2363 -0.2035 -0.0327
26870W        W46404   4.662   5.263  13.968 -0.1438  0.2554  0.0724
26871W        W46405   3.531   8.467  11.552 -0.1425  0.2851  0.3885
26872W        W46406   5.075   8.090  12.923  0.3195  0.0908  0.0726
26873W        W46407   7.765  17.601   1.534 -0.2408 -0.1021  0.2104
26874W        W46408   7.277  12.688  13.364  0.0921  0.1103 -0.1710
26875W        W46409  14.127   0.924  13.575 -0.3118 -0.0580 -0.3847
26876W        W46410  16.425  17.035  12.958  0.0886  0.1169 -0.0401
26877W        W46411   5.283   0.201   4.127 -0.1693 -0.0124 -0.1152
26878W        W46412   7.346  16.250  14.179 -0.2238  0.2857 -0.2396
26879W        W46413   3.187   3.438  13.124  0.2653  0.1847 -0.3937
26880W        W46414   4.941  10.234  12.086 -0.0416  0.1206  0.2210
26881W        W46415   0.205  14.142   1.760  0.2216 -0.0326 -0.1053
26882W        W46416   9.229   1.901  14.108 -0.2325 -0.0805  0.0959
26883W        W46417   7.086   0.206   3.485 -0.1434  0.4247 -0.0576
26884W        W46418  12.658   7.199   1.473 -0.1685  0.0444 -0.0831
26885W        W46419  12.204  15.150  14.231  0.1397  0.0612  0.0711
26886W        W46420   3.204  13.614  15.516 -0.3951  0.1704 -0.1599
26887W        W46421   0.777   6.977  13.175 -0.1367 -0.0778 -0.0338
26888W        W46422   9.735  13.940  12.155  0.1382  0.0880 -0.2663
26889W        W46423  17.523   7.016  12.326 -0.0459  0.0604  0.1551
26890W        W46424  15.538  15.382   4.900 -0.4317 -0.2172 -0.1407
26891W        W46425  11.118  12.851   3.013  0.0729 -0.1014 -0.0025
26892W        W46426   9.182  14.440  11.703 -0.4833  0.5490  0.2611
26893W        W46427   8.345   4.751  12.594 -0.0126  0.0006  0.5054
26894W        W46428  14.494   3.716   2.116  0.0984  0.1378 -0.0635
26895W        W46429   7.197   1.204  13.999 -0.2950  0.0499 -0.0604
26896W        W46430  11.792   9.435   3.716  0.0316 -0.2140 -0.2215
26897W        W46431  17.705  15.651   2.816  0.2123  0.3204 -0.1140
26898W        W46432  11.480  12.014  12.025  0.0526  0.0121  0.1445
26899W        W46433  16.030   8.494  13.735 -0.0890 -0.3311  0.3968
26900W        W46434  14.225   0.920   4.972  0.0366 -0.0617 -0.2615
26901W        W46435   0.533   4.652  12.650 -0.1108 -0.1888 -0.0859
26902W        W46436  13.990  15.876   0.726 -0.0123  0.1578  0.1703
26903W        W46437   7.092  17.398   4.502 -0.0010 -0.3206  0.0964
26904W        W46438  11.260   0.309  11.889 -0.0063 -0.0093  0.0526
26905W        W46439  17.952  17.173   3.415  0.2284 -0.2591  0.2327
26906W        W46440  12.688  15.588   5.924 -0.1046 -0.0841 -0.0334
26907W        W46441   2.385  13.324   2.171  0.4524 -0.2008  0.0129
26908W        W46442   9.869   2.948  14.660 -0.0919 -0.1596 -0.1332
26909W        W46443  17.308  10.894  11.590 -0.0378  0.0656  0.0251
26910W        W46444   2.290   1.346   0.338  0.2593 -0.0542 -0.2170
26911W        W46445   1.635   7.978   4.581 -0.2468  0.1384  0.0683
26912W        W46446  14.314   3.485  14.317 -0.1180  0.2081 -0.0462
26913W        W46447   1.759   9.910  15.236  0.0906  0.3634 -0.1328
26914W        W46448  13.723   4.162   0.299 -0.1345 -0.0777 -0.0930
26915W        W46449  17.436  18.131   2.393 -0.1324  0.0123  0.1321
26916W        W46450   8.723   2.530  10.963  0.2087 -0.2074  0.2828
26917W        W46451  12.384  16.607  13.056 -0.0964  0.1894  0.1797
26918W        W46452   0.202   1.436  11.966  0.1442 -0.1071  0.1992
26919W        W46453  13.436   0.759  15.588 -0.2523  0.1553 -0.4555
26920W        W46454  10.769   1.580   4.431  0.1463 -0.2430 -0.1250
26921W        W46455   8.895   8.929   1.453  0.1471 -0.4057  0.0996
26922W        W46456  15.149  16.347   0.160 -0.2823 -0.0863  0.0192
26923W        W46457   5.221   0.053  11.426 -0.1070 -0.1265 -0.0714
26924W        W46458  17.598   6.400   3.035  0.0808 -0.0949  0.1792
26925W        W46459   6.153   3.855  13.008  0.0263  0.2520  0.2252
26926W        W46460  12.354  15.306   2.851 -0.0254 -0.1469 -0.1919
26927W        W46461   2.299  16.171   1.153 -0.1861  0.1627 -0.2706
26928W        W46462   4.572   1.828   4.253 -0.1262 -0.1455 -0.0422
26929W        W46463   4.934   5.709   3.726 -0.1539  0.1106 -0.0091
26930W        W46464  16.111   9.204   0.992  0.0568 -0.1429  0.0432
26931W        W46465   2.447  15.031  15.211 -0.0957  0.0143  0.4391
26932W        W46466  14.276  17.577  12.796 -0.2117  0.2215  0.1803
26933W        W46467  15.456   8.171  15.421 -0.0026 -0.2451  0.3355
26934W        W46468   5.831  14.019  14.340 -0.0072 -0.1101  0.1555
26935W        W46469  14.543   9.293   3.105  0.2191 -0.3204  0.0753
26936W        W46470  14.800  12.720   2.642 -0.1511  0.0999 -0.1550
26937W        W46471  17.584   9.318   3.131 -0.0368  0.2039 -0.3099
26938W        W46472  13.849  14.342  12.954  0.0812  0.1002  0.2855
26939W        W46473  15.207  10.398  11.222  0.2635 -0.1195 -0.3095
26940W        W46474   8.341   6.283   0.708  0.0681  0.0864 -0.0813
26941W        W46475   9.852  13.451  10.869 -0.0786 -0.1714 -0.0748
26942W        W46476   0.667   2.913  13.835  0.3973 -0.0453 -0.0086
26943W        W46477   6.157   6.290  13.698  0.2384 -0.1516 -0.0658
26944W        W46478   7.313   9.768  15.804  0.0414 -0.1457  0.0078
26945W        W46479   9.748  10.313   0.801  0.0130 -0.0719  0.0072
26946W        W46480   6.418   5.556  13.902  0.1491  0.0749 -0.1113
26947W        W46481   4.990   9.888  13.042  0.1118 -0.4178 -0.0384
26948W        W46482   5.570  12.217  13.556 -0.0113  0.1427 -0.0328
26949W        W46483  16.452  14.133   4.604  0.2917  0.3331  0.1939
26950W        W46484  10.965   9.464  14.301 -0.0969 -0.0649  0.0473
26951W        W46485  16.562   5.812   2.707 -0.0761 -0.0243 -0.0877
26952W        W46486   0.727  13.632   4.911  0.0439  0.2992 -0.1186
26953W        W46487  16.161   0.111   0.679  0.1803  0.2577 -0.2622
26954W        W46488  16.407   9.902   3.875 -0.0127  0.1533  0.0731
26955W        W46489  12.382   9.749  12.048  0.0078  0.0920 -0.2078
26956W        W46490   6.716  13.250   0.284 -0.2482  0.0674  0.1011
26957W        W46491  16.603  16.859  13.887  0.3193 -0.1240 -0.2225
26958W        W46492  12.907  15.356   1.530 -0.0430  0.2796  0.0094
26959W        W46493   6.158   2.090  12.746  0.1530 -0.0372 -0.3186
26960W        W46494  17.263  14.775   2.112 -0.2305  0.0846 -0.1016
26961W        W46495   3.129  12.218   1.747  0.0884  0.0058 -0.0320
26962W        W46496   1.406  12.357   1.818  0.3071  0.1812 -0.4808
26963W        W46497  13.910   4.293   1.973  0.4252  0.1229 -0.1316
26964W        W46498   5.281  10.016  11.737 -0.1457 -0.0363  0.1486
26965W        W46499   4.254   1.918  12.907 -0.1619  0.2014  0.0160
26966W        W46500  13.777  11.678  14.888 -0.3022  0.0771 -0.1173
26967W        W46501   6.760  15.453   1.514  0.2060  0.0777 -0.0153
26968W        W46502   3.581  12.045  15.867  0.3786  0.6070 -0.1923
26969W        W46503   4.577   7.434   3.722  0.0432 -0.1535 -0.0025
26970W        W46504   9.330   5.258  14.504 -0.0386  0.3548 -0.1906
26971W        W46505   1.165   1.667  14.708 -0.1337 -0.0234 -0.1941
26972W        W46506  12.482  13.881  12.559 -0.2988  0.0201  0.1079
26973W        W46507  15.516   4.194   4.452  0.0206  0.0545 -0.1113
26974W        W46508  13.639   4.055   3.528  0.3392 -0.1157  0.0773
26975W        W46509  13.350   4.643   4.241 -0.4005 -0.2607  0.3381
26976W        W46510  11.874   6.120  11.675  0.0621  0.2767 -0.3014
26977W        W46511  15.519  10.520  14.326 -0.3804  0.0754  0.2627
26978W        W46512   1.352  12.204   3.536 -0.1025 -0.1934  0.0191
26979W        W46513   2.608  12.255   1.785 -0.3980 -0.0225  0.0811
26980W        W46514  13.080   1.356   3.743  0.4113  0.3995  0.2445
26981W        W46515  13.052  12.956  10.109 -0.3424 -0.0324 -0.0880
26982W        W46516   5.390   8.273  12.582 -0.1964 -0.2452  0.0010
26983W        W46517   6.912  17.753  11.803  0.0282  0.0708 -0.0638
26984W        W46518  11.949  10.537  15.874 -0.1358 -0.1817  0.2601
26985W        W46519   5.577   1.793   3.590 -0.1103 -0.0240  0.0163
26986W        W46520   0.705   2.687   1.241 -0.1608 -0.0370  0.0992
26987W        W46521  15.317  14.237   4.831 -0.2925  0.2955 -0.1422
26988W        W46522  17.678   8.035  14.756  0.1640 -0.2107  0.1585
26989W        W46523  14.051   6.973  14.032 -0.0770 -0.1925 -0.1658
26990W        W46524   2.653   7.998  15.490 -0.1193 -0.0729  0.0646
26991W        W46525  11.814   9.913  13.102  0.2987  0.1552  0.1040
26992W        W46526  14.811  15.914   2.083  0.0364 -0.1430  0.1440
26993W        W46527   8.317   6.315  12.548  0.1367  0.0863 -0.0597
26994W        W46528  12.308  10.443  13.440 -0.0102  0.1392 -0.0340
26995W        W46529  17.162  17.134  14.226 -0.0246 -0.2691  0.1731
26996W        W46530   9.978  12.645  12.568 -0.0601  0.0795 -0.0677
26997W        W46531   5.285   2.527   3.161 -0.1156  0.0995  0.0258
26998W        W46532  15.852   7.162  15.788 -0.2353  0.0534  0.1044
26999W        W46533   5.710  11.884  11.490 -0.0816 -0.0859 -0.3664
27000W        W46534   6.106  16.517   3.559  0.0640 -0.0630 -0.1027
27001W        W46535  10.160  11.982  13.666 -0.0528  0.3083  0.1137
27002W        W46536  14.176  10.507   3.540  0.3161  0.0649 -0.2018
27003W        W46537   2.037   3.521  11.901  0.1408  0.1983 -0.3189
27004W        W46538   4.059  13.357  12.470 -0.1319  0.0512  0.2816
27005W        W46539   1.025   2.260   1.507 -0.1082 -0.2425 -0.1822
27006W        W46540  10.902  15.413   2.322 -0.0942 -0.1031 -0.0439
27007W        W46541  13.855   4.302  15.469 -0.0720 -0.2276 -0.0754
27008W        W46542   7.276   0.552  13.287  0.0918  0.0584  0.0860
27009W        W46543  11.673  15.779  15.580  0.1450  0.1052  0.1960
27010W        W46544   1.006   2.693   0.754  0.1311 -0.1795  0.1542
27011W        W46545  14.522  10.979   4.696  0.0202  0.3640 -0.1379
27012W        W46546  13.448  12.352   3.634 -0.1384 -0.1231 -0.0326
27013W        W46547  11.746  10.630   2.532 -0.0344 -0.0918 -0.1862
27014W        W46548  17.413  11.692   5.051  0.0164  0.0591  0.0193
27015W        W46549  18.047   5.613   1.050 -0.1885  0.1401 -0.2753
27016W        W46550   3.449   0.870  15.167 -0.1158 -0.2717  0.2227
27017W        W46551   2.304  12.377  13.365  0.2292 -0.0481 -0.2476
27018W        W46552  12.302  16.779  15.328  0.0251  0.0066  0.2196
27019W        W46553   6.704   6.865  13.337 -0.4121 -0.2794  0.0429
27020W        W46554   3.097  15.314  12.031 -0.1726  0.2015  0.1228
27021W        W46555   3.515   6.118  12.918 -0.0032 -0.0162 -0.2678
27022W        W46556   3.357   1.308  13.695  0.2482  0.0821  0.1186
27023W        W46557   4.118  15.409  14.289 -0.0544  0.0380  0.2060
27024W        W46558   4.982   4.209   4.233  0.2151  0.3664  0.2140
27025W        W46559  14.614   8.908  15.066 -0.1318  0.0205 -0.3749
27026W        W46560   1.814  13.907   3.590 -0.1214  0.1138 -0.0720
27027W        W46561  11.064  13.589   3.930  0.1206  0.1915 -0.0026
27028W        W46562   0.931  17.969  12.823 -0.0813 -0.3575  0.0510
27029W        W46563   5.044   6.150  14.605 -0.2764 -0.1554 -0.1666
27030W        W46564   1.508  13.511  13.455  0.0260 -0.0562 -0.1044
27031W        W46565   2.604   1.392  13.108  0.0999 -0.0536  0.0522
27032W        W46566  10.609  10.437   4.058 -0.1007 -0.0253  0.1080
27033W        W46567   2.537   5.892   1.910 -0.1820  0.0196  0.1689
27034W        W46568   5.249   8.734   1.012 -0.1201  0.2077 -0.0630
27035W        W46569   8.858  12.940   1.989 -0.0716  0.0886 -0.3378
27036W        W46570   3.243   3.715   0.301  0.0444 -0.0708  0.0960
27037W        W46571   8.885   8.761   4.077 -0.2419 -0.1158  0.5921
27038W        W46572   0.458   8.363   0.514  0.0038 -0.0820  0.5003
27039W        W46573   1.220   9.993   2.199  0.0671 -0.1984  0.0157
27040W        W46574  16.924   8.765   2.562  0.0505 -0.1246 -0.2096
27041W        W46575   2.832   1.114   3.622  0.0847 -0.0146  0.0263
27042W        W46576  16.146  13.188   0.509  0.2148  0.2477  0.2515
27043W        W46577   4.127  10.102   3.407 -0.1647 -0.1305 -0.1429
27044W        W46578  13.582  11.267  13.987  0.3137 -0.0747  0.1813
27045W        W46579   1.571  12.542  15.841 -0.2174 -0.2200  0.0317
27046W        W46580  12.703   6.237   1.944 -0.1766  0.1489 -0.2490
27047W        W46581  17.383   4.147   4.561 -0.0388  0.0840 -0.0462
27048W        W46582   4.316  14.324   3.678  0.1593  0.0830 -0.1830
27049W        W46583   6.975   6.466   2.590 -0.0790  0.1388 -0.0812
27050W        W46584  17.694   5.697   0.709  0.1513 -0.4754 -0.0926
27051W        W46585   7.459  13.471   3.087  0.1174 -0.2493 -0.2869
27052W        W46586  16.900   8.362   0.807  0.0394 -0.0550 -0.4077
27053W        W46587  12.463  17.572   3.995  0.2059  0.1872 -0.0952
27054W        W46588   6.316  11.914  13.351 -0.2326 -0.0352  0.1063
27055W        W46589  10.318   3.100   4.571  0.2107  0.1173 -0.1098
27056W        W46590  10.605  17.113  14.121 -0.2470  0.3561  0.0421
27057W        W46591   4.074  10.189  14.213 -0.2505 -0.0318 -0.0237
27058W        W46592   8.151   0.889   3.325 -0.0641  0.4820  0.0197
27059W        W46593  15.434   1.754  12.841  0.0787 -0.0570  0.0883
27060W        W46594  17.553  13.267  15.293 -0.1561  0.0248 -0.2275
27061W        W46595   3.506  12.585   1.759  0.1578  0.0616 -0.0607
27062W        W46596   8.282   0.619  13.603 -0.0428  0.0629 -0.0537
27063W        W46597  14.510   2.241   2.567  0.1733 -0.1100  0.0387
27064W        W46598   9.203   8.571   0.821  0.1246 -0.0050  0.0678
27065W        W46599   6.610   0.948   4.108 -0.0107 -0.5798  0.0167
27066W        W46600   5.250  16.402  13.548  0.3224 -0.2308 -0.0762
27067W        W46601  15.186  17.866  11.588  0.2543 -0.2024  0.1962
27068W        W46602  17.031  15.189  11.914  0.2027 -0.2414  0.4118
27069W        W46603   8.895  12.239  16.031 -0.0110  0.0705  0.0011
27070W        W46604   9.845   6.213   1.581  0.1079  0.3881 -0.2182
27071W        W46605  17.985   0.369  13.221  0.0043 -0.1529  0.1221
27072W        W46606  13.957   4.023  14.660  0.0854  0.1183  0.2426
27073W        W46607   0.408   1.639   4.163 -0.0670  0.1954 -0.3074
27074W        W46608   9.107   9.104   3.791 -0.1659 -0.0938 -0.3581
27075W        W46609   1.347  16.649   4.171 -0.0933  0.4237  0.0472
27076W        W46610  14.180  11.944  14.937 -0.1038 -0.1734  0.0927
27077W        W46611   6.296   3.340  11.637  0.1414  0.1199 -0.3824
27078W        W46612   8.304   2.767  13.778 -0.0850  0.1108  0.1107
27079W        W46613   3.475  10.288   0.592  0.2517 -0.0802  0.0140
27080W        W46614   2.363   5.047   4.608 -0.2338 -0.2390  0.1218
27081W        W46615  14.646  14.634   2.753  0.0308 -0.3190  0.1398
27082W        W46616  11.114  14.069   4.095 -0.5306  0.1506 -0.0166
27083W        W46617  15.180   0.159  11.774 -0.2188  0.0310 -0.1318
27084W        W46618  16.228  14.242   0.415 -0.0378  0.2380  0.1958
27085W        W46619   9.346   4.384  14.917  0.0003 -0.0834 -0.0072
27086W        W46620  10.131  10.477   4.029  0.2537  0.0418 -0.1257
27087W        W46621   2.521   9.816  14.432  0.0889  0.2473  0.0081
27088W        W46622   6.254  13.986  14.186 -0.2341  0.1471  0.0302
27089W        W46623   6.817   8.150  15.364 -0.1932 -0.1571  0.1601
27090W        W46624  17.619  12.140  14.484 -0.0776 -0.0252 -0.0290
27091W        W46625   2.407   3.949  13.783 -0.1643 -0.0706  0.3469
27092W        W46626   8.367   7.620   2.783  0.0440 -0.1939  0.2440
27093W        W46627   5.022  10.635   0.172 -0.0838 -0.3383  0.4413
27094W        W46628  15.551   3.993   2.565 -0.2692 -0.0576  0.2748
27095W        W46629   3.892   9.667  11.522 -0.0650 -0.1694 -0.0654
27096W        W46630  15.068   5.638  11.670 -0.3676  0.0205  0.5431
27097W        W46631  16.357  16.595   1.850 -0.1758  0.1664 -0.1958
27098W        W46632   5.668  14.050   2.031 -0.2204 -0.3404  0.0890
27099W        W46633   6.883   4.500   2.419 -0.0339  0.2530  0.2128
27100W        W46634   9.457   8.353   4.869 -0.1671  0.2979 -0.1026
27101W        W46635   9.506  11.188   4.226  0.2105 -0.1328 -0.1233
27102W        W46636  12.499  16.634   3.876  0.0973  0.2519 -0.1709
27103W        W46637   3.483  16.222  15.870  0.1960 -0.3409 -0.0391
27104W        W46638   7.115  10.482  13.025  0.0316 -0.0248  0.0961
27105W        W46639  12.534   8.644   1.127 -0.0661  0.1059 -0.2309
27106W        W46640   6.474   5.587   1.292 -0.1510 -0.0394 -0.1765
27107W        W46641  12.701   4.551  12.929  0.2648  0.2184  0.0226
27108W        W46642   1.267   4.557   2.586 -0.0612 -0.0224 -0.2969
27109W        W46643  16.387   5.868  11.664 -0.4009  0.2289 -0.3335
27110W        W46644  11.684   8.017  15.330  0.1453 -0.2208  0.3242
27111W        W46645  10.719  13.463  13.301  0.4184 -0.2360 -0.1223
27112W        W46646   1.952   6.164  15.741  0.1727 -0.1642  0.1784
27113W        W46647  10.346  15.121   3.670  0.2455  0.1711 -0.1247
27114W        W46648   2.376   8.388  15.003 -0.2492 -0.0382  0.2493
27115W        W46649  12.532  10.394   0.833  0.4541  0.0676  0.0052
27116W        W46650  11.111  13.193   3.599  0.0917 -0.0076  0.2012
27117W        W46651  17.261  11.608  13.282 -0.0547  0.1276  0.2795
27118W        W46652   8.638  17.766  14.829  0.4316  0.2599  0.0773
27119W        W46653  15.240  16.986   1.666  0.0783 -0.0590 -0.0432
27120W        W46654  13.644   6.719  13.242 -0.0629 -0.0768 -0.2970
27121W        W46655  10.268  17.486   0.827 -0.0311 -0.1366  0.0178
27122W        W46656   4.317   9.126   2.107  0.0634 -0.0093 -0.1097
27123W        W46657   7.318   6.108   2.455 -0.3484 -0.0296  0.0670
27124W        W46658   1.095  13.365   4.663  0.0579  0.0097  0.1183
27125W        W46659   3.177   0.164   1.581 -0.1481  0.0624 -0.1095
27126W        W46660   2.992   6.774   0.654  0.0106  0.1624 -0.2102
27127W        W46661   6.027   9.722  13.215 -0.0500 -0.0639 -0.0509
27128W        W46662  16.724   8.310   0.324  0.1000  0.1413  0.0763
27129W        W46663   3.671  12.438  12.352  0.1033 -0.0323  0.0321
27130W        W46664   7.679   8.048   5.349 -0.1884  0.1063  0.0296
27131W        W46665   5.813  14.615   4.679 -0.0670  0.1544  0.1124
27132W        W46666   7.969  16.200   1.276  0.1459  0.0213  0.1808
27133W        W46667   8.609  11.851   0.134  0.0976  0.0622  0.2459
27134W        W46668   4.000   1.218  14.936 -0.0350 -0.1490 -0.3068
27135W        W46669   7.954  11.936   2.560 -0.2845  0.0725  0.3105
27136W        W46670  10.670   5.065   0.655  0.1251 -0.0094 -0.0075
27137W        W46671  14.321   1.935   4.039 -0.1478 -0.0617 -0.0225
27138W        W46672  14.491   0.420   3.710  0.1381 -0.0003 -0.1295
27139W        W46673   8.666   5.361  13.657  0.0937 -0.0523  0.0384
27140W        W46674   1.326   1.353  12.480  0.0067  0.0154  0.0768
27141W        W46675   4.543   6.917   3.643 -0.1443 -0.0805  0.2388
27142W        W46676   1.208   1.899  11.849  0.0800 -0.2631 -0.3499
27143W        W46677   7.698   1.644  12.703 -0.0167  0.2045 -0.0075
27144W        W46678  17.177  10.423   5.101 -0.0628 -0.1347  0.0890
27145W        W46679  16.998   2.748  15.864  0.2161 -0.1136 -0.0134
27146W        W46680   1.075  12.711  12.106 -0.0199  0.1819  0.1671
27147W        W46681  15.365  18.079   1.739 -0.0814  0.2766  0.3443
27148W        W46682   0.889  17.189  14.079  0.0886  0.0633 -0.0217
27149W        W46683   3.841  16.717  15.696 -0.1613  0.2009 -0.0062
27150W        W46684  12.696   7.094  12.015  0.0240  0.2963  0.1295
27151W        W46685  14.091  12.945   1.963 -0.2408  0.0305 -0.1434
27152W        W46686  11.827   5.076   2.943 -0.4050 -0.1087  0.1514
27153W        W46687  15.556  15.474  14.520  0.2085 -0.1663  0.1183
27154W        W46688  15.370  14.609   5.286  0.2531 -0.0165  0.0765
27155W        W46689  10.896   7.355   0.681  0.0413  0.1332 -0.0165
27156W        W46690   0.576  17.340  12.002  0.1095  0.0986 -0.0104
27157W        W46691  14.885  14.860   4.103  0.0135  0.2321  0.2543
27158W        W46692   6.019   0.756  11.220  0.1100 -0.1345  0.1106
27159W        W46693  15.702   2.200   2.898 -0.3488  0.1824  0.0086
27160W        W46694  13.198   2.157  13.172 -0.0988 -0.2220  0.1609
27161W        W46695   5.010  18.041  13.051 -0.0679 -0.0480 -0.0771
27162W        W46696   9.511   0.145  15.634  0.2062 -0.0031 -0.2064
27163W        W46697  11.314   8.918   1.890  0.0534  0.2334  0.2323
27164W        W46698  17.614  11.712  12.074  0.1058 -0.2341 -0.0069
27165W        W46699   2.106  14.312   5.419  0.2538 -0.2074  0.1526
27166W        W46700  16.110   6.577   4.519  0.1927 -0.1759 -0.0007
27167W        W46701   7.178   8.822  12.345  0.2735 -0.4899 -0.0289
27168W        W46702   1.689  12.317  12.602 -0.1241 -0.2182 -0.0626
27169W        W46703  16.800   6.919   3.885  0.0762 -0.1231  0.1135
27170W        W46704   5.172  16.059   2.734  0.0247  0.0714  0.1017
27171W        W46705  13.177  16.034   3.385  0.2428 -0.0775 -0.2636
27172W        W46706  11.498  13.002  15.131  0.0167 -0.2296 -0.0592
27173W        W46707   8.728   2.324  11.518  0.0153  0.2250 -0.0832
27174W        W46708   9.804  17.872   0.671 -0.1800 -0.3163  0.0185
27175W        W46709   6.598   0.445  12.327 -0.0648 -0.0686  0.1230
27176W        W46710   7.347   5.965  13.876  0.0405 -0.4243 -0.2357
27177W        W46711  12.370   4.604  15.839 -0.0251 -0.1159  0.2293
27178W        W46712   4.846   5.924  12.923 -0.2545  0.1387  0.3013
27179W        W46713  17.586   5.345  15.211 -0.1918 -0.2041  0.3730
27180W        W46714   0.217   7.507   0.670  0.2605  0.1700  0.1447
27181W        W46715   2.229  11.003   0.951 -0.1417  0.0626  0.1341
27182W        W46716   7.760   0.528  16.021 -0.1073 -0.0128 -0.0165
27183W        W46717  10.935  12.415   0.993 -0.1631 -0.2224 -0.1621
27184W        W46718  17.466   0.605   0.461  0.1853  0.1267 -0.3578
27185W        W46719  12.605  13.425   0.665  0.0845 -0.0513  0.2482
27186W        W46720  15.634  10.116  15.290 -0.1508  0.0548 -0.0324
27187W        W46721   2.066  12.937  15.092 -0.1300 -0.3233  0.0499
27188W        W46722   0.296   3.424  13.282 -0.0710 -0.1911 -0.0790
27189W        W46723  12.824   9.346   3.132 -0.2147 -0.1558  0.0578
27190W        W46724   0.216  11.459   3.732 -0.1217  0.0671 -0.0040
27191W        W46725  17.113  16.086   2.058 -0.0594 -0.0161  0.0260
27192W        W46726   5.728   6.922   2.346 -0.1753 -0.2035  0.0713
27193W        W46727   6.779  14.108  14.016 -0.0954 -0.1645 -0.3741
27194W        W46728   0.193   2.555   1.147  0.1745 -0.2246 -0.0082
27195W        W46729  12.634   1.902  11.965 -0.2970  0.1730  0.0606
27196W        W46730  13.599  14.010   3.326 -0.0558  0.0539 -0.1507
27197W        W46731  17.118   8.746   2.096  0.1349  0.3098  0.2638
27198W        W46732   2.351   2.761   4.945 -0.0089  0.1627  0.0490
27199W        W46733   0.189   5.988  13.015 -0.2939  0.4186 -0.0599
27200W        W46734   8.412   8.281   2.315  0.0750 -0.0617  0.0699
27201W        W46735  16.072   9.642  15.255  0.2522 -0.0343  0.3023
27202W        W46736  14.256  11.565   2.445  0.1874 -0.1598  0.5243
27203W        W46737  10.692  10.016   1.627 -0.1267  0.2091  0.1787
27204W        W46738   7.531   4.519   0.810 -0.0813  0.0047  0.1699
27205W        W46739   7.731   3.076  10.642  0.0504 -0.0224  0.2060
27206W        W46740   0.899   4.931   4.565 -0.1474  0.0813  0.1288
27207W        W46741   4.562  16.060   4.725  0.1758  0.2628  0.2322
27208W        W46742   1.978  15.334   1.354  0.3491 -0.0856  0.0120
27209W        W46743  14.659   6.481  15.414  0.2021  0.1396 -0.0367
27210W        W46744   2.330   4.296   0.639  0.0328 -0.3633 -0.0464
27211W        W46745   5.478  16.647  11.896 -0.1787  0.0388 -0.1689
27212W        W46746   9.844  16.017   4.184 -0.1335 -0.1892 -0.0823
27213W        W46747   2.681  14.851  13.390  0.1148 -0.3453  0.1124
27214W        W46748   5.696   1.617  13.960  0.0326 -0.2200 -0.0546
27215W        W46749   7.171   2.628   0.348  0.1571 -0.1445  0.0511
27216W        W46750  11.297  14.897   3.886  0.0272  0.0816 -0.0917
27217W        W46751  11.207  14.590  15.839  0.4296  0.0176  0.3599
27218W        W46752  13.389  14.577   4.285 -0.2845 -0.0446 -0.0036
27219W        W46753   5.401   0.940  12.194  0.1015 -0.0646  0.1171
27220W        W46754   9.090   5.534   4.030 -0.1312 -0.1560 -0.1448
27221W        W46755  16.001  18.119  16.036  0.1404  0.0879  0.0254
27222W        W46756  15.426  13.624   2.477  0.2730  0.1487  0.1366
27223W        W46757  10.782  17.909  13.647  0.0529  0.0115 -0.0693
27224W        W46758   7.194  13.909  15.905  0.1839  0.2231 -0.1048
27225W        W46759  11.643   5.075  11.457  0.1781  0.2221 -0.0767
27226W        W46760  17.521  17.925  14.094  0.0970  0.1839 -0.1152
27227W        W46761   4.502   0.381  11.978  0.2110  0.0028  0.2085
27228W        W46762   6.219  10.412   3.801  0.0970 -0.2034 -0.1391
27229W        W46763  14.362   6.718   3.006 -0.0280 -0.0013  0.1776
27230W        W46764  11.536  14.111  12.272 -0.1588 -0.0339 -0.0894
27231W        W46765   9.505   6.147  15.768 -0.2533 -0.3629  0.5044
27232W        W46766   3.210   5.514   1.031 -0.0389 -0.1007  0.3353
27233W        W46767   9.673   0.890  14.607  0.0578  0.0685  0.1381
27234W        W46768   3.602  13.168   3.190  0.0609 -0.1172  0.1540
27235W        W46769   8.133   4.609   2.849 -0.0433  0.0542  0.0864
27236W        W46770   5.971  15.590   2.646 -0.0125 -0.0570  0.3226
27237W        W46771   7.699  14.943   4.564  0.0512 -0.1530 -0.0317
27238W        W46772  16.212   0.501  14.326 -0.0537  0.2540  0.0914
27239W        W46773  17.669  11.320  13.538  0.3683  0.0286  0.2034
27240W        W46774  14.094  10.108   2.182 -0.0478 -0.0237  0.0869
27241W        W46775   9.274  15.868   3.982 -0.1027 -0.3002  0.2426
27242W        W46776  11.574  12.707   4.494 -0.0358  0.0646  0.1342
27243W        W46777  11.358   1.531  14.879  0.2608 -0.4553 -0.0131
27244W        W46778   6.106   3.417   1.760 -0.1979  0.1974  0.3390
27245W        W46779   9.857   8.609   2.862  0.0750  0.1071 -0.0031
27246W        W46780   1.086   8.003   1.463 -0.2552 -0.1854  0.0159
27247W        W46781   1.781   7.803  16.005 -0.0223 -0.0111  0.1565
27248W        W46782   3.320   4.108   0.966 -0.0891  0.2036 -0.1014
27249W        W46783  14.946   2.380  13.114 -0.0549 -0.2934 -0.1140
27250W        W46784  12.571  17.218  15.434 -0.0083 -0.2756 -0.1342
27251W        W46785   0.710   4.748  12.193 -0.0243 -0.0769  0.0386
27252W        W46786   3.094   3.562   2.273 -0.2049 -0.1268 -0.0868
27253W        W46787   5.268  12.704   1.069  0.2124  0.1118  0.1040
27254W        W46788   1.032  14.499   4.869  0.0865 -0.0413  0.2744
27255W        W46789   6.936  17.470  13.651 -0.1643  0.0812 -0.3727
27256W        W46790  16.935  13.426   4.726 -0.1865  0.0444  0.1508
27257W        W46791   0.681   1.654  15.974 -0.1782 -0.0956  0.1861
27258W        W46792   2.864   0.623  13.471  0.0677 -0.2696  0.1656
27259W        W46793  10.596  16.752  15.811 -0.0204  0.0071 -0.0461
27260W        W46794  15.858  12.109   4.392 -0.1796 -0.1249 -0.0215
27261W        W46795   0.770   4.740  11.309 -0.0986 -0.1243 -0.0492
27262W        W46796   2.152   6.090   0.524 -0.0443  0.2763 -0.1872
27263W        W46797  11.546  10.410  13.999 -0.1463  0.0558  0.2545
27264W        W46798   1.248  14.863   4.550  0.0104  0.0761 -0.1102
27265W        W46799   9.277   8.337  11.586  0.1954 -0.1095 -0.1325
27266W        W46800  12.534   3.259   0.750  0.0550 -0.3511  0.0669
27267W        W46801  14.793   4.567  14.207 -0.1251 -0.1787  0.2972
27268W        W46802  13.275  12.440  12.427  0.1368 -0.3442 -0.0745
27269W        W46803  16.530   5.983   4.418 -0.0312 -0.2040  0.1915
27270W        W46804  16.381   5.240   3.742  0.1544  0.0439  0.4044
27271W        W46805   6.836  15.789   0.262  0.1781 -0.2850  0.2480
27272W        W46806   8.041   8.161   0.259  0.0636 -0.0193  0.2767
27273W        W46807  17.234   1.614   1.695  0.1515 -0.1203  0.2995
27274W        W46808  11.235   7.769   0.041 -0.2771  0.1896 -0.2076
27275W        W46809   6.309   3.957  14.521 -0.1715  0.0483 -0.2341
27276W        W46810   9.477  17.587   4.431  0.1079  0.0533  0.2477
27277W        W46811   5.689   8.842   1.639  0.0240 -0.4106  0.0325
27278W        W46812  11.206  18.033  11.609  0.0736  0.2403  0.0226
27279W        W46813  15.293  10.395  12.186  0.3888 -0.1204  0.1495
27280W        W46814  17.541  13.375  12.373  0.3250 -0.2836 -0.0440
27281W        W46815  12.240   8.413  14.239  0.1119 -0.0053  0.0832
27282W        W46816  15.231   7.434  11.602 -0.1263 -0.0420  0.3252
27283W        W46817  17.625   9.836   3.032 -0.0332 -0.3647 -0.1495
27284W        W46818  12.261   7.104   2.088 -0.0703 -0.2055 -0.1352
27285W        W46819   1.886   2.900  13.581 -0.1404  0.2679 -0.0392
27286W        W46820   1.332   2.362   2.080  0.0380 -0.1655  0.0645
27287W        W46821  17.035   3.783   4.739  0.0008 -0.1977 -0.0406
27288W        W46822  13.075  17.852  14.102 -0.2263  0.0217  0.1998
27289W        W46823   9.255   7.384   1.766 -0.2671 -0.1426  0.2494
27290W        W46824   6.250   6.891   2.303 -0.0226 -0.2798  0.0960
27291W        W46825   2.822   1.429  15.175  0.2850 -0.3296  0.4367
27292W        W46826   8.621  12.088   2.088  0.0417  0.1072 -0.0261
27293W        W46827   3.365   9.494  10.988 -0.1050  0.0333  0.4124
27294W        W46828  12.728  16.252   2.021  0.0305  0.1974  0.0854
27295W        W46829  15.832  12.314  12.022 -0.0055 -0.0271 -0.0741
27296W        W46830   8.168  15.995  11.583 -0.3025 -0.1798  0.0278
27297W        W46831   1.215   6.890  13.541 -0.2143  0.1055  0.1435
27298W        W46832  11.051  17.007   4.343 -0.1405 -0.0766 -0.0084
27299W        W46833   3.467   8.006  15.176  0.1783  0.0788 -0.2227
27300W        W46834   9.571  12.582  13.888  0.0579 -0.2280 -0.1785
27301W        W46835   9.149  18.012   3.214  0.1918  0.1090 -0.0755
27302W        W46836   6.678   3.455   2.366 -0.1175 -0.0792  0.3004
27303W        W46837  14.994   2.199   5.280  0.0387  0.1240  0.0574
27304W        W46838   4.939   8.767   1.478  0.2370  0.0607 -0.1634
27305W        W46839   3.873   1.432  15.411  0.0834  0.3302  0.1363
27306W        W46840  10.214  10.440   1.775  0.1957  0.0646  0.0558
27307W        W46841  11.787  12.140   0.236 -0.3092 -0.3863  0.0558
27308W        W46842  14.673   3.332  14.874 -0.1351 -0.3038 -0.2020
27309W        W46843  12.315   3.735   4.410 -0.3859 -0.0788 -0.0485
27310W        W46844   5.931  16.286   2.150 -0.1878  0.0890  0.0913
27311W        W46845   5.547  12.758   0.062  0.3458  0.2607  0.0730
27312W        W46846   2.721  15.164  14.406 -0.0842 -0.3410  0.3565
27313W        W46847  16.398  11.552   1.031 -0.0689  0.0988  0.1496
27314W        W46848  15.234  17.764   1.341 -0.1768  0.1634 -0.0947
27315W        W46849   6.602   5.923   4.393 -0.1959  0.0651  0.1058
27316W        W46850   0.962  16.862  15.977  0.0035  0.1934  0.3202
27317W        W46851  11.072  11.385   4.642  0.1031  0.0461 -0.0414
27318W        W46852   2.013   6.703   2.960 -0.1825  0.1294 -0.0064
27319W        W46853  10.898   9.486  11.090  0.3566  0.2946  0.1127
27320W        W46854   8.182   1.788   0.092 -0.1356 -0.2458 -0.0593
27321W        W46855   0.426   3.110   4.357 -0.0795  0.1994 -0.2588
27322W        W46856  17.852   6.305   0.099  0.0994  0.0460 -0.0241
27323W        W46857  18.104   6.626   0.390 -0.0002 -0.1737 -0.0131
27324W        W46858  15.545   9.127   4.219 -0.1192 -0.1299 -0.3323
27325W        W46859  17.048   7.522   4.486  0.0024 -0.0690  0.0460
27326W        W46860   9.563  13.233  11.979 -0.1251  0.2729  0.1759
27327W        W46861   6.624  15.330  12.277  0.2766  0.2383  0.0870
27328W        W46862   9.246   3.973  15.141 -0.3601  0.2875 -0.1372
27329W        W46863   8.214   7.296   4.332  0.0400 -0.1561  0.0174
27330W        W46864   4.532  15.431  13.570 -0.0328 -0.2580  0.2842
27331W        W46865   9.356   3.531   2.528  0.1488 -0.0554 -0.3326
27332W        W46866   1.847  13.758  15.513  0.0636 -0.1821  0.0060
27333W        W46867  12.943   3.054   4.418  0.1500 -0.0162 -0.3200
27334W        W46868   1.695   3.655   2.202  0.1128 -0.0650  0.3230
27335W        W46869   2.462  15.357  13.218 -0.3478  0.1229 -0.2221
27336W        W46870   7.562   9.336  14.385 -0.3342  0.0516 -0.0432
27337W        W46871   8.513   6.430   0.166  0.0623 -0.2275 -0.3332
27338W        W46872  14.390  14.189   4.432 -0.0412 -0.1128  0.4238
27339W        W46873   2.798   6.103  11.464 -0.2911 -0.0325 -0.2323
27340W        W46874  11.917   0.209  14.104 -0.1397  0.0884  0.1184
27341W        W46875   1.472  16.350   2.421 -0.0976  0.0398 -0.2521
27342W        W46876   6.661   5.282   3.056 -0.0387  0.0395  0.0164
27343W        W46877   0.901   8.150   3.589 -0.0793 -0.0512  0.1131
27344W        W46878   4.862   4.952  15.252 -0.1276  0.2586  0.2098
27345W        W46879   2.043   9.375   4.333 -0.0887 -0.3497 -0.1004
27346W        W46880   1.632   9.205  14.078  0.2103 -0.2009 -0.0387
27347W        W46881  16.166  17.835  13.095  0.0766  0.1971  0.0725
27348W        W46882   0.395   5.971  11.664  0.2085  0.0879 -0.1712
27349W        W46883   6.594  14.301   1.099 -0.1648  0.0152 -0.3058
27350W        W46884  13.752  16.770  12.711  0.3991 -0.2925 -0.3725
27351W        W46885  15.447  10.098  11.510  0.1535  0.0498 -0.0190
27352W        W46886  12.903   7.992  10.777  0.0817  0.2316  0.0349
27353W        W46887  15.388  14.854   4.847  0.0067 -0.1478 -0.1668
27354W        W46888   8.481  12.179   0.589  0.2668  0.0874  0.2207
27355W        W46889  11.876   9.950   3.516 -0.4092 -0.0405 -0.1319
27356W        W46890  16.479   9.746  14.963 -0.0461  0.0130 -0.1374
27357W        W46891  12.271   6.808   4.037 -0.1164  0.2775 -0.1312
27358W        W46892  17.453  14.807  14.745 -0.0330 -0.2928 -0.1215
27359W        W46893   2.945   8.428  14.122  0.0722  0.0811  0.0542
27360W        W46894   0.973   1.262  13.883 -0.0041 -0.0448 -0.0119
27361W        W46895   3.713  10.346  10.898 -0.0344  0.1137 -0.2232
27362W        W46896   8.824  13.870   0.583  0.3257  0.0990  0.2107
27363W        W46897   2.219   5.115   4.014 -0.0640 -0.3307 -0.2937
27364W        W46898   3.881  13.511  13.847 -0.0115 -0.1804  0.3925
27365W        W46899   0.869  13.519   1.267  0.3260  0.0993 -0.0545
27366W        W46900   5.100   5.771   0.088 -0.0165 -0.1429 -0.1136
27367W        W46901  11.490  11.815  16.029 -0.0515 -0.4175  0.0186
27368W        W46902  10.436  17.340   2.589  0.1340  0.0958 -0.2928
27369W        W46903  16.560  16.465  15.722 -0.0872  0.1131 -0.3266
27370W        W46904   6.033   8.962  15.391  0.1155  0.0635 -0.2216
27371W        W46905   7.745   6.614  11.917  0.3810 -0.0165  0.1151
27372W        W46906  10.660   9.704   0.693 -0.0140 -0.2013  0.0645
27373W        W46907   6.977   7.048  10.982 -0.1765  0.1144  0.0855
27374W        W46908  14.172  18.075  13.923  0.1353 -0.0431 -0.1610
27375W        W46909   3.539   5.399  11.825  0.1653  0.2457  0.2581
27376W        W46910   6.842  15.789  12.019  0.0503 -0.1552 -0.2154
27377W        W46911   9.964  10.100   2.079 -0.0033 -0.1594  0.2079
27378W        W46912  16.580  11.954  14.898 -0.1180 -0.0675 -0.3172
27379W        W46913  15.064  17.871  13.875 -0.1578 -0.0553  0.0566
27380W        W46914   9.863  15.023  14.924 -0.2303 -0.1062 -0.0498
27381W        W46915  15.732  13.891  13.949  0.2301 -0.4233  0.0638
27382W        W46916  18.056   8.884  12.706 -0.2761  0.0833  0.0462
27383W        W46917  13.140   5.295  12.967  0.0542  0.0105  0.0954
27384W        W46918   9.707  18.146  13.411 -0.3907 -0.2066  0.1609
27385W        W46919   6.725  14.968  14.157 -0.0782  0.1806  0.2275
27386W        W46920   1.853  10.843  13.853 -0.0616  0.1696  0.0702
27387W        W46921  15.594  15.227   2.182  0.0615  0.1200 -0.0485
27388W        W46922   5.694  12.175   2.700  0.1895  0.4179 -0.5284
27389W        W46923   8.711  11.831   3.212  0.0921  0.2265 -0.0876
27390W        W46924   9.533   0.212   4.199 -0.0248 -0.2029  0.1262
27391W        W46925   3.839   4.269  13.447  0.1958 -0.2519 -0.2624
27392W        W46926  17.919   4.052   2.916 -0.2467 -0.0262  0.1159
27393W        W46927   5.901   1.271  15.587 -0.1052  0.0969 -0.0073
27394W        W46928   3.863  18.174  15.311 -0.3019  0.2263 -0.2935
27395W        W46929   8.414   0.067  15.461 -0.0024  0.2681 -0.2696
27396W        W46930  17.431  15.218   1.730  0.1167  0.0369  0.2003
27397W        W46931  16.702   2.730   4.079 -0.1831 -0.0105 -0.0882
27398W        W46932  17.145  16.128  14.917  0.0373  0.1797 -0.1387
27399W        W46933   6.622  11.161  11.821  0.2522  0.0786  0.0970
27400W        W46934  17.648  10.535  10.865  0.0271 -0.1200  0.0516
27401W        W46935   8.829  12.132   4.181  0.0614 -0.0677  0.0311
27402W        W46936  10.230   0.531   4.936  0.2219  0.2234 -0.1390
27403W        W46937  16.947   2.015   2.978  0.2566 -0.1710  0.0657
27404W        W46938   2.723   8.648   2.962  0.1612 -0.0390 -0.1690
27405W        W46939  12.431   8.328   1.540 -0.2003  0.0526  0.1226
27406W        W46940   1.403  10.895   0.796 -0.1636  0.1120 -0.3699
27407W        W46941  15.864  12.628   4.186 -0.1869 -0.3794 -0.0022
27408W        W46942   4.441  18.110   1.090 -0.0618 -0.1174  0.2640
27409W        W46943   2.846  18.081   3.186 -0.1739 -0.1890  0.0711
27410W        W46944  15.724   5.747  13.192 -0.1519 -0.1587  0.1229
27411W        W46945   6.146   9.482   3.304  0.1264 -0.0805 -0.0495
27412W        W46946   0.441  14.548  14.415 -0.1714 -0.2949  0.1840
27413W        W46947   4.622  10.071  14.980 -0.2511 -0.1913 -0.0863
27414W        W46948  11.687   6.427   2.125  0.2107  0.0449 -0.0180
27415W        W46949  10.160  11.093   0.526  0.0690  0.0016 -0.0088
27416W        W46950   4.141  18.135  11.961 -0.1228  0.0676 -0.1214
27417W        W46951   2.336   6.373  11.435  0.4840  0.0837  0.0257
27418W        W46952  14.636   1.883  14.963  0.0417 -0.0670  0.1737
27419W        W46953  11.345  13.769   0.244 -0.0147  0.0855 -0.0173
27420W        W46954   9.813   0.829   0.089 -0.2568  0.0984 -0.1281
27421W        W46955   3.951   2.037  14.322  0.0233  0.2334 -0.0532
27422W        W46956   2.540   5.002   2.572 -0.2333 -0.3838  0.1990
27423W        W46957  17.291  12.626   1.754 -0.3804  0.1964  0.2037
27424W        W46958  14.022  10.574  15.015  0.0253  0.1678  0.1136
27425W        W46959   9.941   1.487   3.513  0.1910 -0.1857  0.0933
27426W        W46960  16.439   5.738   4.836 -0.2381 -0.1932 -0.1221
27427W        W46961   4.677  16.443   3.889  0.2095  0.2041  0.0570
27428W        W46962  12.148  17.705  12.968 -0.0723  0.0999  0.0140
27429W        W46963   1.836   5.515  13.982  0.2761  0.0754 -0.0509
27430W        W46964  15.882   1.225  15.844 -0.0532  0.1129  0.0487
27431W        W46965   2.471   1.461  11.652  0.0732  0.2315  0.0136
27432W        W46966   5.775   0.511   3.236 -0.2889 -0.0825 -0.3961
27433W        W46967   0.536   2.404   1.623  0.0223  0.1509  0.0049
27434W        W46968   9.517  14.615  15.064 -0.1224 -0.0404 -0.0425
27435W        W46969   0.837  16.077   2.990  0.2785 -0.2385 -0.0538
27436W        W46970   4.187  10.647  11.904  0.2201  0.0262 -0.2626
27437W        W46971   9.299   7.055  13.296  0.1510  0.3214  0.0297
27438W        W46972  11.008  13.858  13.618  0.3263 -0.0686 -0.2460
27439W        W46973  12.840   6.874   4.135 -0.0327 -0.2913  0.3081
27440W        W46974  15.128  16.708  14.474 -0.3132 -0.1599 -0.0887
27441W        W46975  17.854  17.645  13.246 -0.2896  0.2817  0.2373
27442W        W46976  10.634  16.226   1.542 -0.0264  0.1794 -0.2376
27443W        W46977  16.156   6.957   0.481 -0.1248 -0.0257 -0.1102
27444W        W46978   0.581  14.745   0.516 -0.1153  0.1207  0.1574
27445W        W46979   1.800  18.101   2.152  0.1220  0.3424  0.0558
27446W        W46980  13.350  14.146   2.920  0.0728  0.1757  0.3114
27447W        W46981  14.811  15.500   0.511 -0.1166  0.2275  0.4759
27448W        W46982   5.788  16.293   0.734  0.0655 -0.2195  0.1206
27449W        W46983  16.676   2.427   3.092  0.0694  0.3088  0.1268
27450W        W46984  11.151  16.223   3.751  0.1380  0.2539  0.0899
27451W        W46985   2.440   4.687   3.771  0.0941  0.0857 -0.0221
27452W        W46986   8.637   1.537  15.290  0.1396 -0.2316  0.1309
27453W        W46987   6.619   7.357  12.254  0.1636  0.0068  0.0812
27454W        W46988  13.247  15.833   4.746 -0.0696 -0.0569 -0.2479
27455W        W46989  17.895   2.471   1.083 -0.3150 -0.0787 -0.0822
27456W        W46990   8.920   4.267   4.199  0.2378 -0.0110  0.0352
27457W        W46991   6.628   0.195   2.893  0.1246 -0.2469 -0.3531
27458W        W46992   2.463  17.089   1.063 -0.0083  0.0170  0.3460
27459W        W46993   8.369  13.370  12.564  0.0702  0.0975 -0.1533
27460W        W46994   2.874   3.772  13.713  0.1612  0.0423  0.1126
27461W        W46995  14.657  16.151  13.713  0.0797  0.0954  0.2278
27462W        W46996   0.991  13.813   4.438 -0.0774 -0.2838  0.0133
27463W        W46997  17.726   9.353  11.765 -0.3214 -0.1055 -0.3220
27464W        W46998   7.258  14.343  13.233  0.0193  0.1305  0.0537
27465W        W46999  11.664  17.044  13.320  0.4198 -0.0372  0.0755
27466W        W47000  13.996  12.987  14.421 -0.1730 -0.0890  0.4789
27467W        W47001   3.682  15.521  13.573 -0.0938  0.2729 -0.0636
27468W        W47002   2.169  16.430  13.154  0.3185  0.1504  0.1121
27469W        W47003  12.211  11.732  12.255  0.1169 -0.2028 -0.3384
27470W        W47004  10.910   0.081   4.133  0.0967  0.0081  0.0762
27471W        W47005  17.026  10.368   1.837 -0.2659 -0.0583 -0.1454
27472W        W47006  15.950   4.405  11.759  0.3859 -0.0631 -0.3338
27473W        W47007   3.919   1.420  13.203 -0.0214 -0.2043 -0.0026
27474W        W47008   2.163   7.116  13.561 -0.0878 -0.1240 -0.1874
27475W        W47009   4.986   9.480  10.577  0.0545  0.2746 -0.1195
27476W        W47010   3.613  15.481   2.866  0.0880 -0.1051 -0.3095
27477W        W47011  17.092  14.213   4.280  0.2308  0.0820 -0.2951
27478W        W47012   5.562   1.932  15.191 -0.0574  0.0471  0.0022
27479W        W47013   9.065   3.247   4.483 -0.1957 -0.4446 -0.0827
27480W        W47014   5.658   3.556  13.925 -0.1636  0.0903 -0.0200
27481W        W47015   6.823  12.104   1.184 -0.3246 -0.4488 -0.2233
27482W        W47016   3.163   7.565   5.137 -0.0113 -0.2415  0.1244
27483W        W47017   6.695  12.558   2.948  0.1262 -0.0657 -0.2423
27484W        W47018  12.280  14.745  14.538  0.2624 -0.1930 -0.0245
27485W        W47019   7.943   8.054  14.168 -0.2779 -0.2771 -0.0935
27486W        W47020   0.976   8.774   2.837 -0.5461 -0.0326 -0.1159
27487W        W47021  14.953   5.082  11.550 -0.0874  0.2103  0.0276
27488W        W47022   3.136  12.232   3.398 -0.0023 -0.0368 -0.1493
27489W        W47023  15.356   2.680   1.416  0.0620 -0.4022  0.0578
27490W        W47024  17.129   5.850   1.825 -0.1460  0.0838  0.1155
27491W        W47025  15.290   7.280   4.090  0.0755  0.3259 -0.2342
27492W        W47026   1.533  14.481  13.674 -0.0608  0.1558  0.1210
27493W        W47027   1.618   3.158   2.513 -0.0839  0.0068 -0.0767
27494W        W47028   6.271  10.797   1.748  0.0446  0.3405  0.1113
27495W        W47029  12.385  11.971  14.835  0.0929  0.3598  0.1655
27496W        W47030   4.058  13.467   3.126  0.1395 -0.1034 -0.1321
27497W        W47031   1.108  12.416  13.881  0.0018  0.0068 -0.3164
27498W        W47032  12.513   1.261  14.482  0.0931  0.1720 -0.1409
27499W        W47033  16.447   1.518  12.499 -0.1336 -0.1109  0.3214
27500W        W47034  17.044  11.255   0.708  0.0752  0.1051  0.0376
27501W        W47035   6.921   1.648  15.729 -0.2158 -0.2291 -0.1226
27502W        W47036   1.326   7.788  15.726  0.1336 -0.1615 -0.0731
27503W        W47037   3.030   7.531   4.663  0.0205 -0.3432 -0.2228
27504W        W47038   1.091   4.654  11.858  0.0088 -0.2049  0.0391
27505W        W47039  16.211   4.300   1.795  0.1634 -0.0517  0.0484
27506W        W47040   1.752   4.245   1.055 -0.0602  0.0269  0.2254
27507W        W47041  10.058   5.753   3.374 -0.1063  0.0383  0.1191
27508W        W47042  12.319  12.011   4.862  0.1234 -0.0903  0.1960
27509W        W47043  12.880  17.139   3.945 -0.2697 -0.2408  0.1567
27510W        W47044  11.547  17.822   1.529 -0.2660  0.1637  0.0562
27511W        W47045   6.199  13.693   5.217  0.1691 -0.2762  0.1142
27512W        W47046  13.490  11.714   0.823 -0.1635 -0.0602  0.0147
27513W        W47047   5.897   8.614  14.678 -0.1296 -0.1155  0.1367
27514W        W47048   3.738  12.859  11.692  0.0980  0.0565  0.1543
27515W        W47049   7.166   0.163   1.532 -0.0471 -0.1642  0.0457
27516W        W47050  16.632  16.896   1.534  0.4094  0.1542 -0.2088
27517W        W47051   3.879   5.165  14.363  0.0656 -0.0187 -0.2586
27518W        W47052  13.886  13.010  11.628  0.0795 -0.0075 -0.0514
27519W        W47053   1.784   2.166   4.376 -0.4489  0.2473  0.2305
27520W        W47054  14.798  12.203   2.440  0.1137 -0.0825  0.1116
27521W        W47055   5.864   6.047   1.985 -0.2164  0.2097 -0.2338
27522W        W47056   0.582   7.336   3.180 -0.0058  0.2248  0.4758
27523W        W47057   8.267  13.357  13.867 -0.0834 -0.0337 -0.0005
27524W        W47058   1.998  17.199  15.912 -0.0144 -0.1851  0.0463
27525W        W47059  17.947  17.790  15.444  0.0198 -0.1866 -0.0780
27526W        W47060  14.243   0.465   0.081 -0.0194  0.0485 -0.0124
27527W        W47061   9.708  17.767   1.561 -0.0956 -0.2771 -0.0086
27528W        W47062   6.162   2.529  15.709 -0.4177 -0.2504  0.0479
27529W        W47063   6.814  17.365   2.873 -0.0040  0.0948  0.1815
27530W        W47064   4.157   3.224  15.243  0.4332  0.1050 -0.2259
27531W        W47065  12.209  15.123   2.401 -0.0802 -0.0148  0.0978
27532W        W47066   5.710   5.710   0.915 -0.2278  0.2248 -0.2444
27533W        W47067  11.931   1.580  12.356 -0.0425  0.2617  0.3709
27534W        W47068   3.928  15.300   0.049  0.4770  0.0281  0.0923
27535W        W47069   8.419  10.083  14.273  0.1221  0.0179  0.0496
27536W        W47070   9.758  11.697  15.842  0.0770 -0.0085  0.1296
27537W        W47071  13.237  15.038   4.188 -0.1818 -0.0020 -0.1295
27538W        W47072   8.972  17.339   2.748  0.1744  0.0485 -0.1618
27539W        W47073   0.488   6.644   1.577 -0.2480 -0.1349  0.0973
27540W        W47074   6.093  11.469   1.736 -0.0214 -0.0825  0.1432
27541W        W47075   7.310   5.663   2.658 -0.1506  0.1829  0.0107
27542W        W47076  14.840   1.052  12.445 -0.2073 -0.0185  0.2885
27543W        W47077  16.835  12.362  15.032 -0.2611 -0.1999 -0.0370
27544W        W47078  11.223   0.712  15.671  0.0145 -0.0266  0.3368
27545W        W47079   8.217  18.159   2.247 -0.2819 -0.2992 -0.0671
27546W        W47080   4.906   2.900   3.263  0.2364 -0.0721  0.1720
27547W        W47081   6.502   5.144   1.624 -0.2584 -0.0213  0.0141
27548W        W47082  11.005  12.197   4.423 -0.3629  0.0536  0.2954
27549W        W47083  16.626  14.383   1.106  0.0235 -0.3206  0.2014
27550W        W47084  11.048   6.738  12.494 -0.4755 -0.0279 -0.0192
27551W        W47085   9.034   8.189   0.021  0.0344 -0.1107  0.1340
27552W        W47086  14.367   4.872   2.817  0.0797 -0.0081 -0.0947
27553W        W47087  12.228   4.976   2.639  0.2364 -0.2145 -0.0871
27554W        W47088   8.276  16.764   1.969  0.1093 -0.0725 -0.0164
27555W        W47089   5.814   4.164  15.455  0.0427 -0.2865  0.0262
27556W        W47090   5.510   3.812  15.627  0.2263 -0.1275  0.0472
27557W        W47091  14.503   3.879   4.020  0.1481 -0.1124  0.0278
27558W        W47092   7.055  12.632   3.661 -0.1045  0.0171 -0.2962
27559W        W47093   2.549  10.501   3.931 -0.0326  0.1078 -0.0717
27560W        W47094   4.314   1.700   3.164  0.1772 -0.2160 -0.1567
27561W        W47095   1.267  11.375   0.571  0.1832  0.0620 -0.2322
27562W        W47096  12.417  11.678  10.662 -0.0870  0.1800  0.0157
27563W        W47097   1.248   6.352   3.838  0.1257 -0.2300  0.3690
27564W        W47098   8.004  17.563   3.736 -0.0492  0.1018 -0.0681
27565W        W47099   5.612   3.076   5.235  0.0397 -0.1574 -0.1686
27566W        W47100   6.392   2.028   3.427  0.0638 -0.2801  0.1133
27567W        W47101  17.710   2.957   0.718  0.3499  0.0709  0.0483
27568W        W47102  15.307  11.659   1.054 -0.5293 -0.0531 -0.1062
27569W        W47103   1.630   3.899  15.760  0.1080  0.1505 -0.2752
27570W        W47104   2.874   3.594   3.054  0.0607  0.1397 -0.0058
27571W        W47105  18.070  11.311   4.542 -0.2964 -0.1523 -0.0754
27572W        W47106   1.041  13.283  15.973  0.0030 -0.1861 -0.1575
27573W        W47107  13.667  15.330   4.049  0.0021  0.1449  0.1928
27574W        W47108  16.929   7.775   1.559  0.0536  0.0140  0.0853
27575W        W47109  11.347   9.704  12.937  0.1992  0.2054  0.0019
27576W        W47110  12.595  14.401   1.673 -0.1631  0.0434  0.1000
27577W        W47111   8.275  11.764  14.647 -0.0985  0.2528  0.2695
27578W        W47112  14.575   5.525  13.473  0.1621  0.0476 -0.0682
27579W        W47113  12.415  13.919  15.592  0.0521  0.3035 -0.0002
27580W        W47114   1.870   2.788   1.751  0.1801 -0.1968  0.1414
27581W        W47115   1.727  13.171  14.764  0.0187 -0.0049 -0.1090
27582W        W47116  16.232   9.944   4.903 -0.1977 -0.0451  0.0137
27583W        W47117  18.083   5.373   2.561 -0.2881 -0.5018  0.1635
27584W        W47118   0.020   5.489  14.642 -0.1340 -0.3833 -0.0085
27585W        W47119   4.833  15.399  11.971  0.1352  0.0539 -0.0167
27586W        W47120  13.723   0.784   1.225 -0.1340 -0.1487 -0.2973
27587W        W47121   3.485   6.374  15.161 -0.2889  0.0298 -0.2455
27588W        W47122   8.007  17.616   0.981  0.2255  0.1105  0.2433
27589W        W47123   4.182   5.186   4.013  0.1458 -0.2208 -0.0757
27590W        W47124   2.902   4.904  13.659  0.0563 -0.2373 -0.0293
27591W        W47125   9.303   7.783  15.519  0.2757  0.3078 -0.2506
27592W        W47126  14.254   0.343  12.812  0.0224 -0.2385 -0.0678
27593W        W47127   2.361   0.900  12.762 -0.5354  0.1111  0.1885
27594W        W47128  17.496  17.766   1.589 -0.2169  0.1489  0.3478
27595W        W47129  12.225  17.490  15.933 -0.2688  0.1480  0.0363
27596W        W47130   4.703  11.917   2.681  0.0272 -0.1403 -0.1229
27597W        W47131  12.009  13.939  14.461 -0.1433 -0.2878  0.0986
27598W        W47132   0.493   9.110   0.177 -0.1517  0.0667  0.2452
27599W        W47133  12.139   1.368  15.915  0.0360  0.2347  0.1795
27600W        W47134  15.155   4.809   1.711  0.1892  0.2083  0.4095
27601W        W47135   4.390   5.557   4.325 -0.1416  0.0326 -0.4031
27602W        W47136  18.016  17.836   1.286  0.2114  0.1087 -0.2123
27603W        W47137   8.652  10.745   3.215 -0.1620  0.0604  0.0397
27604W        W47138   8.335  16.355   1.537 -0.0611  0.1802 -0.2585
27605W        W47139   6.786   7.334   1.280  0.0916 -0.1426 -0.1289
27606W        W47140   3.192   8.002   2.192 -0.3505  0.1857 -0.2340
27607W        W47141  15.318   2.252  12.767 -0.1067 -0.1750  0.1344
27608W        W47142   6.801  17.203   1.213  0.1774  0.0854  0.0236
27609W        W47143  13.140   0.054  11.117 -0.3302  0.0640 -0.0602
27610W        W47144   7.681  14.066  12.447 -0.2587  0.0985  0.1042
27611W        W47145  11.047   4.377  14.891  0.0968 -0.2495 -0.0556
27612W        W47146   1.492  10.574  14.534  0.1443  0.1098  0.2199
27613W        W47147   9.823   5.019  13.531  0.2337  0.0937  0.0201
27614W        W47148   3.574   1.075  11.378  0.3182 -0.1462 -0.0155
27615W        W47149  12.935  12.004  14.206 -0.1979 -0.0629  0.0432
27616W        W47150  10.477  14.283   4.390  0.3012  0.0867 -0.0891
27617W        W47151  12.705   4.603  11.911 -0.0240 -0.1701 -0.0693
27618W        W47152   0.464   4.851   1.339  0.1161 -0.0011  0.1346
27619W        W47153  15.437  17.972  11.148  0.0403  0.0841 -0.1088
27620W        W47154  17.154  15.556  15.840  0.0905 -0.1432 -0.1260
27621W        W47155   7.486  14.127  11.591  0.0478  0.2668  0.1355
27622W        W47156  11.473   4.405  15.618 -0.3882  0.0491  0.0084
27623W        W47157   7.953   3.087  13.700 -0.0520 -0.0923  0.0282
27624W        W47158  17.535  12.296   4.251 -0.1039 -0.0439  0.0115
27625W        W47159   4.458   7.217  12.103  0.1541  0.1545  0.0958
27626W        W47160   1.681   6.459   0.057  0.2553  0.1833  0.2865
27627W        W47161  18.125   5.885   1.574 -0.3627  0.2516  0.2032
27628W        W47162   3.454   0.216  15.630  0.0704  0.1007  0.1825
27629W        W47163  10.264  11.041  13.172  0.1752 -0.1779  0.0927
27630W        W47164  16.913  16.559   2.340  0.2313  0.0876  0.0360
27631W        W47165   5.550   4.035   1.660 -0.1789 -0.0125  0.0933
27632W        W47166  12.448  13.390  14.862  0.1231  0.1186  0.3501
27633W        W47167   7.298   7.020   1.645 -0.0507 -0.4647 -0.0690
27634W        W47168  14.680   3.511   3.534 -0.2176 -0.1626 -0.2275
27635W        W47169   5.997   9.834   4.629 -0.4077  0.0827  0.0369
27636W        W47170  11.817  16.646   3.363 -0.0726 -0.0383  0.2110
27637W        W47171   8.571   3.078   4.743  0.0036 -0.1490  0.2043
27638W        W47172   8.450  11.997  12.645 -0.1227  0.0859 -0.0741
27639W        W47173  11.514   6.849   4.625 -0.1969 -0.1976  0.0062
27640W        W47174   8.381  13.469  13.134 -0.0100  0.1303  0.5124
27641W        W47175   5.044   7.020   3.017 -0.1234 -0.0197  0.0144
27642W        W47176  14.484  11.280  12.911 -0.1267 -0.2661 -0.4950
27643W        W47177  11.851  13.412  11.418  0.2894  0.0859 -0.0635
27644W        W47178   7.203   6.082  12.865  0.0625  0.2442 -0.0042
27645W        W47179   3.664  18.068   1.117  0.0001 -0.0715 -0.0175
27646W        W47180  13.046   5.296   3.028  0.0218 -0.0829 -0.1239
27647W        W47181  14.840  17.416  13.980  0.2365  0.1001  0.1398
27648W        W47182   8.143   1.799   5.430 -0.5455 -0.1038 -0.0279
27649W        W47183   0.262  10.334   1.504 -0.0689  0.1192 -0.0237
27650W        W47184   6.520   1.702  15.076 -0.1032  0.0911  0.0197
27651W        W47185  13.971   9.176   4.987 -0.0937 -0.0437  0.0710
27652W        W47186  11.708  10.473   0.301 -0.2963  0.1089 -0.3858
27653W        W47187   4.881   1.046   1.555  0.1079 -0.1854 -0.1728
27654W        W47188  17.523   2.319   1.640  0.2300  0.0689  0.0706
27655W        W47189   5.012  11.702   3.059  0.1566  0.1010 -0.1918
27656W        W47190   1.468   2.125   0.049  0.0048 -0.2192 -0.1274
27657W        W47191   4.058   0.870  10.366  0.2254  0.0841 -0.3682
27658W        W47192  11.933  10.435   2.076  0.0117 -0.2209 -0.0928
27659W        W47193  11.316   6.559  13.440 -0.1827 -0.0610  0.3261
27660W        W47194  17.463   9.081  12.805  0.1134  0.1502  0.1619
27661W        W47195  11.711   9.306  13.018 -0.2184  0.3136  0.0439
27662W        W47196  12.660  14.418  13.973 -0.1888 -0.0743 -0.0197
27663W        W47197  11.833  10.233   4.686  0.0936 -0.3499  0.0442
27664W        W47198   1.297   9.399  12.974 -0.1308  0.0088 -0.1815
27665W        W47199   4.198   9.315  11.508 -0.1916 -0.3239 -0.2815
27666W        W47200   8.631  17.159   2.421 -0.0807 -0.1714  0.0688
27667W        W47201  17.837  13.271   2.975  0.2696 -0.0995  0.3866
27668W        W47202  16.472  15.899   3.545 -0.0080  0.0245 -0.0999
27669W        W47203  11.004  17.117   1.921  0.0148 -0.2416 -0.0718
27670W        W47204  14.924  10.427  13.061 -0.2589 -0.1223 -0.2204
27671W        W47205   3.920   0.171   2.433 -0.0191  0.0230  0.3758
27672W        W47206   3.466   6.633  13.211 -0.0441 -0.0122  0.3374
27673W        W47207  17.868   2.558   4.210 -0.2257 -0.2616  0.3729
27674W        W47208  14.059   4.020   3.206  0.2474  0.2612  0.0519
27675W        W47209   6.538  17.049   2.512 -0.2244  0.2650  0.0951
27676W        W47210  16.646  16.235  13.200 -0.2181  0.1622 -0.2583
27677W        W47211  10.151   6.781  11.258  0.1910 -0.1535  0.1798
27678W        W47212   4.387  13.136  11.570 -0.0970  0.0839 -0.2046
27679W        W47213   0.524   2.779  15.002  0.1796 -0.0019  0.1646
27680W        W47214   0.701   1.167  11.082  0.0662  0.0391 -0.1318
27681W        W47215  14.173  12.170   3.746 -0.1338  0.1880  0.3253
27682W        W47216  17.064  11.432   5.861 -0.0891 -0.1240  0.0863
27683W        W47217   8.691   4.414  12.942 -0.0151 -0.2319  0.2514
27684W        W47218   6.827  16.259  16.012  0.0599  0.1611 -0.2959
27685W        W47219  13.658   3.541   0.220 -0.0587  0.1213  0.3902
27686W        W47220  14.416  14.528  15.884  0.1649 -0.0788  0.2171
27687W        W47221  17.014   9.366   4.560 -0.0599 -0.0914  0.0458
27688W        W47222   8.160   7.362   3.270  0.2960 -0.1740  0.0544
27689W        W47223  17.200  10.166  13.160 -0.1482  0.1517  0.0495
27690W        W47224   7.402   9.301   3.253 -0.0653 -0.2095  0.2364
27691W        W47225  15.280  10.965  12.734 -0.0470 -0.0462 -0.1463
27692W        W47226   3.300  15.035   2.871 -0.0695 -0.1886 -0.0487
27693W        W47227   4.182   0.053   0.230  0.0160 -0.2666 -0.0646
27694W        W47228  12.271   5.730   0.417  0.0326  0.3283  0.0932
27695W        W47229  12.888  16.667  15.991  0.1330  0.1316 -0.3997
27696W        W47230   9.432  16.519   3.532  0.2077  0.1836  0.0928
27697W        W47231   5.620   8.608  15.713  0.1115  0.0166  0.4418
27698W        W47232  13.535  15.309   0.201  0.2088 -0.1510 -0.0983
27699W        W47233   5.765   4.846  13.021  0.1676  0.0096 -0.0760
27700W        W47234   7.186   3.444   2.607 -0.1879 -0.0662 -0.1348
27701W        W47235  16.476   1.903   4.940 -0.2247 -0.0215  0.1578
27702W        W47236   7.862   4.775   2.411  0.0321  0.0426  0.1471
27703W        W47237  14.466   1.262  13.790 -0.0497 -0.0607 -0.1256
27704W        W47238   7.414   6.220  14.597  0.0299  0.0321  0.4223
27705W        W47239   6.041   8.337  14.302  0.1029 -0.2137 -0.1115
27706W        W47240   2.532  14.780  15.652 -0.0006  0.0452  0.1073
27707W        W47241  10.041   5.944  13.108 -0.1221 -0.2941  0.1587
27708W        W47242   4.946   2.230  14.395 -0.1014  0.1568 -0.2082
27709W        W47243   7.567   2.289   0.617 -0.1240  0.0703  0.0143
27710W        W47244   9.608   5.902   0.643 -0.0058  0.2707 -0.0109
27711W        W47245  17.462   4.010  12.188  0.0078  0.1378  0.0134
27712W        W47246   1.999   3.149   2.795  0.1161 -0.1088  0.1257
27713W        W47247   7.810   3.133   0.672 -0.0129  0.0101  0.1921
27714W        W47248  16.055  15.283   5.124 -0.1141  0.2861  0.0312
27715W        W47249  13.136  10.007  14.535  0.1415 -0.0385  0.0467
27716W        W47250  17.902   4.348  15.075 -0.0635  0.1982  0.0850
27717W        W47251  10.047   8.878  14.609 -0.0175  0.1922 -0.0793
27718W        W47252   8.638  13.371   2.307  0.1787  0.1038 -0.0967
27719W        W47253  15.285   0.239   3.890  0.3149 -0.2943 -0.2246
27720W        W47254   4.948  12.620  12.868  0.1841 -0.2175  0.0122
27721W        W47255  14.054   2.138   2.763  0.2427 -0.0752  0.0643
27722W        W47256   4.194   6.981  15.462  0.1129 -0.1238  0.1998
27723W        W47257   9.764  15.848   1.601 -0.2393  0.0459 -0.1762
27724W        W47258  15.880   3.743   4.481 -0.2311 -0.2286 -0.0516
27725W        W47259   5.795  10.503  15.941 -0.0761  0.1959 -0.0329
27726W        W47260   0.058   5.810   2.747  0.2528  0.1121  0.0114
27727W        W47261  13.479  15.969  12.308 -0.0205 -0.1932  0.1143
27728W        W47262   0.505  11.572   2.367  0.1999  0.1234 -0.1450
27729W        W47263  12.965  15.910  11.593  0.0032  0.0352 -0.0509
27730W        W47264  18.175  10.725   0.082 -0.0880 -0.2748  0.3311
27731W        W47265   7.214   7.803  13.344  0.0462  0.3414  0.2515
27732W        W47266  11.916   1.718  10.647 -0.1791  0.0558  0.0679
27733W        W47267  13.938   8.728   2.243 -0.2588 -0.1165 -0.0613
27734W        W47268  16.328   9.488   2.072 -0.1144 -0.0149 -0.0714
27735W        W47269  15.890  11.629   1.075 -0.1615 -0.0444 -0.0990
27736W        W47270  10.466   3.487   0.320 -0.1554  0.2910  0.1200
27737W        W47271  14.860   8.983   4.332  0.2046  0.1238  0.1434
27738W        W47272  14.661   4.557  13.291 -0.1600 -0.2586 -0.3753
27739W        W47273  17.520  17.110  11.377 -0.1030  0.1274  0.1999
27740W        W47274   2.615   0.455   2.335 -0.2205  0.3147  0.0826
27741W        W47275  11.118  13.458  12.126  0.0667  0.0464  0.1936
27742W        W47276  17.787   2.674  12.326  0.2426 -0.0232 -0.2283
27743W        W47277  11.333   0.147   1.779 -0.0243 -0.0531 -0.1251
27744W        W47278  10.215   3.498   1.970 -0.0019 -0.0321  0.1424
27745W        W47279   5.526   1.555   1.071  0.1010  0.0860  0.3297
27746W        W47280  12.951   5.754   1.669  0.0098  0.0387 -0.0127
27747W        W47281   8.331  16.789   3.224  0.0463  0.1861 -0.0506
27748W        W47282  14.387   5.694   4.413 -0.1034 -0.1102 -0.3546
27749W        W47283  12.839  13.060  15.676 -0.0953  0.2201 -0.2650
27750W        W47284  13.131   6.154  14.665  0.2647  0.0267 -0.2640
27751W        W47285   1.424   6.723  12.216 -0.1543 -0.1233 -0.3851
27752W        W47286   0.900   1.484   3.859 -0.0661 -0.2155  0.1291
27753W        W47287  12.630   2.956  11.818  0.0739  0.1306 -0.0656
27754W        W47288   6.993   2.728   2.138 -0.0971 -0.0660  0.1169
27755W        W47289  17.944   1.969  14.383  0.0423  0.0828  0.3056
27756W        W47290  10.170  13.142  11.783 -0.0824 -0.1564 -0.1238
27757W        W47291  10.182   2.569   3.695 -0.0976  0.0140  0.0269
27758W        W47292   3.890  14.819  15.232 -0.2080  0.0228 -0.0257
27759W        W47293   5.845   2.237   2.464  0.1298  0.2368  0.1236
27760W        W47294   3.101  10.124   1.452 -0.0077 -0.2850 -0.1816
27761W        W47295   2.013   1.673  14.081  0.2702  0.4085  0.2177
27762W        W47296   5.257  16.970  14.100 -0.0840  0.1087  0.0097
27763W        W47297   9.625   0.686   4.307  0.3482  0.2017 -0.3503
27764W        W47298   9.926  15.866  14.243 -0.2007 -0.1644  0.1013
27765W        W47299   1.570  15.261  14.830  0.0236 -0.0108  0.1691
27766W        W47300  11.544   9.999   0.440  0.2401  0.0480 -0.0316
27767W        W47301  14.542   5.183  13.847  0.4537 -0.0327  0.2364
27768W        W47302   4.212  10.327  15.164  0.1065 -0.3425 -0.0952
27769W        W47303   8.395   2.294   1.514 -0.2834 -0.1472 -0.0624
27770W        W47304  15.013  10.203   2.417 -0.2742 -0.0866 -0.0300
27771W        W47305  15.037   8.281  11.849 -0.2639  0.2365 -0.0886
27772W        W47306   1.600   6.050  13.791 -0.2165  0.0485 -0.3449
27773W        W47307   5.817  13.912  14.819 -0.1087  0.0752 -0.0364
27774W        W47308  12.518   7.545   0.485 -0.0733  0.0954 -0.1503
27775W        W47309   2.428   9.687  13.255 -0.2056  0.0185 -0.0076
27776W        W47310   3.073  14.063   0.597  0.0558  0.2678  0.0353
27777W        W47311   9.466   0.851  12.835 -0.2306 -0.1672  0.1678
27778W        W47312  16.376   5.685   0.074  0.2600  0.3453 -0.0331
27779W        W47313   9.921  14.890  14.009  0.1023 -0.1002  0.2479
27780W        W47314   0.362   4.025   0.661 -0.2708  0.0097  0.1949
27781W        W47315  11.935   6.111  14.225 -0.0806 -0.0615  0.0473
27782W        W47316  12.104  12.991  12.498 -0.1262 -0.1031  0.2453
27783W        W47317   1.513   2.595   0.700 -0.3252 -0.0624 -0.0600
27784W        W47318   4.334   7.437  14.310 -0.2038  0.1377  0.1120
27785W        W47319  14.183   9.509   3.838  0.0475 -0.0485  0.0483
27786W        W47320  16.995  16.019  14.215 -0.0536 -0.0764  0.0829
27787W        W47321   2.103   8.246   4.600  0.0644  0.1591  0.0423
27788W        W47322  10.944   3.493   0.534  0.1694  0.0062 -0.1787
27789W        W47323  13.236  15.424   1.005 -0.1393 -0.3059  0.1054
27790W        W47324   9.155   2.747  10.871 -0.2371 -0.0140 -0.2062
27791W        W47325  15.856   7.522   3.414 -0.1884 -0.1502  0.0862
27792W        W47326  12.715   1.362   3.056 -0.3852  0.1720  0.0340
27793W        W47327  16.030   0.284   3.707 -0.1711 -0.1566  0.2147
27794W        W47328   1.073   8.854  15.185  0.0945 -0.4770  0.1716
27795W        W47329  16.993   8.355  13.372  0.1546 -0.3332 -0.2322
27796W        W47330   1.981  15.929  15.305 -0.0486 -0.1568 -0.0906
27797W        W47331   1.874   5.647  14.428 -0.0511 -0.1908 -0.2600
27798W        W47332   4.595   5.287   1.436 -0.2616  0.1087 -0.1854
27799W        W47333  13.840   6.653  15.100 -0.3242 -0.2369  0.0426
27800W        W47334  14.318  13.056  12.541 -0.4116  0.0472  0.2490
27801W        W47335   2.212   2.008   0.693  0.1357  0.0725  0.0696
27802W        W47336   0.400  11.120   2.139 -0.2805  0.0347 -0.2212
27803W        W47337  15.219  12.461   2.694 -0.2291 -0.0738 -0.0693
27804W        W47338  16.146  16.836   1.403 -0.0745  0.0305  0.0277
27805W        W47339  17.101   9.434   5.764 -0.0294  0.1985 -0.2053
27806W        W47340   0.957   0.018  11.821  0.0991 -0.0674 -0.1404
27807W        W47341   3.606  14.970  12.227 -0.1466  0.0346 -0.2014
27808W        W47342  12.225   5.274  12.658  0.1957 -0.0550  0.2401
27809W        W47343   7.009   1.037   0.218  0.2931  0.0866  0.0472
27810W        W47344   5.097   1.710  12.576 -0.2205 -0.0476  0.0046
27811W        W47345   0.717  11.087   1.604 -0.1355  0.1482 -0.1014
27812W        W47346  10.788   7.073   2.659 -0.1091 -0.1750  0.1469
27813W        W47347  14.045   2.376   2.318  0.1592 -0.1453  0.0450
27814W        W47348   6.634  13.010   2.797  0.2230  0.2454 -0.0044
27815W        W47349   7.309   2.131  15.022  0.0046 -0.2559 -0.2856
27816W        W47350  12.331   8.633   3.212  0.1348 -0.1564  0.0765
27817W        W47351   0.737   6.063   4.700  0.1809 -0.1870  0.0441
27818W        W47352  17.050   4.826   3.075 -0.2011 -0.1211  0.1519
27819W        W47353   7.707   2.531   2.578 -0.1909  0.1400  0.0422
27820W        W47354   4.881   7.337  15.768 -0.2712  0.2056 -0.2036
27821W        W47355   6.989   8.912   1.071  0.1958  0.0545  0.2895
27822W        W47356   8.651   0.668   4.098  0.1327  0.0136  0.0705
27823W        W47357  13.865   8.925   0.799 -0.2366  0.0745  0.0965
27824W        W47358  17.905   7.459   2.533 -0.2083  0.0848 -0.0656
27825W        W47359   8.275   5.999   2.695  0.1116  0.1965  0.2643
27826W        W47360   3.391  10.676  14.879  0.2883 -0.0408  0.2104
27827W        W47361  11.707  15.290   2.505 -0.0038  0.0281  0.1205
27828W        W47362   2.436   7.522  14.239 -0.1228 -0.2783  0.1353
27829W        W47363   8.251  17.497  14.976  0.2868  0.1484 -0.2297
27830W        W47364   0.856   6.918  11.702 -0.1933  0.0167  0.0575
27831W        W47365  10.011   7.205   3.517  0.1114 -0.1114  0.0194
27832W        W47366  10.121   2.203  14.150  0.1885  0.1271  0.1249
27833W        W47367  15.312  14.434   2.985 -0.0534 -0.0326 -0.0261
27834W        W47368  14.602  13.894   5.523  0.2650 -0.0817 -0.0574
27835W        W47369  13.535  12.959  14.773 -0.2391  0.2255  0.2209
27836W        W47370   8.941  16.730  13.380  0.0774 -0.1407  0.0479
27837W        W47371   2.817  15.321   2.164  0.3336 -0.1338 -0.0982
27838W        W47372   0.549  10.107   3.543 -0.0606 -0.0150 -0.0020
27839W        W47373   0.766   3.291   4.725  0.0270 -0.0654  0.1125
27840W        W47374  10.496   3.207  12.046 -0.1485  0.0975  0.0568
27841W        W47375  18.161  16.283   4.362 -0.1074 -0.0669  0.1890
27842W        W47376  10.254   1.090  14.349 -0.0416  0.0246  0.2536
27843W        W47377  12.608  13.716  11.716 -0.1536  0.0387  0.1520
27844W        W47378   5.136  17.317  13.402  0.2295 -0.0695  0.2268
27845W        W47379  10.948  10.376  12.024  0.0215  0.2004  0.0004
27846W        W47380   8.659   0.584   1.483  0.0750 -0.0285 -0.2022
27847W        W47381   3.261  12.677  14.171  0.0651 -0.0180  0.1994
27848W        W47382  14.379   3.492  12.354 -0.1082  0.0808 -0.2508
27849W        W47383   1.440  16.672   0.154  0.0338 -0.1506  0.1663
27850W        W47384   7.419   4.548   3.692 -0.2577  0.0348  0.0296
27851W        W47385  15.732  16.512  11.188 -0.1200  0.1397 -0.1155
27852W        W47386  16.032  17.073   4.464  0.1945  0.0910  0.1692
27853W        W47387   0.283  17.639  12.280 -0.2134 -0.0216  0.1836
27854W        W47388   3.417  17.501  15.619 -0.2322  0.3317 -0.1919
27855W        W47389   0.458  10.896   0.832 -0.3971 -0.1514 -0.0327
27856W        W47390   4.715   8.865   2.393  0.1203 -0.0935  0.0311
27857W        W47391  14.357   1.382  12.453  0.0115  0.2166  0.0144
27858W        W47392  17.306  11.777  14.571 -0.1119  0.2764 -0.0836
27859W        W47393  17.759  14.797   3.963 -0.0134 -0.3214  0.0077
27860W        W47394   6.714   6.746   2.226  0.1182  0.1495 -0.0048
27861W        W47395   6.334   7.548   4.530  0.2457  0.0356 -0.0700
27862W        W47396   3.592   5.558  14.164 -0.5130  0.0531 -0.0170
27863W        W47397   0.239   4.805   0.743  0.1369 -0.0565 -0.0759
27864W        W47398  16.369   9.668  11.690 -0.1753  0.2108  0.3399
27865W        W47399  15.067   3.034   5.016  0.2561 -0.1885  0.1493
27866W        W47400  12.260  17.979  15.738  0.0561  0.2255 -0.0570
27867W        W47401   5.286  12.670   0.505 -0.1345  0.1807  0.1356
27868W        W47402   9.353   0.772  11.559 -0.0140  0.1541 -0.2035
27869W        W47403   6.252  10.285  15.992  0.1016  0.0299  0.1205
27870W        W47404   5.604   5.830   2.522  0.2574 -0.2375  0.0098
27871W        W47405   8.179  15.788  13.765 -0.1395  0.0732 -0.2130
27872W        W47406  16.619   1.177  12.136 -0.0170 -0.0265 -0.2412
27873W        W47407   5.711   2.793  12.738 -0.0024 -0.1058  0.3002
27874W        W47408  15.224  15.898   0.392  0.0738  0.0522 -0.1241
27875W        W47409  13.401   5.210   2.060 -0.2771  0.1446  0.2247
27876W        W47410  17.653  11.433  14.898  0.3244  0.3060  0.0894
27877W        W47411  11.925  16.763  12.877  0.1492 -0.0611 -0.0132
27878W        W47412  10.473  10.128   0.191 -0.2983  0.1901 -0.1756
27879W        W47413   8.040  14.436  10.757  0.0835  0.2804  0.0744
27880W        W47414   7.944  15.515   2.523  0.0002  0.0191 -0.0974
27881W        W47415  11.304   9.018  14.888 -0.0770  0.0556 -0.5194
27882W        W47416   0.154  13.895  12.886 -0.1997  0.3201  0.1326
27883W        W47417   9.177   0.049   2.722 -0.0702  0.2524  0.1692
27884W        W47418  12.253  10.865  12.106 -0.2784 -0.0826  0.3845
27885W        W47419   7.285  12.623  12.399  0.3358 -0.2275  0.0336
27886W        W47420  17.506  13.667   2.838  0.0483  0.2601  0.0158
27887W        W47421  11.424   1.097   2.657 -0.1245 -0.2660  0.2710
27888W        W47422  16.378   4.412  13.645 -0.0927  0.1346  0.0813
27889W        W47423   0.410  10.484  13.673 -0.0094 -0.1375  0.1532
27890W        W47424   8.452  11.385  15.373 -0.0555  0.2234 -0.2165
27891W        W47425  18.055  15.123   3.415 -0.1667  0.3041 -0.0554
27892W        W47426  17.538   7.740   4.109 -0.2168 -0.0605  0.0258
27893W        W47427   7.260  14.562   0.650 -0.1288 -0.0925  0.1379
27894W        W47428  18.069   5.683  13.257  0.3469 -0.0458  0.0611
27895W        W47429  15.200   6.188  12.552 -0.0164 -0.2362 -0.2840
27896W        W47430  10.387  17.418  14.586 -0.0621 -0.1501 -0.0020
27897W        W47431   3.901   8.314  15.751 -0.1976  0.0390 -0.0762
27898W        W47432   1.492   4.789  14.700 -0.0633  0.0421 -0.1721
27899W        W47433   6.204   4.247  11.824 -0.0524  0.4141  0.0889
27900W        W47434  11.578   6.709   3.250  0.0075 -0.3464  0.0498
27901W        W47435  14.554   5.331   0.074  0.0405 -0.2123  0.3707
27902W        W47436  15.589   4.135   1.489  0.0623  0.1057  0.0510
27903W        W47437  10.496  11.696  11.703 -0.0048 -0.0271 -0.2301
27904W        W47438   8.584  16.780  11.798  0.0348  0.1411 -0.1868
27905W        W47439  14.521  12.579   0.542  0.0723  0.0883  0.0306
27906W        W47440   2.637   6.810   1.027  0.0345  0.0325 -0.0809
27907W        W47441  17.717  13.439   2.439 -0.2147  0.0223  0.1400
27908W        W47442   3.800   5.810  15.922 -0.0350  0.2545  0.2064
27909W        W47443  12.008   8.607  12.830 -0.2475  0.1915  0.0003
27910W        W47444   5.469  17.396  13.799 -0.1142  0.3451  0.0964
27911W        W47445   7.242   7.059  14.691 -0.0210 -0.0016 -0.0280
27912W        W47446  14.974   6.153  15.103  0.1468 -0.0278 -0.0907
27913W        W47447   0.680   9.616   3.512  0.0400 -0.0056 -0.1834
27914W        W47448   1.521   0.790   1.198 -0.0440  0.1370  0.2426
27915W        W47449   4.011  16.939  12.532  0.0531 -0.1101 -0.0120
27916W        W47450   1.145   0.837   1.945  0.1666  0.1768 -0.0369
27917W        W47451  12.624  16.213   3.613 -0.2196 -0.1404  0.0136
27918W        W47452   3.313   3.610   1.799  0.0117 -0.0948  0.0869
27919W        W47453   3.296  15.199  13.698 -0.2132  0.0168 -0.1114
27920W        W47454   6.392  16.410  15.228 -0.2043  0.0864  0.0486
27921W        W47455   3.748   4.081  12.730 -0.2636 -0.1362  0.0037
27922W        W47456  11.424  16.901   1.650  0.1635  0.2731  0.0867
27923W        W47457   0.564   7.749  15.174 -0.1238 -0.0110  0.1708
27924W        W47458   3.826   3.337  11.261  0.2713  0.1492  0.0657
27925W        W47459  17.851  14.731   4.784  0.1596  0.1760 -0.1110
27926W        W47460  11.822   3.410  11.900 -0.0168  0.1413 -0.2350
27927W        W47461  16.116   0.541  12.581 -0.0444  0.1301  0.0133
27928W        W47462  11.480   6.015  14.942 -0.3164 -0.2074  0.4321
27929W        W47463   9.015   3.143   3.466  0.0987 -0.0352  0.1347
27930W        W47464  16.563   1.775   2.313  0.2737  0.1106 -0.1899
27931W        W47465   9.751  11.400   0.793  0.0054 -0.0574  0.2239
27932W        W47466  11.855   2.399   1.707  0.2662  0.0899  0.1289
27933W        W47467  17.296   0.132  13.582  0.2609 -0.4077 -0.1899
27934W        W47468   4.861   4.177  14.064 -0.1495 -0.0562  0.1074
27935W        W47469  12.122   5.623   1.316 -0.2119  0.1659  0.2050
27936W        W47470   8.765  11.609   2.122 -0.2824 -0.2204 -0.2122
27937W        W47471   3.544  16.004   4.731  0.2244  0.1718 -0.1138
27938W        W47472  11.331   5.401  14.460 -0.2500 -0.0688  0.0958
27939W        W47473   5.076   9.993   4.991  0.2401 -0.2071  0.0830
27940W        W47474  10.563  13.937  14.536  0.4396 -0.0454 -0.2991
27941W        W47475   6.838  16.529   4.067  0.0425 -0.2645 -0.1117
27942W        W47476   5.749   8.974  12.923  0.2223  0.0483 -0.1550
27943W        W47477   6.331  12.988  11.835 -0.1325  0.1829 -0.1206
27944W        W47478  15.675   8.460  12.639 -0.0106 -0.0827  0.0672
27945W        W47479  12.657  12.923   0.643  0.1079  0.0423  0.0073
27946W        W47480   8.198  15.360  14.357  0.0181  0.0016 -0.1612
27947W        W47481  16.081   7.887  13.027 -0.1967 -0.0897  0.0287
27948W        W47482  12.870   3.913   5.064  0.0403  0.1941 -0.0548
27949W        W47483  14.956  12.793  12.476  0.1293  0.0222  0.0398
27950W        W47484   8.023   3.577  13.611 -0.0282  0.0047  0.1344
27951W        W47485  16.094  17.189  15.658  0.0235 -0.1205 -0.0551
27952W        W47486  13.256   3.877   2.718  0.3383  0.1670 -0.0069
27953W        W47487  13.638  10.804  11.752 -0.0147 -0.1749 -0.1857
27954W        W47488  11.231  13.927  15.156 -0.1545  0.0469  0.0750
27955W        W47489  10.946  17.489  13.369  0.0892 -0.0484 -0.0375
27956W        W47490   7.800  13.475   3.635  0.0881  0.4123  0.3455
27957W        W47491  15.528   6.393  11.608 -0.0755 -0.1255 -0.1660
27958W        W47492  17.237  13.303  11.486  0.2534  0.1040 -0.0153
27959W        W47493   8.244  13.479   4.766 -0.0552 -0.3301 -0.0345
27960W        W47494  10.141   2.794  11.943 -0.1660  0.2628 -0.0992
27961W        W47495  12.649   4.337   4.910  0.2207  0.2609  0.0348
27962W        W47496  15.043  12.172   0.932  0.1912 -0.0744 -0.0146
27963W        W47497  10.502   4.876   4.498 -0.0686  0.4967 -0.1848
27964W        W47498   5.778  11.304   0.248 -0.1398  0.0652 -0.1806
27965W        W47499   9.803   2.184  11.479  0.0173 -0.1200 -0.1604
27966W        W47500  13.282   3.512  14.450  0.0022 -0.4986  0.1035
27967W        W47501   0.576  14.348   1.168  0.2299  0.1624  0.1947
27968W        W47502   3.447   3.466   3.801 -0.1691  0.0672 -0.1320
27969W        W47503  17.884  16.150  15.565 -0.1053  0.1389 -0.0260
27970W        W47504  13.079  15.608  12.536 -0.0374 -0.2020 -0.1876
27971W        W47505  15.352  12.978   1.862  0.2190  0.0779 -0.3690
27972W        W47506  17.602   5.188   4.217  0.0800  0.1595  0.0577
27973W        W47507  10.796  11.476  12.762 -0.1847  0.0457  0.1936
27974W        W47508   8.856  18.035   1.043 -0.1607  0.0006  0.1288
27975W        W47509   7.755   2.096   3.927 -0.0282 -0.1082 -0.1163
27976W        W47510  11.042   5.157  14.074  0.2800  0.0515 -0.0396
27977W        W47511  12.510  15.242   1.998 -0.0805 -0.1751  0.1826
27978W        W47512  12.949  16.272   4.886 -0.1033 -0.1700 -0.0746
27979W        W47513   0.124   7.773   3.689 -0.1148  0.0720  0.1246
27980W        W47514  11.280   8.690   5.204  0.3192  0.3830 -0.0736
27981W        W47515   1.370   9.329  14.513  0.0417  0.2444  0.1487
27982W        W47516   4.007  13.218  14.238 -0.2547  0.1291 -0.1898
27983W        W47517   6.462   0.292  13.706 -0.0222 -0.1313 -0.0670
27984W        W47518  16.336  17.027  14.248 -0.0352 -0.4378  0.2324
27985W        W47519   5.033  11.880  15.774 -0.0505 -0.0130  0.2061
27986W        W47520   6.948   5.698   3.043 -0.0073 -0.1509  0.3072
27987W        W47521  17.195   5.591  14.949 -0.3613  0.4618 -0.0128
27988W        W47522  12.314  14.993  12.804  0.2169  0.2970 -0.1243
27989W        W47523  13.245  12.598  13.575  0.1665  0.0056 -0.0260
27990W        W47524   7.870  11.364  12.037  0.3206  0.1105  0.4445
27991W        W47525   3.793   9.893   1.720  0.1685  0.2436 -0.0175
27992W        W47526  12.944  17.455   4.727 -0.0305  0.2244  0.2212
27993W        W47527  15.773   2.039  14.236  0.2848  0.0608  0.0299
27994W        W47528  14.582   8.539   4.902 -0.1046 -0.2666 -0.0079
27995W        W47529  15.186   5.067   4.468 -0.0251 -0.0717 -0.2981
27996W        W47530  11.300  17.733  14.539  0.1970 -0.1447 -0.0760
27997W        W47531  16.126  16.250   5.257 -0.1400 -0.0656 -0.1257
27998W        W47532  11.047   6.683   1.582 -0.0562  0.2259  0.0449
27999W        W47533  15.962  16.410  12.578  0.0502  0.0033 -0.0367
28000W        W47534   7.675   6.538   3.164  0.1709  0.0353 -0.1554
28001W        W47535   6.488   6.111   1.246  0.2251 -0.2742 -0.0004
28002W        W47536  17.784  18.183   2.018  0.1930 -0.0934  0.2895
28003W        W47537  13.047  10.294  12.464 -0.0338 -0.1513 -0.1350
28004W        W47538   4.709   2.001   3.352  0.3483  0.2324 -0.0843
28005W        W47539   9.970  16.443   2.537 -0.3257 -0.0866 -0.0982
28006W        W47540  14.295   6.222   3.187  0.1028 -0.0324 -0.1086
28007W        W47541  13.274  13.377  15.461 -0.4147 -0.0361  0.1341
28008W        W47542  14.064  13.723  15.779 -0.3855 -0.2840 -0.0846
28009W        W47543  13.379   9.042  11.622 -0.2265 -0.0998 -0.0723
28010W        W47544  15.232  15.420  12.756  0.1515  0.3207  0.1467
28011W        W47545  16.515  16.633   0.144  0.2410  0.0014  0.4007
28012W        W47546   5.335   4.683   3.358 -0.3981  0.0152  0.0790
28013W        W47547   7.736  15.529   0.397 -0.0783  0.0305 -0.1415
28014W        W47548   5.714   3.216  13.485 -0.0425  0.0589  0.0252
28015W        W47549   3.195  12.271   2.331  0.2072  0.2539 -0.0649
28016W        W47550   9.405  12.321   2.370 -0.2454  0.0781 -0.0992
28017W        W47551  16.195   8.292   4.150  0.2785 -0.2393  0.1436
28018W        W47552  17.666   0.982  13.768 -0.0094 -0.0991 -0.0601
28019W        W47553   9.581  12.811  15.209 -0.0619  0.2374  0.2246
28020W        W47554  15.907   1.102   4.953 -0.0907 -0.2277  0.0705
28021W        W47555   3.965   7.159   4.448  0.1270  0.1692 -0.1211
28022W        W47556   3.469  10.996  15.240 -0.0341  0.0204 -0.0299
28023W        W47557   6.414  15.774   4.642 -0.0973  0.0859  0.1636
28024W        W47558  12.584  16.157  11.782  0.1910  0.0043 -0.0253
28025W        W47559  12.660  10.995  11.794  0.5312  0.2245 -0.0449
28026W        W47560   5.347   2.574   1.727 -0.1896 -0.0032 -0.0579
28027W        W47561  17.987   2.824   4.595  0.2017  0.1411  0.1655
28028W        W47562   9.876  17.813  11.627  0.4127  0.1214 -0.1699
28029W        W47563  14.463  16.946  14.824  0.2681  0.3074 -0.1415
28030W        W47564   0.458  18.170   1.624  0.0975  0.0096 -0.1304
28031W        W47565  16.328   4.306  12.754 -0.1966  0.0523  0.1347
28032W        W47566   4.818  10.830  15.534  0.0324  0.0526 -0.2264
28033W        W47567  13.183   9.062   3.411  0.0565  0.3394  0.0371
28034W        W47568   7.349  15.484  11.624 -0.0320  0.2636  0.3239
28035W        W47569  12.729  10.772   2.257  0.0684  0.1772 -0.0679
28036W        W47570   3.947   8.728   0.805  0.3568 -0.2575 -0.0114
28037W        W47571  17.797  15.902  13.844  0.1996  0.2609 -0.2664
28038W        W47572  13.509  10.467  12.303  0.0497  0.0700  0.0470
28039W        W47573   7.383  17.460  13.868 -0.6638 -0.0464  0.0786
28040W        W47574  13.578  18.155  14.927 -0.3833  0.1681  0.2555
28041W        W47575  16.090  17.493   5.100 -0.2254 -0.2522  0.0848
28042W        W47576  15.067   2.682   1.951  0.0424 -0.0500  0.2059
28043W        W47577  15.029   5.913   0.785 -0.1317 -0.1356 -0.1621
28044W        W47578  13.970   6.332  13.384 -0.0271 -0.0787  0.1635
28045W        W47579  16.807   5.133   3.404 -0.2903  0.1248  0.0921
28046W        W47580  15.144  15.174   5.192 -0.0538  0.1372  0.0557
28047W        W47581   1.261   4.300   0.976  0.2807  0.2114  0.0043
28048W        W47582   0.258  16.130  13.500 -0.0464  0.2302 -0.2559
28049W        W47583  14.056   8.575  12.877 -0.1342 -0.1337 -0.2544
28050W        W47584   4.570  12.638   0.916 -0.0834  0.1804  0.1194
28051W        W47585   8.276   0.503  11.162 -0.0523  0.0789 -0.1204
28052W        W47586   5.834  10.445  11.736 -0.1591 -0.0293 -0.1762
28053W        W47587  16.435   7.554  15.312  0.0694 -0.3184 -0.0142
28054W        W47588   9.359   2.322   0.023  0.0363 -0.2099  0.1066
28055W        W47589  11.807   6.878   0.956 -0.1062 -0.2604  0.1327
28056W        W47590   8.759  14.584   1.480  0.1796  0.1005  0.1912
28057W        W47591  11.220   5.224   2.293 -0.0596 -0.0343 -0.1191
28058W        W47592  11.232  14.236  12.783  0.2229  0.0532 -0.2512
28059W        W47593   2.658  10.515  12.376  0.1248 -0.0495 -0.4680
28060W        W47594   6.455  16.214   3.201  0.2342  0.2449  0.1796
28061W        W47595   3.161  13.025  12.547  0.0952 -0.1491 -0.0288
28062W        W47596  10.342   1.785   0.879 -0.0984  0.0060 -0.0995
28063W        W47597   0.268  14.735  15.576  0.1849 -0.0640 -0.0811
28064W        W47598   0.756   6.858   3.090 -0.1154  0.0567 -0.2676
28065W        W47599   9.984   3.487   3.586 -0.2720 -0.1283  0.2713
28066W        W47600  10.486  14.993   0.882  0.0448 -0.1797 -0.0540
28067W        W47601  17.514  11.323  15.645 -0.1221 -0.0968 -0.2379
28068W        W47602  10.306   7.969   4.565 -0.0070  0.2445  0.0029
28069W        W47603  17.012   2.862   4.440  0.1695  0.0147 -0.2860
28070W        W47604  10.978   7.465  13.824 -0.2287  0.2486 -0.0970
28071W        W47605   5.679   7.529   2.425 -0.1040  0.1579 -0.0142
28072W        W47606  14.093  14.122   4.817 -0.0505 -0.3477  0.0142
28073W        W47607   0.604   4.152   2.951 -0.1409 -0.2548  0.2690
28074W        W47608  13.055   0.186   1.751 -0.1333  0.1220  0.0061
28075W        W47609   3.469   3.729  15.769  0.0834  0.4854 -0.0079
28076W        W47610   9.379  17.192   3.576 -0.0676  0.1490 -0.1878
28077W        W47611   0.234  11.052   2.668 -0.3231 -0.0008 -0.1604
28078W        W47612  18.132   0.175   2.979 -0.1716 -0.2539  0.0336
28079W        W47613  11.797   9.597   2.556 -0.2266  0.1724 -0.1336
28080W        W47614  10.942   2.346  15.177 -0.2277 -0.0278  0.0585
28081W        W47615  11.047  10.826   4.800  0.0570  0.2983  0.1822
28082W        W47616  17.863   9.370  12.652 -0.1466 -0.0764  0.0781
28083W        W47617  16.629  16.373  13.740 -0.3995 -0.0739 -0.1448
28084W        W47618   7.804  15.622  15.231 -0.0969  0.0150  0.2915
28085W        W47619   8.497   0.917   4.592 -0.0361 -0.0087  0.0305
28086W        W47620  12.327  10.027  13.079 -0.0024  0.1455 -0.1183
28087W        W47621   0.161   7.167  15.895 -0.1049  0.1364  0.1867
28088W        W47622  17.498  10.770  12.675 -0.1582  0.0923  0.0355
28089W        W47623  17.557   1.463   2.082  0.0372 -0.0446 -0.0555
28090W        W47624  10.008  12.578  13.565 -0.0207  0.0663  0.1407
28091W        W47625   8.262  14.779  12.118  0.0435 -0.2074 -0.0540
28092W        W47626  14.986   4.532  12.827 -0.1339  0.0920  0.1446
28093W        W47627   7.519  16.890   1.623  0.0807  0.1067 -0.0757
28094W        W47628   1.410   9.120  12.587 -0.0461 -0.1763  0.1182
28095W        W47629   2.419  10.833  15.105 -0.1086 -0.0878  0.3351
28096W        W47630   7.874  16.252   2.905  0.2336  0.2232  0.1661
28097W        W47631   1.174   2.063   5.120 -0.1352 -0.0582  0.1513
28098W        W47632   2.225   7.302  13.064 -0.0117 -0.1883  0.0615
28099W        W47633   8.960   7.452  15.440  0.2258 -0.2421  0.0943
28100W        W47634   4.153   6.341   3.857  0.0864 -0.0660 -0.3161
28101W        W47635   3.994   5.445  13.834  0.2764 -0.0143  0.1741
28102W        W47636   1.767   4.560   2.916  0.0126 -0.0929 -0.1919
28103W        W47637  16.341   5.122   3.157 -0.2583  0.0951 -0.0857
28104W        W47638  15.448   3.453   5.042 -0.0476 -0.0693  0.1495
28105W        W47639   6.712  13.674   3.613 -0.1080 -0.1080 -0.1809
28106W        W47640  12.360   9.204   2.595  0.1104  0.2595  0.1294
28107W        W47641   3.019   7.120   0.244  0.2351 -0.0921  0.0658
28108W        W47642   8.292   6.783  14.767 -0.3132 -0.0308 -0.2812
28109W        W47643  10.176   6.466   0.150  0.1958 -0.0143 -0.0358
28110W        W47644  13.845  11.268   3.093 -0.0033  0.2699  0.0571
28111W        W47645  14.990   4.345  15.369 -0.3240 -0.2634  0.1385
28112W        W47646   7.042   3.616  13.741 -0.1486 -0.1769  0.1303
28113W        W47647  18.089   0.932  11.230 -0.0224 -0.3656  0.0251
28114W        W47648   1.202  12.440   4.000  0.0786  0.1138 -0.0347
28115W        W47649  15.555  17.527   2.494  0.2268  0.0419 -0.1906
28116W        W47650  14.780  14.285  14.039  0.4307  0.0575 -0.1921
28117W        W47651   4.086   7.093  12.508 -0.0006 -0.3648  0.3736
28118W        W47652   6.318   6.841   3.590  0.0439  0.0145 -0.4743
28119W        W47653  11.394   7.985   2.736 -0.0406  0.1122  0.1136
28120W        W47654   4.893  11.599   2.362  0.0092  0.2497  0.0040
28121W        W47655  14.880  12.724   0.123 -0.1149 -0.0849  0.2137
28122W        W47656   4.639  16.658  14.459 -0.0640  0.0642  0.0286
28123W        W47657  14.056  14.776  13.051 -0.1276 -0.2063  0.1368
28124W        W47658  12.334   1.881   5.579 -0.0112 -0.0054  0.1139
28125W        W47659  10.622  17.886  13.135 -0.3818 -0.1458  0.0778
28126W        W47660  17.377   1.841   0.730 -0.1927  0.2337 -0.0416
28127W        W47661   8.847  13.796   5.599  0.1000  0.0792 -0.1112
28128W        W47662  17.533  13.646   1.927 -0.0956  0.3473 -0.3055
28129W        W47663   9.043   6.290   2.221 -0.1748  0.0919  0.0278
28130W        W47664   3.818  15.796   0.016  0.2225 -0.0225  0.2053
28131W        W47665   7.521  12.822   0.208 -0.1139  0.4352 -0.1077
28132W        W47666  14.230   0.442   3.226 -0.0397 -0.0114  0.1943
28133W        W47667  15.869   5.996   0.609 -0.0554  0.2788 -0.1449
28134W        W47668  18.181   5.727   2.204  0.2111 -0.0468  0.0170
28135W        W47669   5.864   8.327  12.897 -0.1907 -0.0630  0.1770
28136W        W47670  10.003   9.342  14.425 -0.2818 -0.0696  0.0301
28137W        W47671  17.449  10.638   1.791  0.0501  0.0002 -0.2536
28138W        W47672  12.454  15.590   4.271  0.2432  0.1842 -0.4066
28139W        W47673   5.582  12.216   4.367 -0.0014 -0.3190  0.0721
28140W        W47674  18.027  14.994   1.004  0.1320 -0.1317 -0.0635
28141W        W47675   7.896   3.558   0.902  0.2509 -0.1041  0.1016
28142W        W47676   5.802  14.662  12.954  0.3050 -0.2285  0.1007
28143W        W47677  17.112   0.348  12.122 -0.0630  0.0987  0.2716
28144W        W47678  15.962  12.272   0.447 -0.1924 -0.0380  0.0827
28145W        W47679  15.308  12.053  12.292  0.0050  0.0603 -0.0420
28146W        W47680   9.787   2.091   2.163 -0.0900 -0.1644  0.0673
28147W        W47681   7.417   4.848   0.358  0.0778 -0.0172 -0.2988
28148W        W47682   8.187   2.278  13.016  0.2181  0.1053  0.0151
28149W        W47683  18.079  14.919   1.507 -0.2893 -0.2622  0.0507
28150W        W47684   7.250   9.421  15.428  0.2334  0.1901  0.2596
28151W        W47685   8.342   0.006   3.312 -0.3125  0.0439 -0.2172
28152W        W47686   8.135   3.384   4.225  0.1388  0.1607  0.3402
28153W        W47687  12.544   6.447   4.252 -0.1827  0.2184  0.0802
28154W        W47688   4.616   2.028   1.135  0.2095 -0.0596 -0.1163
28155W        W47689   6.424   1.132   2.921  0.0487 -0.1777  0.3679
28156W        W47690   1.874   6.282  14.674  0.0330 -0.1292 -0.1173
28157W        W47691   3.671   2.627  13.639 -0.2106  0.2177  0.0095
28158W        W47692   4.070   3.402  13.702 -0.1092 -0.1287 -0.0564
28159W        W47693   7.285   2.371   2.416  0.0447  0.1566 -0.1452
28160W        W47694   2.530   0.601  11.456 -0.2336  0.1036  0.1490
28161W        W47695  10.930  15.711  14.083  0.3277 -0.2458 -0.0282
28162W        W47696   8.072  14.346   2.190 -0.0190  0.0889  0.1119
28163W        W47697  13.001   4.054   1.692 -0.0981 -0.0681 -0.0740
28164W        W47698   7.303  17.875  14.226  0.3935  0.0994  0.2250
28165W        W47699  13.581  15.775   2.429 -0.0778  0.0619 -0.2481
28166W        W47700   1.129   2.781   4.174  0.1194 -0.1410  0.0079
28167W        W47701   8.384  14.047  13.060 -0.0381  0.2503 -0.1494
28168W        W47702   9.366  10.112  11.780  0.1770 -0.0323  0.0191
28169W        W47703   5.062   3.855   0.694  0.0101  0.2263 -0.1111
28170W        W47704   7.499   2.083   2.804 -0.3051 -0.0353  0.2046
28171W        W47705  14.087  14.084   2.173  0.2198  0.0467  0.0675
28172W        W47706  17.242   8.703  12.057  0.2710  0.2513 -0.1464
28173W        W47707   8.040  16.987  13.296  0.0272  0.1567 -0.0300
28174W        W47708   5.882   4.945  13.622  0.2741  0.3220 -0.2917
28175W        W47709   8.973   2.993  14.260 -0.0920 -0.1742  0.0634
28176W        W47710   3.426   9.487  12.217 -0.0255 -0.0979  0.0502
28177W        W47711   6.960   4.795   2.832  0.0205  0.0296 -0.0547
28178W        W47712   2.870   7.678   3.030 -0.0133 -0.0268 -0.0038
28179W        W47713   3.829   5.397   2.628  0.2237 -0.2549  0.0982
28180W        W47714   0.682  15.081  12.641  0.0808 -0.1156  0.2178
28181W        W47715  12.191   2.315   2.386  0.1696  0.0399  0.2890
28182W        W47716  12.886   6.567  15.544 -0.1582  0.0300  0.1307
28183W        W47717   8.551  12.426  13.596 -0.1309 -0.0478 -0.1911
28184W        W47718   0.466  11.736   0.363  0.0673  0.1482 -0.2118
28185W        W47719   6.860   9.743   3.993  0.0918  0.0082 -0.3120
28186W        W47720   9.031   1.560  15.564 -0.2069 -0.1957  0.0491
28187W        W47721   7.913   3.927   1.594  0.0686 -0.1050  0.2904
28188W        W47722  15.287  11.990   2.688 -0.0438 -0.2066 -0.0825
28189W        W47723   6.931  16.231  12.701  0.0490 -0.0352  0.1330
28190W        W47724   1.000  10.675   4.218 -0.4180 -0.0791  0.0234
28191W        W47725  14.075  10.087  14.940 -0.1329 -0.0748 -0.1147
28192W        W47726   6.711   3.363  13.311 -0.0144 -0.1287  0.3387
28193W        W47727  14.785   7.421  14.720 -0.1310 -0.2083  0.0934
28194W        W47728  11.519  14.653  12.316  0.2918 -0.0651  0.2088
28195W        W47729   9.993  10.655  11.921 -0.1997  0.2844  0.2070
28196W        W47730  15.909   9.418  11.598  0.1757  0.2381 -0.0886
28197W        W47731   4.605  15.016  13.311  0.2023  0.0217 -0.3699
28198W        W47732   9.159  16.007  10.882 -0.0773  0.3101 -0.1102
28199W        W47733   9.266  17.489  15.898  0.0325 -0.1862  0.3715
28200W        W47734   8.023  12.160  11.407  0.5544 -0.1029 -0.2018
28201W        W47735   5.284  14.118   2.381 -0.0643 -0.0546 -0.0855
28202W        W47736   5.551  17.568   4.087 -0.0371  0.2044  0.1017
28203W        W47737  14.207   5.617  12.522  0.1908  0.3311 -0.0627
28204W        W47738  14.883  10.648   0.089 -0.0466  0.1675  0.0298
28205W        W47739   2.920  17.093  15.732  0.1438 -0.3900  0.0656
28206W        W47740  16.636  15.702  12.670 -0.2095 -0.1157  0.5134
28207W        W47741   8.104   0.386  15.705  0.1103  0.0372 -0.0140
28208W        W47742  14.000  11.414  13.272 -0.0746  0.1137  0.3420
28209W        W47743   4.188   5.576  11.233  0.0572  0.0933  0.3113
28210W        W47744  18.083  17.772   4.086 -0.0556  0.0508  0.0660
28211W        W47745   8.972   4.976  11.971  0.0727 -0.0067 -0.0651
28212W        W47746   6.975  17.663   1.174  0.2058 -0.0608 -0.4835
28213W        W47747   6.485   0.621   1.989  0.0452 -0.2891 -0.4580
28214W        W47748   4.092   5.963  12.181 -0.0050  0.0640  0.0319
28215W        W47749   6.468  16.715  12.004  0.1833  0.0172  0.1634
28216W        W47750  15.017   1.536  12.094 -0.0869 -0.0445 -0.2213
28217W        W47751   5.533   4.865   0.541  0.0084  0.0145 -0.1719
28218W        W47752  10.852  15.293   3.574 -0.0595  0.1160  0.0294
28219W        W47753  17.786  11.123  14.459 -0.0508 -0.1218 -0.1756
28220W        W47754   9.400   3.205  10.133 -0.1710 -0.2941 -0.1509
28221W        W47755  16.175  11.346  15.362  0.0878 -0.2295 -0.0405
28222W        W47756  12.454  12.185   3.871 -0.0989 -0.3160  0.2609
28223W        W47757   0.158   2.136   1.831 -0.1396  0.3125 -0.3995
28224W        W47758   2.724  15.885   1.312  0.1350  0.2731  0.1466
28225W        W47759   3.457   6.929  12.331 -0.0243  0.3562 -0.1512
28226W        W47760   5.106  14.911  10.515 -0.2584 -0.0761  0.3556
28227W        W47761  15.698   7.777  12.669  0.0038 -0.1975  0.0361
28228W        W47762  13.264  13.754  12.410 -0.1063  0.4808  0.0200
28229W        W47763   9.919   4.521   4.165  0.0527  0.0143 -0.0107
28230W        W47764  12.004   4.917   1.957 -0.1678  0.2367  0.1181
28231W        W47765  13.922  14.453  16.040  0.0693 -0.1224  0.1623
28232W        W47766   4.683   3.952  12.296  0.2770  0.0212  0.0855
28233W        W47767   0.562   0.299  12.010  0.1025 -0.0619  0.0302
28234W        W47768  12.330   1.207  12.532  0.0249 -0.2161 -0.3393
28235W        W47769   1.981   1.512  12.293  0.2747 -0.0762  0.0755
28236W        W47770  17.444  13.864   4.465  0.1835  0.1151 -0.0018
28237W        W47771   1.248   3.578   2.719  0.1222 -0.0932  0.4946
28238W        W47772  18.036  14.405   3.803 -0.0452 -0.0081  0.1250
28239W        W47773  12.247  11.535  10.135  0.0016  0.0636  0.0231
28240W        W47774   5.287   7.595  13.092  0.2270 -0.0756  0.2399
28241W        W47775  11.693  16.370   2.039  0.0310 -0.1953 -0.0878
28242W        W47776   0.292  13.787   2.570  0.0567  0.0476 -0.4821
28243W        W47777  14.095  12.651  11.891 -0.1119 -0.3082 -0.0782
28244W        W47778  17.735   4.299   0.716  0.2732  0.0952  0.1544
28245W        W47779  10.186  17.789   1.532  0.1119 -0.0218  0.0082
28246W        W47780   0.488   0.347   3.891 -0.0519  0.3135  0.1449
28247W        W47781  10.745  12.305  12.362  0.0631  0.0655 -0.0171
28248W        W47782   3.976  14.880   4.019 -0.3027 -0.1376  0.0606
28249W        W47783   8.801   0.834   2.226  0.0351 -0.0703 -0.1575
28250W        W47784   3.916  17.689   1.835 -0.3436 -0.1117  0.1898
28251W        W47785  15.785   8.664   4.226 -0.1067  0.3866  0.1953
28252W        W47786  13.232  14.648   3.826 -0.4032  0.0029 -0.4490
28253W        W47787   4.208  14.261  12.258 -0.0818  0.0702  0.4152
28254W        W47788  14.513   6.319  13.236 -0.0437 -0.1525  0.0656
28255W        W47789   9.617   1.925   0.163 -0.0818 -0.1639 -0.0477
28256W        W47790   9.887   3.514  15.405  0.0918 -0.0597 -0.3500
28257W        W47791   3.730   2.784  13.105 -0.0227 -0.1811 -0.0442
28258W        W47792  14.967  11.231   2.207  0.1367  0.2867 -0.1832
28259W        W47793  17.257  17.501  11.658  0.0861  0.1078 -0.0648
28260W        W47794   7.837   5.486  10.947  0.1836 -0.1583  0.0384
28261W        W47795   4.292  17.711   0.425  0.0623 -0.1139 -0.1137
28262W        W47796   7.285   4.918  15.925  0.3930 -0.0205 -0.0793
28263W        W47797  10.558  10.260  14.134  0.1389  0.1645 -0.1777
28264W        W47798   6.102  13.358  12.838 -0.2376  0.1175 -0.0637
28265W        W47799  15.216  15.504  12.274  0.0341 -0.0576  0.3334
28266W        W47800  11.887   6.139  13.257 -0.1081  0.1457  0.1751
28267W        W47801  11.762  11.979   3.217  0.0742  0.2362  0.4920
28268W        W47802  13.504  14.357  15.731  0.0726  0.2400  0.2747
28269W        W47803  13.412  17.592   4.457  0.2105 -0.1433  0.1683
28270W        W47804   0.910  15.209   2.261 -0.1307  0.0885  0.1533
28271W        W47805  10.199   3.133  13.517  0.0857  0.0298  0.2657
28272W        W47806  12.749   1.390   0.663  0.2088  0.0839  0.1871
28273W        W47807  15.046  13.498   1.224  0.1075 -0.0377 -0.1027
28274W        W47808   1.819  12.638   4.588  0.0931 -0.2023 -0.0443
28275W        W47809   6.468  12.847   0.522 -0.0212 -0.0499 -0.1052
28276W        W47810   6.316  12.718  12.694  0.2270 -0.0811  0.2311
28277W        W47811  14.286  17.991  15.520  0.1890 -0.1661  0.0679
28278W        W47812  14.750   3.004  14.229 -0.1783 -0.0214  0.0475
28279W        W47813  13.581   0.227  12.025  0.1019 -0.0150  0.1115
28280W        W47814  15.485   2.322   3.399 -0.2133  0.2109  0.1040
28281W        W47815   3.971  11.820   4.807 -0.0471  0.0027  0.0427
28282W        W47816  13.920  16.218  12.033 -0.1473 -0.4116 -0.3846
28283W        W47817  12.844   7.836  15.850 -0.0089  0.3390 -0.1669
28284W        W47818   3.541  15.259  11.826  0.0508 -0.3037  0.1357
28285W        W47819  10.578   5.290   3.764 -0.3177  0.2463 -0.0030
28286W        W47820   2.672   4.658  12.477 -0.3801  0.0159  0.0324
28287W        W47821   8.170   1.915   0.584 -0.0159  0.2845 -0.2154
28288W        W47822   2.820   2.474   4.229  0.1362  0.0941 -0.0017
28289W        W47823   9.077   0.218  14.775 -0.1482 -0.1165  0.1534
28290W        W47824  15.172   9.855   2.118  0.2414  0.0455 -0.1502
28291W        W47825  13.382  13.059   4.504  0.3721 -0.0164  0.0897
28292W        W47826  11.140  16.947   3.866  0.0028 -0.2262 -0.1339
28293W        W47827  17.777   1.058  15.034 -0.0822 -0.0357  0.0837
28294W        W47828  13.734   6.281   3.237 -0.1758 -0.0091  0.1767
28295W        W47829  14.874  14.754  11.782  0.2022 -0.2497  0.3253
28296W        W47830  10.924  10.486   5.583  0.1725  0.2460 -0.0861
28297W        W47831  14.445   4.985  15.108  0.2190 -0.0722 -0.0839
28298W        W47832   0.322  16.092   1.777 -0.2010  0.2314  0.0456
28299W        W47833   6.310  13.282   4.921 -0.2068  0.0541  0.1459
28300W        W47834   6.563  13.148  12.668 -0.0946 -0.2151  0.4139
28301W        W47835   2.658   2.369  13.053  0.1991 -0.1431 -0.0154
28302W        W47836   0.854  12.310   3.633  0.0933 -0.0002 -0.2086
28303W        W47837   1.955  12.411  15.185 -0.1585  0.1550  0.2906
28304W        W47838   0.442   9.047   3.535  0.0374 -0.0742  0.2366
28305W        W47839   2.615  11.535  13.784  0.1327  0.0566 -0.0738
28306W        W47840   2.621   8.004  13.739  0.3033 -0.1580 -0.1292
28307W        W47841   6.169   5.028  12.348  0.0115 -0.1995  0.0319
28308W        W47842   3.154  17.767   2.898 -0.3381  0.0678  0.1495
28309W        W47843   0.381   6.145   4.164  0.4660 -0.0786 -0.2434
28310W        W47844  17.663   8.233   4.209  0.0357 -0.3237  0.2049
28311W        W47845  13.652   3.052   4.846  0.0865 -0.0845  0.0006
28312W        W47846  17.201  16.365   2.869 -0.0977  0.0169  0.2814
28313W        W47847   0.896   1.175  11.607  0.1856  0.1506 -0.3466
28314W        W47848   9.513   1.083  11.948 -0.0805  0.1576 -0.0243
28315W        W47849  11.196   4.612  15.954 -0.0541  0.0780 -0.1438
28316W        W47850   8.699  17.603  12.255 -0.0915 -0.1069  0.0546
28317W        W47851  12.954   0.931  15.029 -0.0603  0.1080 -0.2037
28318W        W47852   9.546  14.446  14.181  0.1437 -0.3909 -0.1278
28319W        W47853   9.699   4.894  15.018  0.0379  0.2161  0.0863
28320W        W47854  16.321  12.420  11.902 -0.0696  0.1734  0.3954
28321W        W47855   9.695   4.375   3.002 -0.2935  0.2101  0.0416
28322W        W47856   9.413  10.578   1.226  0.0321  0.0335  0.1592
28323W        W47857  11.654  10.327   3.974 -0.0188  0.0056  0.1524
28324W        W47858   7.901   0.090  14.703  0.0169  0.0854  0.3828
28325W        W47859  15.681   6.742  14.422  0.3157  0.2312  0.5012
28326W        W47860   9.665   0.682   3.272  0.0168  0.0497  0.3329
28327W        W47861  14.530   9.817   3.923 -0.0699 -0.1528  0.2262
28328W        W47862   0.581  13.605  14.595  0.1520 -0.0058 -0.1897
28329W        W47863   0.357  15.100   3.203 -0.2139 -0.1041 -0.2690
28330W        W47864  14.082  11.618   5.211 -0.0511  0.0598  0.0918
28331W        W47865  12.973   6.470  13.272 -0.0427  0.0134 -0.2526
28332W        W47866  14.186  15.576   3.395  0.2733  0.0893 -0.2488
28333W        W47867  16.816   5.422   2.429  0.0659  0.0917  0.0207
28334W        W47868  14.084   7.183  15.879  0.1555  0.0149 -0.1089
28335W        W47869  14.838   8.643  12.196 -0.2782 -0.0643  0.0511
28336W        W47870  14.488   1.857  12.298  0.1744 -0.1043 -0.2041
28337W        W47871  10.034  18.118   2.568 -0.0581 -0.3745  0.0813
28338W        W47872   5.731   3.322  12.556  0.1733  0.0285  0.1865
28339W        W47873  18.064  13.123   1.263  0.1802 -0.1038 -0.3116
28340W        W47874  16.872  16.406  14.537  0.0121  0.0128  0.0110
28341W        W47875   1.638   7.373  10.564 -0.1944 -0.1465 -0.0383
28342W        W47876   1.283   0.040   1.815  0.1536 -0.0507  0.2749
28343W        W47877  11.180   8.691   0.776  0.0172 -0.3882  0.1123
28344W        W47878   9.763  15.533  11.420  0.0569 -0.1177 -0.0077
28345W        W47879  12.023  15.543  12.586 -0.0452  0.0482  0.0541
28346W        W47880  17.738  17.072   2.969 -0.1436 -0.0877  0.2841
28347W        W47881  14.432  15.812   0.397  0.1695 -0.3302 -0.1563
28348W        W47882   7.339  14.813  16.022  0.1956 -0.0009  0.0276
28349W        W47883  11.963  17.487   0.306  0.2543 -0.1465 -0.1624
28350W        W47884   6.839  14.804  15.881  0.0052 -0.3710 -0.0914
28351W        W47885  17.254   8.566   0.375 -0.1057 -0.0587 -0.0320
28352W        W47886  15.729  13.268  14.740 -0.4628  0.1733 -0.1188
28353W        W47887  16.419   0.103   3.341  0.2310 -0.1730 -0.3191
28354W        W47888  13.339   6.080  13.783 -0.2231  0.0203  0.0052
28355W        W47889   3.286   1.302   3.574  0.2820 -0.0881 -0.3109
28356W        W47890   1.585  11.192  15.773  0.1618  0.1381  0.0287
28357W        W47891   6.825   0.963  14.939 -0.0634  0.0586  0.0261
28358W        W47892   9.941   0.295   3.928  0.1411 -0.1644 -0.1767
28359W        W47893   6.703  17.228   1.974 -0.0399  0.1534 -0.2196
28360W        W47894   4.389  13.756  15.088  0.0083 -0.2397  0.0567
28361W        W47895   6.904   6.414  13.186 -0.1739  0.0500 -0.1464
28362W        W47896   6.599  11.610   0.237  0.0794 -0.0809 -0.1129
28363W        W47897  10.692  17.169  15.104 -0.2067  0.0754 -0.2720
28364W        W47898  13.524  12.190  12.062 -0.1979  0.0584 -0.1334
28365W        W47899   1.902  11.331   4.307  0.3513 -0.1077  0.1270
28366W        W47900   4.996  10.719   3.243  0.0216  0.0380  0.0507
28367W        W47901   5.706   7.921  14.254 -0.0330 -0.3058 -0.0186
28368W        W47902  17.823   3.210   1.645  0.0489 -0.1316  0.1142
28369W        W47903  15.446   2.407   1.836 -0.0228  0.1197 -0.1698
28370W        W47904  17.092   4.796  13.050 -0.1823 -0.0093 -0.0395
28371W        W47905  10.265   0.271  12.918 -0.0912  0.0930  0.1543
28372W        W47906   5.209   1.517   3.437 -0.2745  0.1188 -0.0261
28373W        W47907  16.415  15.645  14.757  0.0240 -0.0398  0.1660
28374W        W47908   4.435   7.380  12.604  0.1296  0.1629  0.1310
28375W        W47909  15.568  15.315  15.286 -0.1777 -0.3478  0.1886
28376W        W47910   6.059  16.506   2.591 -0.1495  0.0606  0.1329
28377W        W47911  15.700   8.091   2.836  0.0725  0.0842 -0.0455
28378W        W47912   8.035   5.435  14.281  0.2118 -0.0789 -0.0449
28379W        W47913   3.670   2.729   2.273  0.0980  0.2479 -0.1850
28380W        W47914  15.841   0.229   4.501  0.0570  0.0193 -0.2002
28381W        W47915   8.925   7.357  14.913 -0.1575  0.0595  0.0498
28382W        W47916  12.855  15.323  12.190 -0.0631 -0.1889  0.2002
28383W        W47917  11.971  10.352  11.404 -0.0069 -0.2221  0.0428
28384W        W47918  18.065  10.010   2.173  0.1616  0.1623  0.0001
28385W        W47919   6.355   9.536   1.849 -0.2365  0.0237 -0.4268
28386W        W47920   9.305  10.819  14.097 -0.2158 -0.0404 -0.2127
28387W        W47921   1.693   8.669   1.025 -0.0600  0.1033 -0.0613
28388W        W47922  17.006   1.056  12.645 -0.1473 -0.1041  0.1867
28389W        W47923   2.121  14.558   1.563  0.0481  0.0999  0.1493
28390W        W47924   6.237  14.234  15.410  0.0068 -0.1156 -0.2708
28391W        W47925   0.757  14.185  13.999  0.0587 -0.1981 -0.1300
28392W        W47926  17.615  17.681   2.349 -0.0415 -0.0184 -0.2329
28393W        W47927   0.440  15.526   0.625  0.0373 -0.0941 -0.0005
28394W        W47928  11.331  10.671   2.811 -0.1577 -0.0871  0.0613
28395W        W47929  16.273   8.927  13.828  0.5549 -0.0916  0.0182
28396W        W47930   5.229  11.577  13.155 -0.0640  0.2800  0.0428
28397W        W47931  10.156   3.266  15.080 -0.0738  0.0268  0.1667
28398W        W47932  15.889   5.352  11.970 -0.1346 -0.0831  0.1364
28399W        W47933  17.596   3.414  15.701  0.1485  0.2357  0.0914
28400W        W47934   2.890   2.768  15.801  0.1340 -0.1204  0.0500
28401W        W47935   2.973   3.833  15.591  0.0804  0.1738  0.0460
28402W        W47936  14.303   7.977   4.124  0.2977  0.1011 -0.0793
28403W        W47937   0.639   0.254  14.014 -0.1018  0.3311 -0.0063
28404W        W47938   2.202   0.904   2.402  0.0554  0.0983  0.2024
28405W        W47939   4.213  11.393   1.460 -0.0041 -0.0408 -0.2697
28406W        W47940  14.827   0.078  13.940  0.0436 -0.1717 -0.0217
28407W        W47941   3.372   2.407   1.522  0.0338  0.3366  0.1586
28408W        W47942  13.186  16.684   1.779  0.3171 -0.0891 -0.0975
28409W        W47943  13.880  10.592   4.157 -0.3332  0.1064 -0.1950
28410W        W47944   0.520   5.850   2.842 -0.1862 -0.1913 -0.0632
28411W        W47945  14.399   7.082   4.536 -0.0330  0.1088 -0.0760
28412W        W47946  11.444  17.121   4.610 -0.3437 -0.3999 -0.0936
28413W        W47947   9.239  16.256  12.174  0.0375  0.2313 -0.1378
28414W        W47948  10.362  14.894  15.025 -0.1091 -0.1443  0.3129
28415W        W47949   1.273   2.577  12.822 -0.0394 -0.0048 -0.0794
28416W        W47950   3.306   8.505   1.302  0.0966 -0.1414 -0.1204
28417W        W47951   7.057  10.396  14.606 -0.1271  0.0074 -0.0790
28418W        W47952   7.557  16.520   1.230  0.0822 -0.2789  0.0323
28419W        W47953   6.573  10.137   3.991  0.1382  0.0591  0.1015
28420W        W47954   1.882  18.061   3.102 -0.1861 -0.0684 -0.0037
28421W        W47955   9.955  14.277   3.478  0.0922  0.4561  0.1577
28422W        W47956   2.844   5.934   0.887  0.0754  0.0940 -0.2684
28423W        W47957  17.484   7.757   0.163  0.0192 -0.0163 -0.1805
28424W        W47958   9.341   7.942   0.288  0.0231 -0.1109  0.0586
28425W        W47959  17.482   8.597  14.448 -0.3552 -0.1729  0.2984
28426W        W47960   6.525   8.664   1.240 -0.0450 -0.0316 -0.1041
28427W        W47961   3.972  13.052   3.451 -0.0574 -0.0268 -0.1468
28428W        W47962   7.178  10.829  15.600  0.3346 -0.1956 -0.1069
28429W        W47963   4.292   9.505  13.756  0.1057  0.0193  0.0168
28430W        W47964   1.409  10.133   0.292 -0.0702 -0.2327 -0.1376
28431W        W47965  15.568  12.387   3.874  0.0273 -0.1551 -0.0367
28432W        W47966  11.967   6.219   4.374  0.0136 -0.2666  0.1048
28433W        W47967   0.929   1.025  12.891  0.0700  0.0032 -0.0482
28434W        W47968   1.017   8.296  15.262 -0.0335 -0.1205  0.1481
28435W        W47969  15.549   7.668  13.353  0.1009  0.0388  0.2989
28436W        W47970   7.733   6.778   1.763  0.2672 -0.2742  0.0537
28437W        W47971   6.748  15.953   1.806  0.1078  0.2630 -0.2746
28438W        W47972  13.679   6.256   1.386 -0.2999  0.1719 -0.0436
28439W        W47973  17.255   3.810  15.043 -0.0587  0.3562  0.0487
28440W        W47974   1.804  15.480  14.266  0.4513 -0.1389  0.1245
28441W        W47975  10.967   1.162   2.528  0.2360 -0.2118  0.1043
28442W        W47976  15.162   9.573  15.119 -0.1329 -0.0247  0.2070
28443W        W47977  17.971   6.942  13.258 -0.1826 -0.0826 -0.1792
28444W        W47978  16.997  16.555  14.062 -0.0285  0.0886  0.0808
28445W        W47979  11.501   9.422   0.266 -0.1126  0.1230  0.0634
28446W        W47980   2.887  13.124   3.729  0.0493 -0.2318 -0.0535
28447W        W47981  12.988   1.794   0.844  0.1421  0.1573  0.0987
28448W        W47982  14.229  11.082   4.209 -0.0879  0.1487  0.0347
28449W        W47983   9.628   9.371   0.261 -0.0418 -0.3705  0.1961
28450W        W47984  13.239   7.806  11.757  0.1121  0.2473 -0.0969
28451W        W47985  10.779  11.140  14.503 -0.0628 -0.1458  0.1319
28452W        W47986   4.881  12.316  10.972  0.0635 -0.1735 -0.1422
28453W        W47987  10.755  12.401  14.054 -0.1420  0.1799  0.1200
28454W        W47988  13.116  11.088  11.697 -0.0272  0.1043  0.0862
28455W        W47989   3.311  18.085   0.708 -0.0481  0.1006  0.0251
28456W        W47990  14.627   0.374  13.180  0.0587  0.1427  0.0938
28457W        W47991   3.170   2.921   2.409  0.0619  0.0166 -0.0259
28458W        W47992  14.959   1.016  11.978  0.1616  0.0708  0.1036
28459W        W47993  11.807  13.699   4.591  0.0351  0.0224  0.5022
28460W        W47994  16.221   8.751  15.374 -0.0746 -0.1650 -0.1462
28461W        W47995  13.591   7.645   0.382  0.0371 -0.1707  0.3575
28462W        W47996   0.195   9.348   4.348  0.2443  0.1460  0.0028
28463W        W47997   5.666  14.406  11.664 -0.2218 -0.0068  0.1580
28464W        W47998  14.889  11.708   2.448  0.1313  0.1881  0.0580
28465W        W47999   5.040   1.941   3.740  0.1262  0.2294  0.1323
28466W        W48000  15.976   2.953  15.144  0.2354 -0.0747 -0.2931
28467W        W48001  14.194   0.609   1.081 -0.1232  0.0148 -0.3315
28468W        W48002   0.505  16.243   4.351  0.0581 -0.0966  0.0415
28469W        W48003   8.546   4.491  10.705  0.0040 -0.0586  0.2747
28470W        W48004  10.647   6.499  12.118 -0.1669 -0.0311 -0.0541
28471W        W48005  16.031   8.049  14.118  0.2784 -0.3396 -0.1202
28472W        W48006  14.692  10.956  14.362  0.3275  0.2136  0.0658
28473W        W48007  14.912   4.724  13.679 -0.3812 -0.0982 -0.1495
28474W        W48008  16.597   9.918  13.960 -0.1440 -0.1276 -0.0500
28475W        W48009   8.516   1.022  12.508  0.0727  0.0629 -0.3096
28476W        W48010   4.162   0.314   1.535 -0.0805 -0.2016  0.0180
28477W        W48011   8.062   2.826   3.369 -0.0716 -0.2967  0.2055
28478W        W48012  16.197   8.566  14.191 -0.0875  0.0259 -0.1345
28479W        W48013   8.451   3.429   5.590  0.0152 -0.2108 -0.0461
28480W        W48014   1.504   1.672   0.933 -0.0604 -0.2016  0.0171
28481W        W48015   0.448   5.247  14.555 -0.2990  0.0510 -0.2782
28482W        W48016   9.175  15.664   3.154 -0.0774  0.1599 -0.0122
28483W        W48017   9.196   6.399  12.657  0.1385  0.0581 -0.2726
28484W        W48018   2.765   4.298   3.784 -0.1558 -0.0987 -0.1342
28485W        W48019   4.425   3.941  14.040 -0.2469  0.0546 -0.2729
28486W        W48020   5.312  12.129   3.089 -0.0960 -0.0879 -0.3025
28487W        W48021   1.031   4.862   4.065  0.1881  0.0309  0.1061
28488W        W48022   0.475  12.959   1.998 -0.2070  0.0838  0.1382
28489W        W48023  11.200  10.820  12.680 -0.3491  0.3760  0.1338
28490ION     NA48024   2.321  17.168  10.970 -0.0597  0.0656  0.0506
28491ION     NA48025   5.200  17.804   5.307  0.0942  0.0064  0.3243
28492ION     NA48026   9.917  10.232   1.412  0.0355 -0.2473 -0.0164
28493ION     NA48027   6.273   9.108  13.870 -0.1340 -0.1667  0.0253
28494ION     NA48028   3.227   2.132  11.425 -0.2987 -0.2883  0.0511
28495ION     NA48029   0.901  17.127   5.291 -0.2583  0.0710 -0.0980
28496ION     NA48030   4.456  10.718  15.001 -0.0433 -0.3261  0.1783
28497ION     NA48031   3.954  10.399   1.818  0.0010 -0.1902  0.0807
28498ION     NA48032   1.410  15.395  13.495  0.1011 -0.0121 -0.1979
28499ION     NA48033  10.813  12.694  10.877  0.0035  0.1670 -0.2155
28500ION     NA48034  12.893   5.241   0.971  0.1728  0.2473  0.0153
28501ION     NA48035  13.890   3.170   1.172 -0.1674 -0.0270  0.3151
28502ION     NA48036   3.933   5.577  14.680 -0.1734  0.2187  0.3213
28503ION     NA48037   5.708  12.707  13.647  0.5188  0.2545 -0.0843
28504ION     NA48038   1.626   9.680   5.450 -0.0655  0.1270 -0.0323
28505ION     NA48039   3.410   3.737   5.251  0.0893  0.1742  0.0724
28506ION     NA48040  13.287   2.805  10.556 -0.0962  0.0521 -0.2861
28507ION     NA48041   8.243  14.836  12.678  0.2733  0.3848  0.2655
28508ION     NA48042  10.320   2.767  10.676  0.2557  0.0551 -0.0142
28509ION     NA48043   2.030   7.532  12.166  0.1003  0.2544  0.2539
28510ION     NA48044   2.566   1.822   2.980  0.4242  0.0906 -0.2109
28511ION     NA48045  14.123   3.292  13.318 -0.1342 -0.2673 -0.0022
28512ION     NA48046  12.446   4.930   5.636 -0.1192  0.2537 -0.1006
28513ION     NA48047  15.136  15.937  10.956 -0.0064  0.2315 -0.6886
28514ION     NA48048  14.195   3.660   2.558  0.0664 -0.0961  0.0253
28515ION     NA48049  11.610   1.596  15.369 -0.1686  0.2419 -0.1515
28516ION     NA48050  13.330   1.838  10.715 -0.1605 -0.0038  0.3412
28517ION     NA48051   8.579  12.441  12.539 -0.0436 -0.1744  0.1183
28518ION     NA48052   3.098   2.298  13.680 -0.0313  0.1256 -0.1070
28519ION     NA48053   0.446  11.668   5.028  0.3025 -0.1902 -0.4855
28520ION     NA48054  12.643   3.013   4.039  0.1115 -0.2395  0.0979
28521ION     NA48055   0.092   1.519   4.757  0.1610 -0.0179 -0.2948
28522ION     NA48056   7.499  14.777   5.498 -0.2939 -0.0318 -0.1311
28523ION     NA48057   7.661   7.539   5.502  0.1945  0.2044 -0.1986
28524ION     NA48058  12.734  10.624  10.630 -0.0859  0.0833 -0.0406
28525ION     NA48059  13.730   2.128   2.024  0.0729  0.0798  0.0658
28526ION     NA48060  12.922  16.017   5.393  0.1617  0.2154 -0.0346
28527ION     NA48061   4.998   1.714  14.448 -0.0113  0.2556 -0.0369
28528ION     NA48062  16.276   8.592  15.839  0.1125  0.1999  0.0599
28529ION     NA48063   5.792   7.872   5.189 -0.2646  0.0267  0.0091
28530ION     NA48064   9.751   2.678  10.583 -0.2028 -0.1188  0.0599
28531ION     NA48065   6.826  11.661  10.511  0.2479  0.1330 -0.1057
28532ION     NA48066   5.038   1.235  10.616  0.1520 -0.0728  0.1092
28533ION     NA48067  13.327  13.012  10.649 -0.2239 -0.0494 -0.1315
28534ION     NA48068  13.539  16.484  10.803 -0.0111  0.2468  0.0654
28535ION     NA48069  16.272   7.218   4.550 -0.1484  0.1365 -0.0359
28536ION     NA48070   7.640   6.768   0.707 -0.2603 -0.0591 -0.1149
28537ION     NA48071   8.933  12.285  13.960 -0.0669 -0.1844 -0.2669
28538ION     NA48072  16.599   9.201  14.627 -0.1121 -0.0753  0.0468
28539ION     NA48073   4.032  18.070   0.731 -0.1149 -0.0211 -0.3112
28540ION     NA48074   2.703  10.835   5.409 -0.1770  0.0528  0.0519
28541ION     NA48075   9.470   0.105  10.584 -0.1265  0.3507  0.2303
28542ION     NA48076   0.581   4.784  14.665  0.0271 -0.2343  0.0789
28543ION     NA48077   8.178   6.011  10.398  0.0566 -0.2169 -0.1145
28544ION     NA48078  16.653   0.302   2.543 -0.0869  0.0122 -0.2871
28545ION     NA48079   8.905  13.794  14.591 -0.0190 -0.0620 -0.1050
28546ION     NA48080   0.054   8.896  10.977  0.0319 -0.0415  0.2136
28547ION     NA48081  17.968  15.357   0.471  0.0052  0.1508  0.2882
28548ION     NA48082   6.998   3.231  15.246  0.0383  0.1319 -0.0978
28549ION     NA48083  11.384   5.647   0.225 -0.1178 -0.1720 -0.1335
28550ION     NA48084   8.539  12.568   5.934 -0.0272 -0.0688  0.2287
28551ION     NA48085   4.930   7.021  11.468  0.1475  0.0196 -0.1300
28552ION     NA48086  12.104   8.090   5.440  0.2179 -0.1115  0.1806
28553ION     NA48087   8.472   8.919  11.517 -0.0688  0.3305 -0.0491
28554ION     NA48088   2.639   2.344  14.607 -0.0138  0.3594  0.0571
28555ION     NA48089  16.001   1.649   2.305  0.0731  0.0161 -0.1065
28556ION     NA48090  16.267   9.965  10.870  0.3636  0.1048  0.1571
28557ION     NA48091  17.455  12.985  11.193  0.0344  0.0161  0.0322
28558ION     NA48092  16.982  13.438   3.482 -0.1499 -0.1140  0.2465
28559ION     NA48093   8.042  10.473  11.041  0.0683  0.0104 -0.1533
28560ION     NA48094   0.958   2.846   3.732 -0.0647 -0.0721 -0.1295
28561ION     NA48095   5.632  12.881  10.355 -0.0062  0.1521 -0.1071
28562ION     NA48096  15.432  16.614  10.752  0.0631 -0.3119  0.0346
28563ION     NA48097  17.693   3.707   4.453 -0.0904  0.4016 -0.1600
28564ION     NA48098   6.341  11.384  14.779  0.1130 -0.0184  0.1675
28565ION     NA48099  10.255   3.008   5.492 -0.0082 -0.1170  0.0231
28566ION     NA48100   5.497  13.683   4.653  0.0380 -0.0489 -0.0778
28567ION     NA48101   8.241  11.757   0.597  0.2468 -0.0896  0.0858
28568ION     NA48102   5.316  11.538  10.555 -0.2379 -0.0038 -0.3347
28569ION     NA48103   1.435   1.749  10.505  0.1802  0.0474 -0.0796
28570ION     NA48104  14.140  13.591  14.387 -0.0288  0.0074 -0.0991
28571ION     NA48105  11.902  14.094   3.400  0.1944  0.1921 -0.0249
28572ION     NA48106  11.863   1.631   4.422  0.1110 -0.0596 -0.2277
28573ION     NA48107   8.736  15.006  13.784  0.1928  0.1194 -0.4217
28574ION     NA48108   9.938   1.804  10.580  0.0061 -0.4018 -0.0431
28575ION     NA48109   1.711   9.672  10.340  0.0000  0.0596  0.0315
28576ION     NA48110  16.270  16.589   5.547  0.2406 -0.1017 -0.0129
28577ION     NA48111   8.466  11.370  12.998  0.1609  0.1282 -0.0765
28578ION     NA48112   7.121  16.141   5.192 -0.0672 -0.0224  0.2104
28579ION     NA48113  17.586  17.809   0.753 -0.2835 -0.2491  0.3408
28580ION     NA48114   4.019   4.122  10.501 -0.0008 -0.3349 -0.1981
28581ION     NA48115  16.281  15.681   0.341 -0.0388 -0.1763 -0.0748
28582ION     NA48116   6.120  10.419  13.844 -0.1363  0.0234 -0.1398
28583ION     NA48117   6.941  16.942   1.661  0.2303 -0.0157 -0.0536
28584ION     NA48118  18.181   7.952   5.304 -0.2168  0.2571  0.1163
28585ION     NA48119   9.667  12.489  10.745  0.0427 -0.1219 -0.1806
28586ION     NA48120   9.903   2.844   0.439  0.1212  0.1867  0.1709
28587ION     NA48121   7.471  16.097  14.655 -0.2286  0.2704 -0.0043
28588ION     NA48122  14.206  13.171   4.250  0.2921  0.2589 -0.1477
28589ION     NA48123   8.722   3.470  14.147 -0.2657  0.0396 -0.0567
28590ION     NA48124  15.943   9.124  10.632 -0.0605 -0.0393 -0.0965
28591ION     NA48125  11.079  10.326   4.747 -0.1501 -0.1202 -0.1331
28592ION     NA48126  14.154   9.546  15.876  0.2188 -0.0801 -0.2017
28593ION     NA48127   6.147  12.418   0.587 -0.0750 -0.2045 -0.0103
28594ION     NA48128  12.797  13.774  10.422 -0.0088 -0.1709  0.3400
28595ION     NA48129   7.232  13.286   2.273  0.0205  0.2324  0.0641
28596ION     NA48130   6.176  14.353   0.206  0.0823 -0.0196  0.0009
28597ION     NA48131   7.717  15.193  16.030  0.2084  0.1635  0.0644
28598ION     NA48132   0.160  17.332   0.013 -0.2817  0.1078  0.0989
28599ION     NA48133  15.574   6.172  11.106 -0.0981  0.2788  0.2337
28600ION     NA48134  12.321   2.660   3.313 -0.0653 -0.0051 -0.2125
28601ION     NA48135  12.332  15.754  10.907 -0.1867 -0.1055 -0.2474
28602ION     NA48136   0.865  17.355   1.407 -0.2369  0.0365  0.3157
28603ION     NA48137  11.363  10.381   2.307  0.2521 -0.1722 -0.1345
28604ION     NA48138  10.068   4.591  10.963 -0.1068  0.1558 -0.0336
28605ION     NA48139  17.868   3.177   5.698 -0.1627 -0.0359 -0.1799
28606ION     NA48140  13.276   7.663  10.923 -0.1712  0.0694  0.1346
28607ION     NA48141   2.420   5.403   1.567 -0.0111  0.2064 -0.0795
28608ION     NA48142  15.464   4.650  14.001  0.0430  0.1746 -0.1027
28609ION     NA48143   1.538  16.339   5.085  0.0614 -0.3121 -0.0148
28610ION     NA48144   1.203   3.555   2.168  0.0882 -0.1976 -0.0052
28611ION     NA48145   3.348   6.393   1.486 -0.0428  0.0490 -0.3741
28612ION     NA48146   2.258   0.828   5.069  0.2804  0.4240 -0.0849
28613ION     NA48147  13.631  11.102   4.108 -0.2134 -0.0964 -0.1786
28614ION     NA48148  14.288   5.251   5.563 -0.1230  0.1382  0.2974
28615ION     NA48149   0.867   9.121   5.534  0.0888 -0.1259  0.1099
28616ION     NA48150   9.435   6.628  14.598  0.0264 -0.1273 -0.2112
28617ION     NA48151  10.181   8.524   5.465  0.2078  0.0149 -0.1553
28618ION     NA48152   8.424   6.024   3.855  0.3082 -0.0958  0.3328
28619ION     NA48153  11.662   9.623  12.376 -0.1935  0.1499  0.1051
28620ION     NA48154   0.362   4.891   3.248  0.0036 -0.0353  0.0848
28621ION     NA48155  13.568  10.586  10.927  0.0921 -0.0045 -0.1287
28622ION     NA48156  16.943   9.976   2.855  0.1357  0.0861 -0.1128
28623ION     NA48157  13.805  15.812  14.164  0.1024  0.1687  0.0082
28624ION     NA48158   7.289   8.840   5.398  0.0918 -0.0679  0.1296
28625ION     NA48159  13.489   9.162  10.808  0.0291  0.2856  0.0543
28626ION     NA48160  13.417   4.453  15.956  0.0027  0.2287 -0.0566
28627ION     NA48161   8.361  12.258   1.398 -0.1629 -0.0912 -0.0692
28628ION     NA48162   2.561   5.054  10.591  0.2069  0.0432 -0.2983
28629ION     NA48163  13.606  15.398   4.507 -0.2001 -0.0400 -0.2704
28630ION     NA48164   1.081  12.177   3.118 -0.2158 -0.1919  0.4287
28631ION     NA48165   4.385   7.078  10.517  0.1409  0.1478  0.2205
28632ION     NA48166  10.367   4.852   5.556  0.2952 -0.1626  0.1029
28633ION     NA48167  12.695   2.228   5.439 -0.2025 -0.0183  0.0087
28634ION     NA48168   9.950   4.471  10.532  0.0750  0.2341  0.0876
28635ION     NA48169   8.892   5.400  10.683 -0.1044 -0.0996  0.0990
28636ION     NA48170   0.024   6.529  11.463 -0.1704  0.0986  0.0358
28637ION     NA48171  11.878  15.780  13.231  0.1140 -0.1247  0.0603
28638ION     NA48172  15.746   5.442  15.381  0.1855 -0.2919 -0.3712
28639ION     NA48173  16.350   3.851  15.292  0.0911  0.0236  0.2312
28640ION     NA48174   0.215  17.665  11.668  0.2022  0.0235  0.1558
28641ION     NA48175   5.857   0.107  14.979  0.0415 -0.0161 -0.0640
28642ION     NA48176   9.553   3.882   4.766 -0.2870  0.1404 -0.3100
28643ION     NA48177   3.729   0.010  14.311 -0.0348  0.0576  0.1701
28644ION     NA48178   6.953  16.610  10.662 -0.0781  0.2013 -0.0293
28645ION     NA48179   6.939   8.062   5.174  0.1536 -0.0683  0.1087
28646ION     NA48180   2.431  14.160  10.838  0.3560 -0.0989  0.1779
28647ION     NA48181   0.741   7.087  13.878  0.1400  0.1647 -0.2606
28648ION     NA48182  17.502   7.240  11.769  0.0450  0.1819  0.0035
28649ION     NA48183  14.548  15.688  13.920 -0.1980  0.2598 -0.4043
28650ION     NA48184  14.556   1.697  13.088  0.0972  0.2640  0.0239
28651ION     NA48185   0.150   8.114  11.806 -0.1915 -0.0283  0.2296
28652ION     NA48186   5.539  13.289  13.065  0.0109  0.1671 -0.0020
28653ION     NA48187  15.821   4.261  14.712 -0.0555  0.0150  0.2720
28654ION     NA48188  10.604  15.776  11.913 -0.0803 -0.0783 -0.1848
28655ION     NA48189  16.094  14.447   4.436 -0.0468 -0.1011 -0.0345
28656ION     NA48190  13.462   5.796  13.001  0.2264 -0.2621  0.2736
28657ION     NA48191  16.896   0.530  14.161 -0.3118  0.1399  0.0274
28658ION     NA48192   0.201  12.295   4.547 -0.0075  0.1397  0.3101
28659ION     NA48193  12.543   5.560   4.243 -0.0009  0.3810 -0.1505
28660ION     NA48194   1.398   1.634   3.643  0.2012 -0.1817  0.0045
28661ION     NA48195   8.726   9.543   5.542  0.1744 -0.0089 -0.0041
28662ION     NA48196   9.943   2.597   1.416 -0.1385 -0.1277 -0.2225
28663ION     NA48197  17.427   4.493   5.708 -0.1019 -0.2502 -0.1124
28664ION     NA48198  14.019   3.521  10.935 -0.0247  0.0979  0.0410
28665ION     NA48199  17.472  17.400  12.989  0.0522 -0.1619  0.0741
28666ION     NA48200   6.301  10.713  11.538  0.1915  0.0937 -0.1176
28667ION     NA48201   1.983   2.323  16.012 -0.0097 -0.0838  0.1347
28668ION     NA48202  16.407  17.363   5.567  0.0911  0.0844  0.2021
28669ION     NA48203   7.449  12.122  10.531 -0.2595  0.4063  0.1460
28670ION     NA48204   7.896  14.369   5.476  0.0326  0.0463 -0.1410
28671ION     NA48205   1.648   7.076   4.149 -0.1773  0.1388 -0.1535
28672ION     NA48206  10.122  15.831   3.416 -0.3697 -0.0551  0.0289
28673ION     NA48207  15.265  15.407  14.908  0.1892  0.0037  0.2317
28674ION     NA48208  15.662   8.695   5.516  0.3050 -0.0105 -0.3354
28675ION     NA48209   1.517  17.426  14.571  0.0009 -0.0478  0.0045
28676ION     NA48210   4.304   9.141   1.569  0.0684  0.0789  0.0674
28677ION     NA48211  14.861   9.281  10.736 -0.0474  0.0051 -0.0827
28678ION     NA48212   8.987   3.154  15.293 -0.0393  0.1068  0.4314
28679ION     NA48213   0.522   3.275   5.200 -0.0586 -0.1483 -0.2587
28680ION     NA48214  14.570   7.847  12.630 -0.1165  0.0559 -0.0162
28681ION     NA48215   3.037   6.920  10.684 -0.2979  0.0825  0.0447
28682ION     NA48216  11.822  15.146  10.726 -0.4488 -0.2003 -0.1182
28683ION     NA48217  15.228  13.494  11.272  0.0098  0.0028  0.2235
28684ION     NA48218  11.541   1.078  11.301  0.1810  0.0495  0.0151
28685ION     NA48219   5.252  11.814   5.334  0.4497 -0.1230 -0.0617
28686ION     NA48220   3.118  14.523  10.741  0.1508  0.0058  0.2808
28687ION     NA48221  14.253  12.378  13.156 -0.2622  0.0311  0.2593
28688ION     NA48222   4.634  10.163   5.479  0.1417 -0.1065  0.1921
28689ION     NA48223  13.182   9.668   5.391 -0.0417 -0.2968  0.2589
28690ION     NA48224   3.784  11.173   1.660 -0.0434  0.2935 -0.0252
28691ION     NA48225  13.756   2.078  15.982  0.0134  0.1210 -0.0577
28692ION     NA48226   0.774   0.216  10.566 -0.1646  0.3119 -0.0348
28693ION     NA48227   0.186  17.768   5.171 -0.0943 -0.1318 -0.0184
28694ION     NA48228   7.361   9.692  11.058  0.0398 -0.0546  0.0655
28695ION     NA48229   5.647   0.852  12.658  0.1256  0.0911  0.0602
28696ION     NA48230   1.305  10.382  12.733 -0.2418 -0.0821 -0.1426
28697ION     NA48231  14.908   8.829   5.694  0.3176  0.2664  0.2574
28698ION     NA48232  10.990   1.915  12.344  0.1230  0.1836  0.0898
28699ION     NA48233  15.887   1.297   5.917  0.1953 -0.1548 -0.1606
28700ION     NA48234   1.393  13.329   5.503 -0.1578 -0.0178  0.0262
28701ION     NA48235  14.951  17.043  15.528  0.3633 -0.1225  0.3241
28702ION     NA48236  12.565   2.251  10.645  0.0263  0.2351 -0.1959
28703ION     NA48237   1.817   0.771   1.617  0.0960 -0.0069 -0.1454
28704ION     NA48238   4.967   5.525  10.806 -0.0651 -0.0376 -0.1141
28705ION     NA48239  17.058   3.024   3.165 -0.0381 -0.2953 -0.0167
28706ION     NA48240  11.567   7.464   5.619 -0.0966  0.0133 -0.2573
28707ION     NA48241  15.377   2.698  15.248  0.1472  0.1175 -0.0581
28708ION     NA48242   0.827   9.008   1.434 -0.1687 -0.2152 -0.1657
28709ION     NA48243  17.483   6.577   1.824 -0.0917  0.0036  0.0589
28710ION     NA48244   0.931   6.028  11.635 -0.0061  0.0176  0.2851
28711ION     NA48245   7.189   8.340  11.309 -0.0344  0.2597 -0.2339
28712ION     NA48246  17.709   8.288   3.637  0.0911 -0.1902  0.2961
28713ION     NA48247  13.901   1.399   5.785  0.1422  0.0721  0.1614
28714ION     NA48248   9.456   0.226   5.365  0.1010  0.1915 -0.0421
28715ION     NA48249   4.651   2.128  15.089  0.0353 -0.1011  0.0434
28716ION     NA48250   2.040  12.539   5.463 -0.2600 -0.0447 -0.0316
28717ION     NA48251  15.977   0.978  12.785  0.0503 -0.1301  0.1096
28718ION     NA48252  16.480   1.882   1.189  0.1818  0.0125 -0.0093
28719ION     NA48253   9.131  11.911   1.946 -0.1810 -0.2334 -0.0443
28720ION     NA48254  10.415  12.306   0.888 -0.0558  0.1229 -0.1639
28721ION     NA48255  17.921  11.055   5.471 -0.0227  0.0040  0.2040
28722ION     NA48256  13.814   1.770   0.895  0.1329  0.0504  0.1501
28723ION     NA48257   1.025  13.474   4.106  0.0673  0.0039  0.1253
28724ION     NA48258  11.841  11.903   2.702 -0.0560  0.3122 -0.2285
28725ION     NA48259  12.475   8.884   5.561  0.2838 -0.2602 -0.0264
28726ION     NA48260  14.664   5.799  14.374 -0.0435  0.1529  0.0192
28727ION     NA48261  13.627  15.252  15.472 -0.0362 -0.2240  0.0069
28728ION     NA48262  15.204   3.622  12.539  0.1001  0.0455  0.2060
28729ION     NA48263   6.662  12.412   4.513  0.4189 -0.1052  0.0326
28730ION     NA48264   8.781  12.850   0.119  0.1067  0.0277 -0.1640
28731ION     NA48265   5.471   5.422   1.228  0.0580  0.0608  0.1428
28732ION     NA48266   1.758  14.693  11.120 -0.1480  0.1567  0.2314
28733ION     NA48267   4.460   6.121   1.951  0.0122 -0.2113  0.0549
28734ION     NA48268   4.493  11.913  15.734  0.1675 -0.1468 -0.0276
28735ION     NA48269  15.432   5.892  10.681  0.1498 -0.1388 -0.1472
28736ION     NA48270   4.647  16.392  15.322  0.1518  0.3892  0.2202
28737ION     NA48271  11.153  10.954  15.273  0.0534  0.1724 -0.4218
28738ION     NA48272   3.031   2.922  12.227 -0.0235 -0.0255 -0.0786
28739ION     NA48273   7.460  10.234   5.763  0.0893 -0.2489 -0.0201
28740ION     NA48274  11.483   1.750   1.529  0.1441 -0.0008  0.3690
28741ION     NA48275  14.079   0.173  10.917 -0.2366  0.0758 -0.0942
28742ION     NA48276  15.140  12.439  11.017 -0.0396  0.0263 -0.0078
28743ION     NA48277  14.048  12.823   0.563  0.1405  0.0527 -0.1018
28744ION     NA48278   3.075   6.278   0.639  0.3418 -0.1951  0.1353
28745ION     NA48279  16.773   1.781   5.805  0.0850 -0.0034 -0.2808
28746ION     NA48280   3.207  10.632  12.240  0.0589  0.3404  0.1245
28747ION     NA48281  10.163  10.123   5.683  0.1086 -0.1480  0.2891
28748ION     NA48282   3.059   5.968  10.677  0.0394  0.2181  0.2176
28749ION     NA48283  14.466   5.994   5.192 -0.1824 -0.2288 -0.0246
28750ION     NA48284   6.783   1.761  11.956 -0.0668  0.3001 -0.0859
28751ION     NA48285   6.539   0.116  15.618  0.0662 -0.2659  0.1006
28752ION     NA48286   2.113  13.773   2.190  0.0715  0.1971  0.2091
28753ION     NA48287   4.932   9.193  14.204 -0.3577  0.1188 -0.2739
28754ION     NA48288   9.857  11.269  13.036 -0.0688  0.3697 -0.2561
28755ION     NA48289  10.213  11.090  15.616  0.0919  0.2282 -0.0106
28756ION     NA48290  14.859  16.144   3.643  0.0084 -0.3082  0.3238
28757ION     NA48291   8.840   4.894  13.757 -0.1427  0.5574  0.1959
28758ION     NA48292   2.751  11.968   5.580  0.1027 -0.0714  0.3112
28759ION     NA48293  17.725   4.831   5.175 -0.0210  0.1673  0.0031
28760ION     NA48294   1.224   0.776  15.639  0.0730  0.0171 -0.2897
28761ION     NA48295  14.767  17.588  13.021  0.1888  0.2228 -0.3242
28762ION     NA48296   6.738  14.579  15.450 -0.0655 -0.0171 -0.0447
28763ION     NA48297  17.303  11.452   1.921  0.1032 -0.2476 -0.1334
28764ION     NA48298  10.305   1.165  10.859 -0.2449  0.2627  0.4434
28765ION     NA48299   4.090   0.476   4.364  0.1898 -0.1185 -0.0658
28766ION     NA48300  16.928   4.098  10.610  0.0765 -0.1887 -0.0729
28767ION     NA48301   7.913  14.744   3.122 -0.0397 -0.0711  0.0228
28768ION     NA48302  10.089  11.080   2.322 -0.1058  0.1606 -0.1168
28769ION     NA48303  16.441  15.069   2.686  0.1491  0.1873 -0.1188
28770ION     NA48304  15.084  10.037  13.833  0.1018  0.1368  0.2325
28771ION     NA48305  14.554   4.335   2.323  0.1516  0.0903 -0.1179
28772ION     NA48306   6.349   0.820  15.206  0.1643 -0.1292 -0.0166
28773ION     NA48307  12.392   7.924   0.026 -0.1131 -0.0198 -0.0619
28774ION     NA48308  11.095   2.795   3.192 -0.1812 -0.0654  0.1782
28775ION     NA48309   3.136  11.503  13.313 -0.0405 -0.2222 -0.2297
28776ION     NA48310  11.738   9.698  14.419 -0.4323  0.0975 -0.2799
28777ION     NA48311  10.477   8.735  14.427  0.2294  0.0144 -0.0835
28778ION     NA48312   6.367   1.204   5.080  0.2100  0.1832 -0.2511
28779ION     NA48313  17.315  15.322  14.448  0.4018  0.1483 -0.1654
28780ION     NA48314   3.160  17.355   1.422 -0.2207 -0.2072  0.0268
28781ION     NA48315  13.614   8.647  10.860  0.2251  0.2239  0.0760
28782ION     NA48316  17.120  16.608   5.181  0.1975  0.1929 -0.2365
28783ION     NA48317  11.878   5.941   2.137  0.1998  0.0125  0.0085
28784ION     NA48318   2.397   7.383   4.380 -0.0425 -0.2701 -0.1353
28785ION     NA48319   6.395   7.980  14.592 -0.0425 -0.0415  0.0708
28786ION     NA48320   7.581   8.285  10.763  0.1631 -0.1175 -0.1693
28787ION     NA48321   0.878   1.106   2.800  0.0713  0.1207 -0.0717
28788ION     NA48322  10.667   4.801   1.614 -0.0705  0.0964  0.0133
28789ION     NA48323   5.470   8.850  10.525  0.1858 -0.0400 -0.0550
28790ION     NA48324  12.587  15.755  12.544  0.0795 -0.1217 -0.0021
28791ION     NA48325  11.717   8.611   0.090  0.0397 -0.3446 -0.3442
28792ION     NA48326   4.985  17.891  10.302  0.0605  0.1076 -0.1215
28793ION     NA48327  15.526   7.827  10.679  0.2067  0.3876  0.0441
28794ION     NA48328   4.443  16.614   2.695 -0.0149 -0.1054 -0.1279
28795ION     NA48329   3.751  12.846  14.467 -0.0548  0.2276  0.2896
28796ION     NA48330  17.947  14.442  11.336 -0.0034  0.3174 -0.0311
28797ION     NA48331   5.151   4.010  14.465 -0.0989  0.2904  0.2728
28798ION     NA48332  10.907  12.422   5.348  0.0299 -0.1317  0.2609
28799ION     NA48333   7.582   6.324  11.017 -0.0738  0.0860 -0.0677
28800ION     NA48334   1.736   5.052   1.824 -0.2359 -0.0155 -0.0720
28801ION     NA48335  12.998   2.931  11.412 -0.0434  0.1771  0.1044
28802ION     NA48336   9.389   6.946   3.954 -0.2211 -0.1340 -0.1606
28803ION     NA48337   5.590  12.684   2.627 -0.0097  0.3219 -0.0129
28804ION     NA48338  13.619  13.653   5.744 -0.0543 -0.0338 -0.0422
28805ION     NA48339   7.188   3.135   3.077  0.0372  0.0557  0.0061
28806ION     NA48340  13.843  17.119  14.522 -0.0390 -0.0598 -0.2754
28807ION     NA48341  14.075   9.743   1.205 -0.1947 -0.2379 -0.0478
28808ION     NA48342   4.944   9.804   1.949 -0.0199  0.0474 -0.0875
28809ION     NA48343  17.824   3.750  12.441 -0.2745  0.5842  0.0631
28810ION     NA48344   2.507   7.525  10.911 -0.2565  0.2675  0.1612
28811ION     NA48345   3.776  17.127   2.881  0.1793  0.0100  0.0892
28812ION     NA48346   4.337  11.854   5.278  0.3651 -0.2625  0.4788
28813ION     NA48347  11.921   8.404  11.106 -0.2651 -0.1586  0.3255
28814ION     NA48348  13.081   3.541   0.106 -0.1033  0.4146 -0.0088
28815ION     NA48349  12.785   5.976  12.509  0.1172 -0.2000 -0.1896
28816ION     NA48350   4.647   6.266  10.508  0.0863  0.0010 -0.3419
28817ION     NA48351  14.205  18.062   3.366 -0.0332  0.0369  0.2887
28818ION     NA48352   8.163  13.529  15.251  0.0797 -0.3242 -0.1754
28819ION     NA48353  12.876   6.329  10.789 -0.1547  0.2630  0.2520
28820ION     NA48354  13.211   3.550   1.580  0.2286  0.0223  0.2101
28821ION     NA48355  14.080  16.449  12.946 -0.2341  0.1591  0.0896
28822ION     NA48356   4.202   2.649  11.468 -0.1989  0.2036  0.1391
28823ION     NA48357   3.965  17.780   5.093  0.3219  0.0598  0.1788
28824ION     NA48358  13.898   3.307   5.718  0.2243 -0.1121  0.2416
28825ION     NA48359  14.744  14.153  11.120  0.2428 -0.0143  0.1770
28826ION     NA48360   6.623   9.398   0.180 -0.1507 -0.0980 -0.1161
28827ION     NA48361   7.276   5.543  13.580  0.0819 -0.2079 -0.1517
28828ION     NA48362  13.568   5.381  13.640  0.0589  0.1116 -0.2744
28829ION     NA48363  15.780  13.408   2.184  0.0239 -0.0865 -0.0771
28830ION     NA48364   8.250   1.124   2.915 -0.0061 -0.2077  0.2482
28831ION     NA48365   0.363   7.084  12.435 -0.0361 -0.1138 -0.1909
28832ION     NA48366   3.111   3.056   0.211  0.0636  0.0004  0.2741
28833ION     NA48367   4.352   9.143   2.599  0.2450  0.0904 -0.0027
28834ION     NA48368  17.050   6.684  10.839 -0.2464  0.0826 -0.1874
28835ION     NA48369  16.008   5.964   2.750 -0.1839 -0.0379  0.0737
28836ION     NA48370  11.741   3.608  14.413 -0.1201 -0.0483  0.0766
28837ION     NA48371  11.969  16.738   3.889 -0.1768  0.0797  0.4392
28838ION     NA48372  14.119   0.542   5.944  0.0955  0.0244  0.0834
28839ION     NA48373   9.825  13.066  13.339 -0.0101  0.2604 -0.1955
28840ION     NA48374  10.166  16.815  10.658  0.1150 -0.2376  0.2768
28841ION     NA48375   4.781   8.591   0.441 -0.0254  0.0912  0.1090
28842ION     NA48376   8.823   9.889   1.426 -0.3401 -0.2004 -0.1599
28843ION     NA48377   6.915  16.675   5.298  0.0098 -0.1715  0.1066
28844ION     NA48378   5.332   1.139   4.890  0.0866 -0.1930  0.1804
28845ION     NA48379  10.275   6.474  11.742 -0.1562  0.0992 -0.0483
28846ION     NA48380  13.425   0.979  10.945  0.1414  0.2471  0.0191
28847ION     NA48381  14.591   2.093   4.416  0.1000 -0.0633 -0.1503
28848ION     NA48382   0.172   1.146   5.206  0.2398  0.0130  0.0868
28849ION     NA48383   2.285   5.333  12.709  0.1092  0.0339 -0.3161
28850ION     NA48384  17.354   3.163  10.624 -0.4101 -0.0323  0.3157
28851ION     NA48385  10.171  14.363   3.025 -0.0654  0.2457 -0.2822
28852ION     NA48386  18.090   7.706   3.174  0.3386 -0.2384  0.1354
28853ION     NA48387  10.544   0.638  14.337  0.1064 -0.1077 -0.3543
28854ION     NA48388  10.145   8.284  15.286 -0.2076  0.0353  0.0163
28855ION     NA48389   2.815   4.050   0.418 -0.0022 -0.1687  0.1420
28856ION     NA48390   6.365   0.342  10.406  0.2450  0.2217 -0.2721
28857ION     NA48391  13.181   6.135   1.942 -0.0597 -0.1160  0.0073
28858ION     NA48392   3.109   8.861  15.499  0.0205  0.2104  0.0115
28859ION     NA48393   8.648   8.327  15.438  0.2283  0.3124 -0.0264
28860ION     NA48394   1.960  18.126   5.071  0.1342  0.0425  0.7579
28861ION     NA48395  14.586  10.694   5.767 -0.4105 -0.0661  0.0620
28862ION     NA48396   3.378   6.973   3.958 -0.0629 -0.0421  0.2076
28863ION     NA48397  13.372  13.478  13.296 -0.0476 -0.0653  0.0827
28864ION     NA48398  17.591   1.560   5.608 -0.2170 -0.1262 -0.0445
28865ION     NA48399   1.133   7.043  10.745  0.0246  0.1180 -0.0609
28866ION     NA48400  11.570   5.347  12.004 -0.1416 -0.0838  0.1025
28867ION     NA48401   1.428  13.324  10.740 -0.3401  0.2803 -0.0543
28868ION     NA48402  11.703   3.241  15.707  0.2841  0.0616 -0.1756
28869ION     NA48403  15.812   1.360  10.720 -0.1215 -0.4281  0.0352
28870ION     NA48404  15.809   8.788   4.726 -0.0403 -0.2321 -0.0711
28871ION     NA48405   8.483   8.952   1.038 -0.0084 -0.1421  0.1791
28872ION     NA48406  15.562   5.467   4.289  0.0349  0.0492 -0.1538
28873ION     NA48407   7.126   4.357  15.860 -0.2712 -0.2238  0.1806
28874ION     NA48408  13.000   0.513  14.223 -0.2200  0.1192 -0.0646
28875ION     NA48409  13.841   0.924  15.116 -0.0678 -0.0931  0.0760
28876ION     NA48410  11.764  18.063   5.548  0.1539 -0.1772  0.1892
28877ION     NA48411  14.630  10.645  13.408 -0.2289  0.0223  0.3209
28878ION     NA48412   6.951   2.860  13.375  0.0356 -0.0035  0.0900
28879ION     NA48413   8.083   9.659   2.478 -0.2847 -0.1297 -0.3937
28880ION     NA48414  15.793   5.952   5.122 -0.0474  0.0682 -0.0703
28881ION     NA48415  16.061   0.574  13.585  0.1387 -0.1237 -0.0171
28882ION     NA48416   8.915  14.686   0.084 -0.4762 -0.1342 -0.0874
28883ION     NA48417  16.953   9.310   0.687  0.0595 -0.1535 -0.1660
28884ION     NA48418   9.719   9.451   0.994 -0.1405  0.1560 -0.2543
28885ION     NA48419   4.337  15.171  15.433 -0.0735 -0.1308  0.1342
28886ION     NA48420   1.094  17.683  13.942  0.1203 -0.1605  0.2247
28887ION     NA48421  10.938  14.384   5.348  0.0723  0.1429 -0.2446
28888ION     NA48422   5.488  17.328   1.394  0.0868 -0.2643 -0.1943
28889ION     NA48423   6.020  16.897   5.067 -0.0465 -0.0106 -0.0749
28890ION     NA48424  12.036  13.341  10.467 -0.5286  0.3208 -0.0894
28891ION     NA48425   6.375  10.808   3.554 -0.2232  0.1525 -0.5695
28892ION     NA48426   8.395  11.691   6.089  0.1182 -0.0125  0.0419
28893ION     NA48427  13.785  12.039  10.601  0.0301 -0.0978 -0.2474
28894ION     NA48428  13.347   0.719   5.781 -0.0212 -0.4004  0.1420
28895ION     NA48429  13.304   3.747  10.547  0.1466  0.0596 -0.1503
28896ION     NA48430   4.815  15.332  14.322  0.3688  0.2085  0.0462
28897ION     NA48431   5.382   2.938  14.343 -0.1874  0.0427 -0.2546
28898ION     NA48432  10.635   9.602   0.208 -0.3053 -0.0472 -0.0156
28899ION     NA48433   4.253  17.166   4.906 -0.3606  0.1485 -0.1633
28900ION     NA48434   0.635  18.179   3.489 -0.0280  0.3059 -0.0600
28901ION     NA48435  18.190   4.018   5.467  0.0841  0.0409 -0.1619
28902ION     NA48436   6.248   4.527   0.902 -0.0647  0.1957 -0.4102
28903ION     NA48437  10.633   3.139   4.117 -0.2539 -0.2587 -0.0134
28904ION     NA48438   2.067  16.667  13.603  0.1610 -0.0963  0.0612
28905ION     NA48439   1.002   8.272  14.353  0.1791  0.2236  0.1629
28906ION     NA48440  17.669   5.557  15.711 -0.2066 -0.4142  0.0166
28907ION     NA48441  14.099   3.333  15.201  0.1268 -0.0438  0.2127
28908ION     NA48442  13.184   6.630   0.685 -0.1458  0.0865 -0.1646
28909ION     NA48443   6.593  11.753   5.392  0.1548 -0.1941 -0.1204
28910ION     NA48444   5.746  12.954   1.713 -0.0588 -0.3935  0.1594
28911ION     NA48445  16.093   6.758  15.479  0.0583  0.1404 -0.1095
28912ION     NA48446  12.038   9.823  10.733  0.0522 -0.1016  0.1251
28913ION     NA48447   8.101   0.138   3.764 -0.3378  0.0401 -0.0228
28914ION     NA48448  13.734   2.351  12.561  0.3998 -0.0234  0.2227
28915ION     NA48449  17.004   2.439  15.423  0.1645  0.0751 -0.2769
28916ION     NA48450   2.937   7.404  14.470  0.0063 -0.0203 -0.1655
28917ION     NA48451  14.045  11.947   0.867 -0.1798 -0.1858  0.0966
28918ION     NA48452   9.134   3.173   1.332 -0.1019  0.0234  0.1156
28919ION     NA48453   4.705   7.130   0.208  0.0645 -0.0489 -0.4813
28920ION     NA48454  14.861  14.994  11.335  0.0550 -0.0457  0.3195
28921ION     NA48455  16.431   6.016  10.821  0.0145  0.0475  0.0165
28922ION     NA48456  11.923  15.580   0.074 -0.1614  0.0858  0.1886
28923ION     NA48457   0.543   3.347  10.341 -0.0737 -0.2051  0.0490
28924ION     NA48458   6.936   9.863   2.712 -0.0024 -0.0295 -0.1377
28925ION     NA48459  13.760   4.848   4.546 -0.2032 -0.1823 -0.0018
28926ION     NA48460   3.006  15.502   0.603 -0.2542  0.3307 -0.3073
28927ION     NA48461   9.387  15.806  15.915 -0.0093 -0.2074 -0.1936
28928ION     NA48462  16.082   9.524   5.279 -0.0087 -0.0553 -0.1487
28929ION     NA48463  16.214  13.657   5.881 -0.4980 -0.1684 -0.2204
28930ION     NA48464  12.693  13.923   5.650 -0.2887 -0.2681  0.1199
28931ION     NA48465   4.463  12.566  12.912  0.1422  0.5041  0.1551
28932ION     NA48466   5.840  15.731  10.524  0.1929  0.2042 -0.0688
28933ION     NA48467   8.799  13.187  13.131 -0.1932 -0.1557  0.3569
28934ION     NA48468   9.468  16.720  13.118 -0.0271 -0.3462  0.0761
28935ION     NA48469   1.314   1.460   0.058  0.3739 -0.1219 -0.0455
28936ION     NA48470  11.760   1.342  10.906  0.0724 -0.1630 -0.0499
28937ION     NA48471   6.840   6.066   5.473  0.0237 -0.1150 -0.0563
28938ION     NA48472  10.926   1.594  11.296  0.0496 -0.2852  0.3222
28939ION     NA48473   8.804  17.577  15.758 -0.2182 -0.1947  0.0098
28940ION     NA48474   7.263   1.232  15.053  0.3477 -0.1019 -0.0249
28941ION     NA48475   6.082   9.500  10.585  0.0703 -0.0149  0.2248
28942ION     NA48476  16.799   9.490   5.391 -0.1861  0.0597 -0.0798
28943ION     NA48477  12.829   3.187   5.734  0.3098 -0.1911  0.1082
28944ION     NA48478   2.994  15.073  15.199  0.0785 -0.1438 -0.1293
28945ION     NA48479   7.458   5.444   4.226 -0.2104 -0.0738 -0.1084
28946ION     NA48480   5.170  16.851   5.160 -0.0853  0.1199  0.3096
28947ION     NA48481  17.021  12.349  15.909  0.3270  0.0416 -0.1358
28948ION     NA48482  14.411   1.035  10.779  0.2119 -0.4832 -0.0990
28949ION     NA48483   5.848   6.883  10.551  0.0706  0.0430  0.1345
28950ION     NA48484   8.469   2.861  14.802 -0.0677 -0.0720  0.2554
28951ION     NA48485   1.541   7.459   2.845  0.1007 -0.0090 -0.1865
28952ION     NA48486   5.660   5.205   2.682 -0.2769  0.2908 -0.1117
28953ION     NA48487  16.076  16.538  15.970  0.0308  0.1138 -0.0828
28954ION     NA48488   6.861   4.613   5.186 -0.0868  0.1176 -0.0895
28955ION     NA48489  18.142  12.934  10.745 -0.1201  0.0512  0.0601
28956ION     NA48490  12.743   6.985  11.090  0.1788  0.2042  0.1414
28957ION     NA48491   3.916  10.388   5.344  0.0375  0.2338  0.2616
28958ION     NA48492   7.271   9.000  10.719  0.0936  0.0213  0.4573
28959ION     NA48493  17.159  16.404  15.771  0.0473  0.0403  0.1069
28960ION     NA48494  16.921  17.126  10.689 -0.1949  0.2180 -0.2801
28961ION     NA48495  10.723   5.793   5.586 -0.0782 -0.1864 -0.0861
28962ION     NA48496   3.521  11.245   5.583  0.0707  0.5221  0.0120
28963ION     NA48497   1.298   8.249   0.611  0.2435 -0.1513  0.1890
28964ION     NA48498  11.136   5.861  14.621 -0.0444  0.0409  0.1012
28965ION     NA48499   4.395  15.580   0.853 -0.0578  0.1972 -0.0413
28966ION     NA48500   3.027  12.210  10.686 -0.0548 -0.1811 -0.0592
28967ION     NA48501   8.438   4.195  15.895  0.1600  0.0163 -0.2021
28968ION     NA48502   1.754  10.946  14.346  0.1552  0.1427 -0.1423
28969ION     NA48503  13.138   6.752   5.441 -0.0799 -0.0757 -0.0642
28970ION     NA48504  13.742  13.220   1.756  0.1918  0.2702 -0.3309
28971ION     NA48505  12.275   9.745   5.484 -0.0709  0.1339  0.2072
28972ION     NA48506   8.657  10.490  13.185  0.2821  0.1734 -0.2778
28973ION     NA48507  16.879   7.463  10.916  0.1999  0.1319  0.2002
28974ION     NA48508   2.169  15.767  10.709  0.1207 -0.0301  0.4846
28975ION     NA48509   9.223  10.689   3.343  0.0886 -0.1101  0.1162
28976ION     NA48510  12.487   2.372  13.049 -0.1460  0.1871 -0.0562
28977ION     NA48511  15.006  13.367   3.089  0.1948  0.2908  0.0260
28978ION     NA48512   3.491   3.165  10.703  0.0606  0.0315  0.1611
28979ION     NA48513   8.568   7.896   5.127 -0.1771 -0.1526  0.1054
28980ION     NA48514   7.888   2.912  14.160 -0.1225  0.3152  0.0314
28981ION     NA48515  15.513   9.046  16.006 -0.0344 -0.2812  0.2078
28982ION     NA48516   8.179   2.383   2.445  0.3397  0.1110  0.2879
28983ION     NA48517   8.944  14.019  12.981 -0.1327  0.1222 -0.0290
28984ION     NA48518  11.362   0.730   5.391  0.3385  0.0346 -0.1439
28985ION     NA48519  13.891  14.341  10.910  0.0229 -0.0308 -0.1000
28986ION     NA48520   3.072  11.156   0.578  0.1556 -0.0874  0.0408
28987ION     NA48521  14.824  15.229  13.011  0.0192 -0.0969 -0.0015
28988ION     NA48522   2.769   6.416   5.294 -0.4175  0.0630  0.1008
28989ION     NA48523   4.210  10.529  10.430 -0.0870  0.1337  0.1574
28990ION     NA48524   9.298  17.137  10.788 -0.2408  0.0050  0.0523
28991ION     NA48525   2.114  17.946  10.529 -0.0370  0.0889 -0.0606
28992ION     NA48526   9.561   2.283   5.249  0.0041 -0.1530  0.0638
28993ION     NA48527  16.186   8.557  12.457 -0.0579 -0.0266  0.1403
28994ION     NA48528  11.265  15.207  10.620  0.2711 -0.1338 -0.4504
28995ION     NA48529   5.585  13.944   3.707 -0.1785 -0.0608  0.1436
28996ION     NA48530  16.819   0.935   5.673 -0.2283  0.1305  0.0171
28997ION     NA48531   4.058  15.722   2.041 -0.2074 -0.1555 -0.2612
28998ION     NA48532  12.431  12.066   1.408  0.0763 -0.1305 -0.1883
28999ION     NA48533   2.003   6.807   5.196  0.2256  0.0589 -0.0756
29000ION     NA48534   0.288   6.467  13.341 -0.0345 -0.0343 -0.2282
29001ION     NA48535   7.451  11.774   3.318 -0.1268 -0.0680  0.1874
29002ION     NA48536   7.150  15.771   1.392 -0.1314 -0.4155  0.2497
29003ION     NA48537  14.653   8.420  15.028  0.0586 -0.1902  0.2448
29004ION     NA48538  17.225   1.143   2.620  0.0767 -0.3667 -0.0654
29005ION     NA48539  11.135   3.677   4.996  0.0446  0.0697 -0.2756
29006ION     NA48540  12.854  15.675   1.169  0.0130  0.1250 -0.0757
29007ION     NA48541   3.239   3.429  15.441 -0.0250 -0.4202  0.1437
29008ION     NA48542   9.051   1.611   5.091 -0.1587 -0.0873  0.1650
29009ION     NA48543   1.196  10.497   5.614  0.2925 -0.2233 -0.0541
29010ION     NA48544   4.797   0.516   1.529 -0.1390  0.0216  0.0243
29011ION     NA48545   9.018   5.327  15.454 -0.1332 -0.0627 -0.0747
29012ION     NA48546   2.772  14.273  14.637 -0.2581  0.1717  0.0651
29013ION     NA48547   0.085  16.786   2.515  0.1356  0.0257 -0.0699
29014ION     NA48548  18.089   2.512   2.350  0.2713  0.0764  0.0270
29015ION     NA48549  12.435   0.955  10.896  0.1258  0.2244 -0.0948
29016ION     NA48550  17.322   4.826   4.017 -0.4157 -0.0943  0.2823
29017ION     NA48551   5.457  16.616   0.981  0.2806  0.1484  0.1163
29018ION     NA48552   2.402   9.976   5.406 -0.2255  0.0309  0.2587
29019ION     NA48553   3.878   4.463  11.974  0.0255  0.2333  0.0321
29020ION     NA48554   8.733   6.358  12.874  0.0932  0.0003  0.0277
29021ION     NA48555  10.295  15.006   4.978 -0.1372 -0.1682 -0.1822
29022ION     NA48556   0.283  11.677   1.320 -0.0556  0.0282  0.0786
29023ION     NA48557   5.460  13.924  10.492  0.0274  0.0851 -0.1082
29024ION     NA48558  16.516   4.419   5.631 -0.0610 -0.0508 -0.2299
29025ION     NA48559   0.572   5.978   5.155  0.1965 -0.0029  0.0546
29026ION     NA48560   5.616  17.497  10.790  0.0289  0.0487 -0.2036
29027ION     NA48561  12.076   3.576   5.708  0.0473  0.1061 -0.1885
29028ION     NA48562  16.835   6.603  13.207 -0.0792 -0.0024 -0.0269
29029ION     NA48563   1.749  17.251   5.043  0.1812 -0.1883  0.0318
29030ION     NA48564  11.370   5.048  14.842  0.1167 -0.1538 -0.2306
29031ION     NA48565  13.632  15.409   3.266 -0.1313 -0.0960  0.0407
29032ION     NA48566   2.643   3.147  14.330  0.0049  0.0136 -0.2369
29033ION     NA48567   6.182   7.351   1.661 -0.1178  0.1580  0.0342
29034ION     NA48568  14.784   2.511  10.819 -0.1145  0.1899  0.1093
29035ION     NA48569  13.228  14.433  13.645 -0.1459  0.3868  0.3052
29036ION     NA48570  11.768  10.647  10.942 -0.1934  0.1838  0.0381
29037ION     NA48571  10.353   7.227   5.253 -0.0414  0.0902  0.2095
29038ION     NA48572   6.946  11.140   2.176  0.1766  0.1940  0.1072
29039ION     NA48573  17.148  13.369   2.008 -0.1888  0.1870 -0.1340
29040ION     NA48574  12.876  15.628  15.275 -0.3809 -0.0994  0.1667
29041ION     NA48575  13.311  17.246   5.827  0.2028 -0.0926 -0.0406
29042ION     NA48576   5.878   1.889  13.143 -0.0385 -0.1056 -0.2223
29043ION     NA48577  11.411  17.465   5.492  0.0027 -0.3398  0.0236
29044ION     NA48578  17.282   0.507  10.750  0.3361 -0.0219 -0.1256
29045ION     NA48579  10.646   3.824  12.290 -0.0456 -0.0873  0.0741
29046ION     NA48580   7.620  13.889  10.822  0.0645  0.0396  0.0738
29047ION     NA48581   1.875   0.357   2.920  0.2224 -0.4360 -0.0285
29048ION     NA48582   0.709  17.055   0.897  0.1452  0.0440  0.4367
29049ION     NA48583  10.186  17.627  10.794  0.1749  0.0147 -0.0670
29050ION     NA48584  10.060   7.760   4.965  0.2788  0.1061  0.0400
29051ION     NA48585   9.310   5.776   5.306 -0.2181 -0.0844  0.0029
29052ION     NA48586   7.829   5.044  10.220 -0.2032 -0.0145 -0.0674
29053ION     NA48587  11.305  15.866   3.206 -0.0308  0.2809  0.1137
29054ION     NA48588   2.856   2.372   1.534  0.3665 -0.2255  0.1079
29055ION     NA48589  13.305   5.909   5.271 -0.1647  0.1942 -0.3259
29056ION     NA48590  13.878   1.930   3.685  0.2450  0.0690 -0.2153
29057ION     NA48591  17.332   2.483   5.602 -0.0402  0.3279  0.0219
29058ION     NA48592  16.756  10.658  15.427  0.1011 -0.1501  0.3108
29059ION     NA48593  11.940   4.838   0.505  0.0573 -0.1228  0.0406
29060ION     NA48594   6.218   2.338   0.237  0.2609  0.1870  0.1799
29061ION     NA48595   9.886  11.765   2.553  0.1510  0.3741  0.1381
29062ION     NA48596   9.201  13.368   2.397  0.2341  0.1275 -0.1278
29063ION     NA48597   6.010   7.748  10.607  0.0636  0.0982 -0.2004
29064ION     NA48598   5.902  14.102   5.211 -0.1791 -0.1834 -0.1623
29065ION     NA48599   2.791  10.731  15.466  0.3896 -0.0634  0.1047
29066ION     NA48600   2.347  16.916   2.467 -0.1727 -0.0547 -0.0859
29067ION     NA48601  10.996   7.167   3.667  0.1291  0.0783  0.1758
29068ION     NA48602  16.847  11.370  10.830  0.1041 -0.1656 -0.0899
29069ION     NA48603  12.260  12.064   0.026 -0.4245  0.1795 -0.0965
29070ION     NA48604   6.694   7.136  10.523 -0.1774 -0.0079 -0.1465
29071ION     NA48605  16.101  13.124  15.686  0.0425  0.1062 -0.2500
29072ION     NA48606   2.955   0.044  15.441 -0.0271  0.0160 -0.2743
29073ION     NA48607  17.220  16.829   2.652 -0.1262 -0.1344  0.1113
29074ION     NA48608   9.153   1.464  12.061 -0.2989 -0.1741 -0.0606
29075ION     NA48609   8.443  11.213  11.237  0.0181 -0.1561 -0.0234
29076ION     NA48610   0.605   2.613  15.941 -0.1080 -0.3050  0.3812
29077ION     NA48611  12.564  14.853  10.794  0.1046  0.3644  0.2286
29078ION     NA48612  11.388   3.019   5.536 -0.0561  0.1818 -0.0289
29079ION     NA48613  18.045   4.478   3.496  0.1182  0.4214  0.3249
29080ION     NA48614   4.287   3.631   3.117 -0.1750  0.3803 -0.1237
29081ION     NA48615  17.406   9.529  14.229  0.0057 -0.0139 -0.2651
29082ION     NA48616   0.618  16.794  10.682  0.1733 -0.2765  0.1638
29083ION     NA48617   3.926   9.462  10.643 -0.1365 -0.0547  0.1534
29084ION     NA48618  12.805   3.996   4.592  0.0859  0.0690 -0.0130
29085ION     NA48619   7.943   4.135  14.343 -0.1057 -0.0761 -0.0320
29086ION     NA48620  18.186   4.518  10.730  0.2785 -0.2979 -0.0474
29087ION     NA48621  10.005   9.626  10.993 -0.1948  0.1991  0.0932
29088ION     NA48622   9.440   3.442   3.215 -0.0216 -0.0803 -0.3401
29089ION     NA48623  11.246   2.359  15.931 -0.1133 -0.1055  0.1423
29090ION     NA48624   8.473   1.437  12.801 -0.0643  0.0578  0.2378
29091ION     NA48625  12.315  12.507  12.480 -0.0948 -0.1742  0.0739
29092ION     NA48626  10.332   3.971   5.538 -0.0506  0.3686 -0.1412
29093ION     NA48627   0.871   3.526  13.914  0.0578  0.2595  0.0673
29094ION     NA48628  18.002   0.234   4.495 -0.1223 -0.0581 -0.0416
29095ION     NA48629   7.120   0.006   4.975  0.0503  0.0706  0.0564
29096ION     NA48630  11.156   8.757  10.640 -0.0793 -0.0158  0.1349
29097ION     NA48631  11.958  16.699   5.499  0.0063  0.1341 -0.1325
29098ION     NA48632   1.035  10.780  14.426 -0.0062 -0.1977  0.0760
29099ION     NA48633   8.161  11.115  14.265  0.1767  0.1287 -0.1822
29100ION     NA48634  15.354  11.209   1.420 -0.2655 -0.0515 -0.0486
29101ION     NA48635   1.669   0.104  10.495 -0.1905  0.0937 -0.1182
29102ION     NA48636   5.162   3.772  12.479 -0.1086 -0.0257 -0.0663
29103ION     NA48637  14.294   2.569  11.932 -0.0371  0.1648 -0.2068
29104ION     NA48638  12.912   7.619   5.401 -0.1080  0.0032  0.0176
29105ION     NA48639   0.001  17.283   5.300  0.1194  0.0923  0.0560
29106ION     NA48640  16.619  14.101  11.287 -0.3422 -0.1161 -0.4104
29107ION     NA48641   3.239   0.455  13.124  0.1174 -0.4552  0.2111
29108ION     NA48642   3.034   9.768   0.725 -0.0420  0.0351  0.1537
29109ION     NA48643   1.309  15.174  11.159 -0.0619  0.0186 -0.1677
29110ION     NA48644   0.468  11.420   5.536 -0.1344 -0.0355 -0.0854
29111ION     NA48645  13.016   1.425  14.303 -0.3913  0.1406  0.1485
29112ION     NA48646   3.584   9.699   2.290  0.0614  0.0021  0.0129
29113ION     NA48647  17.735   4.064  11.141  0.1306 -0.0233 -0.0550
29114ION     NA48648  11.987  15.964  10.638 -0.3396 -0.1982 -0.3254
29115ION     NA48649   6.907   0.766   0.758  0.1977  0.1557 -0.0340
29116ION     NA48650  15.255   3.951   0.265 -0.0514 -0.2051  0.2378
29117ION     NA48651  16.754   2.371   5.030 -0.0832  0.0253  0.2710
29118ION     NA48652  11.494  13.197  10.513  0.0148  0.1888  0.1056
29119ION     NA48653  10.280   7.875  10.625  0.1151 -0.2251  0.1971
29120ION     NA48654   5.499   4.315   2.710  0.0441 -0.1237  0.1138
29121ION     NA48655   1.184  17.662   4.372  0.2205  0.0152 -0.0444
29122ION     NA48656  10.821   8.969  10.907  0.3202 -0.1122  0.4624
29123ION     NA48657   3.679  15.611  11.502  0.0324 -0.0394  0.1289
29124ION     NA48658  10.181  13.582  14.149 -0.1120  0.0838 -0.1160
29125ION     NA48659   5.546  12.456  15.027 -0.0995  0.0310  0.0802
29126ION     NA48660  13.927  14.497   5.672  0.0595  0.1324  0.0008
29127ION     NA48661  17.181  15.035   5.796  0.2430  0.0809  0.3296
29128ION     NA48662  17.218   7.405  15.964 -0.0936  0.0985 -0.3416
29129ION     NA48663   8.643   6.171   4.544  0.3352  0.1140 -0.2438
29130ION     NA48664   4.689   4.159   1.687 -0.0892 -0.2444  0.4832
29131ION     NA48665  17.585  16.354   0.661 -0.1511 -0.2781  0.4209
29132ION     NA48666   5.748   0.664   1.776  0.3168  0.1319 -0.0476
29133ION     NA48667  10.858   6.839   0.676 -0.0722 -0.3356 -0.2722
29134ION     NA48668   3.057  10.035   5.267 -0.0642  0.0633 -0.1341
29135ION     NA48669   8.813   4.043   2.993 -0.1409 -0.0003  0.1189
29136ION     NA48670   2.480  13.096  10.742  0.4204  0.0980  0.0709
29137ION     NA48671  16.834   9.300  10.554 -0.0611  0.0181 -0.1482
29138ION     NA48672   9.943   6.301   5.502  0.0320  0.0272  0.1334
29139ION     NA48673   1.316   3.817   5.050 -0.0725 -0.1257 -0.1789
29140ION     NA48674   8.581  16.825  14.174  0.1321  0.0346  0.2526
29141ION     NA48675  17.835   2.146   3.297 -0.1758  0.2005  0.2326
29142ION     NA48676   4.080  12.238  10.614  0.1134  0.0614  0.1243
29143ION     NA48677  18.133   2.368  12.464 -0.0223  0.1483  0.4010
29144ION     NA48678   4.553   2.872   5.161 -0.2005 -0.1351 -0.2460
29145ION     NA48679   2.728   7.179  12.819 -0.2024  0.2032 -0.1479
29146ION     NA48680   0.220   3.140  14.759  0.0065 -0.1775 -0.0281
29147ION     NA48681  16.416   6.424   1.762 -0.1431 -0.0472 -0.3144
29148ION     NA48682   6.871  12.598  10.781  0.3104  0.0944 -0.2266
29149ION     NA48683   0.028  16.525  12.319  0.0085 -0.0567 -0.3639
29150ION     NA48684   8.634  15.937  10.769  0.1982  0.1845  0.2600
29151ION     NA48685  17.913  14.673  12.662 -0.1348 -0.1671  0.0973
29152ION     NA48686   5.034  11.186   3.492 -0.2503 -0.1608  0.0754
29153ION     NA48687  14.191   9.142  14.227  0.0114 -0.1329 -0.5017
29154ION     NA48688   2.603  12.362   0.433  0.0143 -0.1568 -0.0296
29155ION     NA48689   3.101   0.173  10.345 -0.0575 -0.0510 -0.0490
29156ION     NA48690  12.319  14.057  12.086 -0.0758  0.0842  0.0221
29157ION     NA48691  10.947  11.024  11.194 -0.1755  0.5204  0.1053
29158ION     NA48692  15.336  13.237  15.286  0.2097  0.0604  0.0671
29159ION     NA48693  16.838   4.068  15.343 -0.1768 -0.2105  0.2278
29160ION     NA48694   8.331  15.885   2.807 -0.1388  0.0412  0.0823
29161ION     NA48695  13.377   7.363  13.610  0.1183  0.0466 -0.0905
29162ION     NA48696   3.381   0.219   4.895 -0.0132 -0.1015 -0.2958
29163ION     NA48697   9.386  15.249  14.780  0.0329  0.0463 -0.1697
29164ION     NA48698  12.473   9.003   0.726 -0.0541 -0.0351 -0.1180
29165ION     NA48699   8.362   8.652   5.637 -0.0860  0.0781  0.0218
29166ION     NA48700  11.172  16.061  10.756  0.1496  0.0288  0.2375
29167ION     NA48701  17.421   2.856   5.911 -0.1190 -0.1404  0.0188
29168ION     NA48702   0.840   2.187   2.015 -0.2426  0.3019  0.0240
29169ION     NA48703  17.710   9.105   5.327  0.2015  0.0080 -0.1482
29170ION     NA48704  10.535   5.466   1.107  0.0845  0.0381  0.1580
29171ION     NA48705  12.774   3.417  14.999  0.1500 -0.3201 -0.0359
29172ION     NA48706  11.036   2.490  14.188 -0.1117 -0.1471  0.1547
29173ION     NA48707  11.727   6.477   5.706 -0.2094 -0.1923  0.0682
29174ION     NA48708  12.234  11.083   1.488 -0.3342 -0.1583 -0.2267
29175ION     NA48709   2.436  16.001  15.554 -0.2038  0.3901  0.4012
29176ION     NA48710   8.582   2.293   5.368  0.0126 -0.0518  0.0939
29177ION     NA48711   4.796  12.907  11.764  0.0020  0.4251 -0.1266
29178ION     NA48712   2.573  10.013  15.788 -0.0157 -0.4638  0.0239
29179ION     NA48713   2.877   7.221   5.390  0.0404 -0.1316 -0.0139
29180ION     NA48714   3.817   0.611  14.336 -0.0562  0.0396 -0.1344
29181ION     NA48715   0.165   2.408  13.254  0.2064  0.1185 -0.1382
29182ION     NA48716   4.244  12.385   2.143  0.0154  0.2920  0.0225
29183ION     NA48717   9.006   6.205  10.461 -0.2479  0.1404  0.1302
29184ION     NA48718  16.473  17.924   2.889  0.0968  0.0109  0.2216
29185ION     NA48719   6.133  15.209  13.723  0.0184 -0.0800  0.2211
29186ION     NA48720   9.707   9.849   0.134 -0.0386 -0.1032  0.0183
29187ION     NA48721   6.050  16.575  10.607 -0.0719  0.3752 -0.1840
29188ION     NA48722  17.363   1.430  10.684  0.0321  0.0817  0.1158
29189ION     NA48723   4.521  13.295  10.501  0.0899 -0.0682 -0.0057
29190ION     NA48724   5.107   3.401  10.386  0.1397  0.0334 -0.0506
29191ION     NA48725   9.346  17.754  14.274 -0.0364 -0.3247  0.3933
29192ION     NA48726   3.690   5.510  15.521  0.0467 -0.0202  0.0840
29193ION     NA48727  13.743  16.657  15.625  0.3551 -0.0885 -0.2802
29194ION     NA48728  14.656   1.990   5.635 -0.2394  0.0127  0.1149
29195ION     NA48729   5.128   2.019   5.097 -0.0929 -0.1490 -0.1153
29196ION     NA48730   7.870  16.488   5.312  0.1242  0.1075  0.1554
29197ION     NA48731  14.213   7.887  10.619 -0.0930  0.0612  0.0042
29198ION     NA48732  17.678   5.981   5.404  0.0484 -0.2953 -0.3169
29199ION     NA48733   9.129   6.922   1.982 -0.1704  0.2480  0.0419
29200ION     NA48734  14.604  11.436  14.197 -0.1776 -0.3637 -0.1194
29201ION     NA48735   8.113   6.944  10.565  0.2745  0.1242 -0.1325
29202ION     NA48736   9.908  17.620   1.108  0.2095  0.3839 -0.0917
29203ION     NA48737   9.782  10.907   5.851  0.0866  0.1668 -0.0361
29204ION     NA48738  13.687  13.967   0.007  0.1084 -0.0306 -0.0752
29205ION     NA48739  11.496  17.309   1.175  0.0111  0.2052 -0.0433
29206ION     NA48740   8.787   5.372   0.381 -0.2829  0.2440 -0.4956
29207ION     NA48741   1.227   2.879  12.383  0.2094 -0.0804 -0.4222
29208ION     NA48742   7.301   8.069  15.067 -0.0732 -0.0789  0.3186
29209ION     NA48743  11.649  13.817  15.786  0.0344 -0.0325  0.0686
29210ION     NA48744  11.206  11.111   3.606  0.0194 -0.0830  0.0551
29211ION     NA48745   8.568  15.975   5.346  0.2080 -0.0642 -0.0809
29212ION     NA48746  12.469   9.307  14.283 -0.2582 -0.1799  0.2675
29213ION     NA48747   9.179  11.713  11.053 -0.1308  0.0054 -0.3847
29214ION     NA48748   9.229  13.818   3.206 -0.0363  0.0120  0.0924
29215ION     NA48749   5.625  10.207   3.037 -0.1359 -0.0819  0.1493
29216ION     NA48750   5.202   9.851  16.036 -0.0273  0.0992  0.0980
29217ION     NA48751   1.684   2.544  10.212  0.2556  0.0055 -0.0997
29218ION     NA48752  17.272  11.705   0.702 -0.0143 -0.0347 -0.1131
29219ION     NA48753   8.716  16.331   0.545 -0.0193  0.1284  0.1115
29220ION     NA48754  12.580   0.171   5.570 -0.0852 -0.1832 -0.1236
29221ION     NA48755   3.592   6.034   3.193 -0.2132 -0.1627  0.1145
29222ION     NA48756  12.494   6.453   1.432 -0.3945  0.0501 -0.3148
29223ION     NA48757   7.972  16.580  15.370  0.1147  0.3933  0.4202
29224ION     NA48758   2.522  12.549  12.392 -0.3047  0.1636  0.3530
29225ION     NA48759  14.394   8.609   2.019 -0.0190  0.0916 -0.0313
29226ION     NA48760  18.086  11.897  14.109  0.2785 -0.1101  0.1811
29227ION     NA48761  15.296   1.323  11.087 -0.1800  0.2694  0.0989
29228ION     NA48762   3.085  13.380  11.471  0.0445  0.0393 -0.0687
29229ION     NA48763   1.920   9.062   1.243  0.0438  0.0004  0.1354
29230ION     NA48764   3.244  10.863  10.373 -0.1216 -0.0180 -0.1196
29231ION     NA48765  16.804   7.883  15.568 -0.1393 -0.0723  0.0780
29232ION     NA48766  16.289  17.139  12.449  0.1638 -0.2944  0.1874
29233ION     NA48767  14.434  15.526   2.167  0.1905  0.1322 -0.1407
29234ION     NA48768   6.170   0.516   5.009 -0.0723  0.0624  0.0892
29235ION     NA48769   9.785  17.206   4.198 -0.0988 -0.0260 -0.1895
29236ION     NA48770   6.623   9.316   5.588  0.1579 -0.0131 -0.0549
29237ION     NA48771  11.930   3.500  10.968  0.2355 -0.0570 -0.1146
29238ION     NA48772   3.989   3.408  12.231  0.0704 -0.0867  0.1784
29239ION     NA48773  17.519  10.316   5.472 -0.1594 -0.0655  0.2332
29240ION     NA48774  13.668  12.489  13.867  0.1381  0.3435  0.1674
29241ION     NA48775  17.781  16.704  10.558  0.3054 -0.1059  0.0283
29242ION     NA48776   4.868   3.297   1.454 -0.0154  0.0260 -0.1167
29243ION     NA48777  13.439   8.882   4.457  0.2629  0.2292 -0.0902
29244ION     NA48778  16.706   8.826  13.352 -0.1108  0.1340 -0.0330
29245ION     NA48779  11.254   7.013  14.720  0.1644  0.0175  0.0529
29246ION     NA48780  13.151   7.985  14.350 -0.1495 -0.1599 -0.3940
29247ION     NA48781  12.420  10.378   1.864 -0.1968 -0.0771 -0.0989
29248ION     NA48782  11.485  16.798  11.091  0.1847  0.0197 -0.1423
29249ION     NA48783  15.948  10.292   2.287  0.0427 -0.3409 -0.1765
29250ION     NA48784  10.756   9.586   5.294 -0.1122  0.2863  0.0126
29251ION     NA48785   4.910  12.383  10.511 -0.1159 -0.0131 -0.2816
29252ION     NA48786  14.831   1.768   0.386 -0.2042  0.1859  0.2514
29253ION     NA48787   6.371   4.348  10.787 -0.2779  0.1615  0.1520
29254ION     NA48788  13.298   4.189   5.889 -0.0380 -0.0358 -0.1276
29255ION     NA48789  12.881  11.573  10.648 -0.2528 -0.1958  0.0180
29256ION     NA48790   4.497   8.183   1.803  0.0270 -0.1858  0.0802
29257ION     NA48791  14.837   0.192   0.595  0.2475  0.1848  0.0247
29258ION     NA48792   1.525   4.197  14.791 -0.0333 -0.0855 -0.0563
29259ION     NA48793   2.191  13.419  12.022  0.2060 -0.0066  0.1243
29260ION     NA48794   9.733  10.553  14.311  0.1759 -0.2449 -0.0069
29261ION     NA48795  12.187   1.460   5.402 -0.2129  0.0001 -0.0316
29262ION     NA48796  15.125  15.591   5.573  0.2820  0.2658 -0.0523
29263ION     NA48797   0.662  12.529   1.119 -0.0864  0.1202  0.0326
29264ION     NA48798   8.752   9.012   4.647 -0.0713 -0.1561 -0.1507
29265ION     NA48799  11.027   3.414  10.785  0.0078  0.2931 -0.0739
29266ION     NA48800   5.932   1.932   4.915  0.0947  0.0904  0.0526
29267ION     NA48801   3.855   4.776   2.022  0.4643  0.1382  0.2887
29268ION     NA48802   5.336   2.946   3.542  0.2080  0.0552 -0.1194
29269ION     NA48803  11.904   9.323   3.052 -0.0900 -0.0446 -0.1948
29270ION     NA48804  10.805   8.541  11.731 -0.0322 -0.0632 -0.0625
29271ION     NA48805  12.503   1.673  15.848  0.1097  0.2072 -0.0891
29272ION     NA48806   6.971   4.206  12.923 -0.1303  0.2168 -0.1264
29273ION     NA48807   1.033  15.091  10.742 -0.0639 -0.1532 -0.0976
29274ION     NA48808  13.063   9.860  10.807 -0.1507 -0.2034  0.0126
29275ION     NA48809  12.795   4.983  15.208  0.2935  0.2085 -0.2630
29276ION     NA48810   3.672  15.090   3.314  0.2544 -0.1400  0.1767
29277ION     NA48811  12.578   4.560   1.219  0.2498 -0.1547 -0.4850
29278ION     NA48812  14.774  14.080  16.021 -0.0031  0.0476 -0.3643
29279ION     NA48813   4.017  11.095  15.537  0.2234 -0.0243  0.2194
29280ION     NA48814   8.075  13.087  10.975 -0.0632  0.3197  0.0257
29281ION     NA48815   1.967   8.770  10.291  0.0651  0.0733  0.2833
29282ION     NA48816   0.159  15.257  10.960 -0.1513  0.0232 -0.2669
29283ION     NA48817   9.723   6.644   1.788  0.0346  0.3953 -0.0411
29284ION     NA48818   3.314  12.597  10.687  0.1290  0.1342  0.0741
29285ION     NA48819  16.926  17.467   4.796  0.1904  0.1157  0.1376
29286ION     NA48820  13.686   4.679   5.045  0.0203  0.0240  0.0444
29287ION     NA48821   8.055  10.653  13.114  0.3455 -0.2210 -0.3488
29288ION     NA48822   6.680  17.194  13.934  0.1849  0.1481 -0.0834
29289ION     NA48823   3.071  17.519   5.194 -0.0798 -0.2875  0.1463
29290ION     NA48824   6.208  12.983  11.088 -0.1917  0.4786 -0.0837
29291ION     NA48825   4.541   0.796  12.217  0.1889  0.0151 -0.1709
29292ION     NA48826  15.902  11.286   5.471  0.2122  0.0541 -0.2486
29293ION     NA48827   3.591   8.884   5.223 -0.2502 -0.2571  0.2242
29294ION     NA48828   5.136   5.020   2.550  0.1296  0.1040 -0.0621
29295ION     NA48829  17.399  17.662   5.661 -0.5348  0.3584  0.1306
29296ION     NA48830  15.646  14.328  11.249  0.2200  0.1571  0.0645
29297ION     NA48831   4.195  16.550  14.248  0.0374 -0.2301 -0.0007
29298ION     NA48832  15.776   0.802  16.044 -0.0529 -0.0910  0.1051
29299ION     NA48833   0.671   4.162  10.361  0.0667 -0.0393  0.0962
29300ION     NA48834  15.295  15.301   2.603 -0.0226  0.2627  0.1279
29301ION     NA48835   2.425  11.491  13.178 -0.0089 -0.2043 -0.0993
29302ION     NA48836   8.306  10.866   1.592 -0.0168 -0.2444 -0.2213
29303ION     NA48837  11.839  10.605  14.753  0.0918 -0.1284  0.5174
29304ION     NA48838   8.580   3.406   3.946  0.4204  0.1726  0.0201
29305ION     NA48839  17.893   9.627   1.289  0.3079  0.2306 -0.0207
29306ION     NA48840   5.483  11.087   5.411  0.1212  0.1480 -0.1165
29307ION     NA48841  18.029   6.722  10.692  0.0571  0.0441  0.1152
29308ION     NA48842  15.255  11.291  10.778  0.0620  0.1196  0.1169
29309ION     NA48843   9.268   8.194   4.408 -0.0157  0.0968  0.0721
29310ION     NA48844  17.399  15.693  11.012  0.1328  0.0581 -0.0242
29311ION     NA48845   4.129  13.667   5.461 -0.0516 -0.2868 -0.2874
29312ION     NA48846  15.416   5.644   0.235  0.3271 -0.1149  0.1111
29313ION     NA48847   7.177   3.231   5.244  0.0067  0.3882 -0.2703
29314ION     NA48848   9.403   7.154   5.511  0.1229 -0.0017  0.4533
29315ION     NA48849  16.818   0.761  12.249 -0.0782 -0.2641 -0.0489
29316ION     NA48850  15.713  14.768  10.738 -0.1642 -0.2616 -0.0844
29317ION     NA48851  10.511   2.175   3.455 -0.0314 -0.0492 -0.1077
29318ION     NA48852   5.559  16.529  14.055  0.3172 -0.0715 -0.1680
29319ION     NA48853  14.241   1.690  14.111  0.0157  0.0748  0.2531
29320ION     NA48854   4.825  15.658   4.577 -0.0357 -0.0512  0.0631
29321ION     NA48855   2.461   3.486   5.432 -0.4325 -0.1425  0.0645
29322ION     NA48856  16.660  13.588  13.121  0.1010 -0.0694 -0.3089
29323ION     NA48857  11.633   0.424  15.535  0.2349  0.0687 -0.3152
29324ION     NA48858   9.344   7.259  15.743  0.1212 -0.0690  0.1683
29325ION     NA48859  11.061   7.606  10.771 -0.1281  0.1239 -0.2111
29326ION     NA48860   5.376   0.526  10.307 -0.1380 -0.1929  0.3134
29327ION     NA48861   4.398   0.770  15.088 -0.1147  0.0307 -0.0635
29328ION     NA48862  10.446  13.680   0.314  0.0590 -0.1754 -0.0221
29329ION     NA48863   6.217  12.864   5.337  0.0113  0.0369  0.0171
29330ION     NA48864  15.071   4.815   5.434  0.0687  0.0147  0.2297
29331ION     NA48865   9.168   9.188  11.118 -0.3300  0.0765 -0.1789
29332ION     NA48866  13.302   7.437  15.093  0.0567 -0.0092 -0.2746
29333ION     NA48867   5.090  11.895   0.318  0.0528 -0.3315  0.0233
29334ION     NA48868   1.279  14.398   5.290  0.1536 -0.0487  0.2937
29335ION     NA48869  15.391   7.231   3.173 -0.1101 -0.3691 -0.3654
29336ION     NA48870  11.572  11.437  10.958  0.0217  0.4067 -0.1918
29337ION     NA48871  17.135  11.735  11.086  0.4309 -0.1105  0.0817
29338ION     NA48872   7.712   3.640  14.526 -0.0227  0.1948 -0.4152
29339ION     NA48873  11.993  11.566   5.761  0.0621 -0.0224  0.1788
29340ION     NA48874   5.601  14.657  15.110  0.0300  0.2767  0.0564
29341ION     NA48875  14.385   6.514  11.009  0.0893 -0.1743 -0.0453
29342ION     NA48876  11.996  18.185   0.440 -0.2037  0.1478  0.1983
29343ION     NA48877   3.547  12.056   5.467 -0.0848  0.4445  0.2149
29344ION     NA48878   2.192   1.370  15.895  0.0593 -0.0172 -0.1166
29345ION     NA48879  11.851   7.360  11.007  0.1603  0.1182 -0.0702
29346ION     NA48880  15.696   4.163   5.769  0.1716  0.4289  0.0113
29347ION     NA48881   7.449   9.647  11.913 -0.0809 -0.1709  0.0758
29348ION     NA48882  16.814   5.132   0.089 -0.2093 -0.0494  0.1946
29349ION     NA48883  13.570  17.858  13.468  0.0366  0.4064 -0.0151
29350ION     NA48884  10.344  11.389  15.072  0.0234 -0.0049  0.1141
29351ION     NA48885  10.550   7.432   4.385 -0.1376 -0.1569 -0.2001
29352ION     NA48886  10.261  16.850   5.322  0.0877  0.2373  0.2023
29353ION     NA48887   0.250  11.036  15.231 -0.2065  0.1694  0.0660
29354ION     NA48888  11.556  17.389  12.456  0.3122 -0.1746 -0.3798
29355ION     NA48889  17.098  14.886  10.889 -0.1250 -0.0865  0.1366
29356ION     NA48890   2.300  15.285   5.025  0.1104  0.0722 -0.2696
29357ION     NA48891  11.386  14.452  14.270  0.0692  0.1590  0.2624
29358ION     NA48892   2.749   2.064  15.957  0.0931 -0.1597 -0.0582
29359ION     NA48893   0.763   2.233   0.601  0.2525 -0.2587  0.0054
29360ION     NA48894  16.441  12.791   3.853  0.0352  0.0749  0.0968
29361ION     NA48895  11.132  13.770  12.491  0.0360  0.0568  0.2253
29362ION     NA48896  13.699   7.149   1.278  0.2158  0.0283  0.0033
29363ION     NA48897   1.072   3.300  15.463 -0.0818  0.2123  0.1364
29364ION     NA48898   6.158   0.840   3.230  0.0760  0.1126 -0.1821
29365ION     NA48899   4.888   3.822  11.318  0.0265  0.0354  0.0879
29366ION     NA48900  11.295  16.724   2.821 -0.3483 -0.1401 -0.0371
29367ION     NA48901   4.320  14.415   0.410  0.2054  0.0047 -0.0262
29368ION     NA48902  12.937  12.794   1.314  0.2119 -0.1538 -0.0370
29369ION     NA48903   2.720   1.063  11.465 -0.0927 -0.1833  0.0467
29370ION     NA48904  11.284   7.657  15.221  0.0246 -0.3780  0.0149
29371ION     NA48905  16.481   3.775   2.559  0.1616 -0.1842  0.4021
29372ION     NA48906   7.636   3.266   4.283  0.0835  0.0168 -0.2095
29373ION     NA48907   3.836   6.731   5.211 -0.0798  0.0694  0.0583
29374ION     NA48908   9.885   8.716   0.485  0.1432 -0.0229 -0.1313
29375ION     NA48909  10.038  12.777   5.633  0.0058  0.0744  0.0662
29376ION     NA48910   8.881  12.915  10.539  0.1174 -0.1708  0.1036
29377ION     NA48911  13.792   9.346   5.447 -0.0475 -0.1282 -0.0083
29378ION     NA48912  11.861  16.469   1.068  0.1585 -0.1389  0.4351
29379ION     NA48913  13.761  12.082   3.227  0.2372  0.0397  0.1831
29380ION     NA48914  16.827  15.655   0.626  0.2763  0.2027 -0.0183
29381ION     NA48915   5.778   7.896   2.041 -0.1077  0.3347  0.0580
29382ION     NA48916   2.234   1.333  14.484  0.1078 -0.1188  0.1375
29383ION     NA48917   9.888  18.185  15.208  0.0023  0.0665 -0.2213
29384ION     NA48918   8.764   0.360  10.448  0.0085 -0.1844 -0.2452
29385ION     NA48919  10.213  11.203  14.064  0.2984  0.3236  0.3129
29386ION     NA48920  16.127  10.593   0.904 -0.0174  0.1556 -0.0688
29387ION     NA48921   4.188   5.024  14.021 -0.0638  0.0628 -0.3807
29388ION     NA48922   7.777   4.996  15.978 -0.1771  0.2840  0.0941
29389ION     NA48923   9.487  16.521   5.053 -0.1763 -0.1005  0.0792
29390ION     NA48924   7.070   5.754  14.663  0.0183 -0.1139  0.1610
29391ION     NA48925  14.577   0.518   2.816 -0.0411  0.1027  0.0375
29392ION     NA48926  14.224   8.509  10.745  0.0697  0.1814 -0.1383
29393ION     NA48927  12.126   4.004   0.908 -0.1586 -0.0777  0.0332
29394ION     NA48928   2.209   0.742  10.635 -0.1768 -0.4349  0.0894
29395ION     NA48929  11.514  13.114   5.366 -0.1359  0.3186 -0.0641
29396ION     NA48930  13.101  12.490  10.543  0.0616 -0.1519  0.0118
29397ION     NA48931  15.368   5.616   1.207 -0.1069 -0.2485 -0.2183
29398ION     NA48932  16.553  15.395   3.676 -0.1374 -0.1286  0.1681
29399ION     NA48933   0.775   9.214   2.774 -0.0581 -0.1798 -0.1392
29400ION     NA48934   9.104   2.463   4.169 -0.0618  0.0087  0.0408
29401ION     NA48935   9.787   9.810  13.663 -0.0330  0.0138 -0.0086
29402ION     NA48936   8.944   0.682   3.671 -0.1802 -0.1547 -0.0198
29403ION     NA48937   5.835   5.996  10.540 -0.1374 -0.1944  0.4177
29404ION     NA48938  10.299  10.427  11.000 -0.0020 -0.1795 -0.0920
29405ION     NA48939  13.237  10.143   3.639 -0.2605  0.2594  0.2011
29406ION     NA48940   3.873   2.201   5.317  0.1238  0.0714  0.0172
29407ION     NA48941   3.466   1.626  10.510  0.2225  0.0009 -0.0825
29408ION     NA48942  17.742  12.556   5.411  0.0088 -0.5409  0.3349
29409ION     NA48943  12.577   6.891  14.788  0.0362 -0.2711  0.2899
29410ION     NA48944   2.263   7.893   5.413  0.0431  0.1239 -0.0939
29411ION     NA48945  11.330  14.525  15.221  0.2198  0.1301 -0.3503
29412ION     NA48946  12.042   2.386  14.930  0.0502 -0.0786  0.1158
29413ION     NA48947   2.384  12.995  15.685 -0.1314  0.1460  0.2691
29414ION     NA48948   4.408   8.751  10.461  0.0098 -0.0904  0.0428
29415ION     NA48949   8.736  11.010  15.122  0.0733 -0.3838  0.0064
29416ION     NA48950   6.258  10.513   5.725 -0.1590  0.1200 -0.0479
29417ION     NA48951  17.812  12.846   3.376 -0.1168  0.1226 -0.0183
29418ION     NA48952  13.486   3.499   2.114  0.1876  0.2321 -0.1383
29419ION     NA48953   3.801  17.899   2.302  0.1708  0.0538 -0.0629
29420ION     NA48954   3.045   9.350   1.486 -0.0197 -0.1076 -0.3393
29421ION     NA48955   5.926   9.750   5.510 -0.2224  0.3376 -0.1208
29422ION     NA48956   6.225   8.183   0.044 -0.1838 -0.0068  0.0331
29423ION     NA48957   0.489  12.800   5.309 -0.0264  0.0430  0.1351
29424ION     NA48958  12.902  17.581   1.440 -0.0897  0.2398  0.0595
29425ION     NA48959  16.757   4.936   2.561 -0.3426 -0.2749  0.0161
29426ION     NA48960   9.113   6.664   5.367 -0.3170  0.0692 -0.2341
29427ION     NA48961  15.901  10.495   3.133 -0.1952  0.1146  0.1240
29428ION     NA48962  14.893   0.255  12.508 -0.0464 -0.1088  0.0884
29429ION     NA48963  16.160   1.936  11.130 -0.1164 -0.0647 -0.0556
29430ION     NA48964  12.470  13.474   2.551  0.2250  0.3582 -0.0130
29431ION     NA48965  13.777   4.463  11.114  0.0354  0.1771  0.1641
29432ION     NA48966   6.236  11.408  16.021 -0.3703 -0.0139 -0.0405
29433ION     NA48967  15.344  17.348  13.890 -0.1866 -0.1778 -0.0992
29434ION     NA48968   8.267  18.000  14.543 -0.2017 -0.2271  0.2691
29435ION     NA48969   3.788  13.120  10.832  0.2843 -0.1918  0.5266
29436ION     NA48970  10.292   0.629   5.413 -0.0829  0.1813  0.0292
29437ION     NA48971  10.851  14.676  11.550  0.0753  0.0845  0.2950
29438ION     NA48972  13.162   7.002  12.933 -0.4743  0.0275  0.3205
29439ION     NA48973   3.741  13.306  15.539  0.3665  0.0290 -0.0393
29440ION     NA48974  16.465  16.523  14.227 -0.0090 -0.1144 -0.2952
29441ION     NA48975  12.064  10.362  12.829 -0.1570 -0.0923 -0.1003
29442ION     NA48976   0.515  17.666  14.742  0.0618  0.0798 -0.0804
29443ION     NA48977   2.009   4.932   5.384 -0.0477  0.0445  0.2090
29444ION     NA48978   8.923   3.027  13.140 -0.1174 -0.4218 -0.0056
29445ION     NA48979   8.181   0.118   1.737 -0.3141 -0.2383  0.3693
29446ION     NA48980   7.518   6.920  14.271  0.0841  0.0723 -0.1889
29447ION     NA48981   0.380  14.752   5.533  0.0682 -0.1561  0.2127
29448ION     NA48982  13.610   0.125   1.463 -0.0427 -0.0258 -0.0936
29449ION     NA48983   3.804   8.425   1.178 -0.0594 -0.1022  0.1191
29450ION     NA48984   1.140   6.513  15.949 -0.1026 -0.0759  0.1008
29451ION     NA48985   6.904   0.256  13.420 -0.3096  0.0116  0.0724
29452ION     NA48986   2.664   8.914  13.333 -0.0155  0.0971 -0.1836
29453ION     NA48987   9.185   0.959  14.633  0.2497 -0.1180 -0.1614
29454ION     NA48988   3.271   6.051  14.211 -0.0044  0.0181  0.0516
29455ION     NA48989  10.101  13.573  11.333 -0.1269  0.0573  0.1091
29456ION     NA48990  13.203   4.863   2.320  0.0453 -0.0507 -0.0268
29457ION     NA48991   8.870   3.837   5.372  0.0665 -0.0037  0.1234
29458ION     NA48992   5.768   7.890   3.784  0.0901  0.0535  0.4075
29459ION     NA48993  17.122   3.450   5.321 -0.3978  0.1338 -0.0623
29460ION     NA48994   8.053   1.559  13.619 -0.4190  0.1003  0.0400
29461ION     NA48995  17.644  11.445  12.807  0.3628  0.1919 -0.2279
29462ION     NA48996   0.490  15.308  13.926  0.1297 -0.2564 -0.2248
29463ION     NA48997  15.726   0.479  10.685 -0.2341 -0.0500  0.2461
29464ION     NA48998   8.077   3.054   5.308  0.0089 -0.1451 -0.1668
29465ION     NA48999   3.016   6.413  14.874 -0.1824 -0.2344 -0.0384
29466ION     NA49000  15.048   0.585  11.027 -0.2850  0.1246  0.2071
29467ION     NA49001  17.264  16.132  12.114  0.0026 -0.2533  0.0195
29468ION     NA49002   5.774   2.681  10.620 -0.1445  0.2059  0.2446
29469ION     NA49003  13.694   2.407   5.698 -0.2659 -0.0978 -0.1212
29470ION     NA49004   0.933   4.101   0.047 -0.0443  0.0076 -0.0476
29471ION     NA49005   9.351  15.394   1.365 -0.2220 -0.1293  0.1704
29472ION     NA49006  12.507   6.431   3.729 -0.0224 -0.2596 -0.0336
29473ION     NA49007  14.612  14.759   4.527 -0.0559  0.4011 -0.0454
29474ION     NA49008  14.198   7.541   4.404 -0.0215 -0.0382  0.1436
29475ION     NA49009  12.641  11.165  14.452 -0.1723 -0.2854 -0.1071
29476ION     NA49010  11.537   4.180   1.845  0.0213  0.1274 -0.2856
29477ION     NA49011   5.886   6.521   2.020 -0.2835  0.1222 -0.1619
29478ION     NA49012  13.667   6.376  11.295 -0.2241  0.1022 -0.0422
29479ION     NA49013  12.804  11.772  14.644  0.2197 -0.0444 -0.3723
29480ION     NA49014  13.409   9.002  14.686 -0.1322 -0.1789  0.2702
29481ION     NA49015  12.590   5.455  14.736  0.1063  0.0227 -0.0767
29482ION     NA49016  12.797   8.266  15.460 -0.3240  0.0702 -0.0483
29483ION     NA49017  13.224  15.594  10.727  0.1030 -0.0770 -0.1330
29484ION     NA49018  11.149   4.489   5.503 -0.1375 -0.1613  0.2792
29485ION     NA49019  11.699   0.164  11.007  0.0790 -0.2281  0.1106
29486ION     NA49020  10.245   5.475  10.741  0.0222  0.1005  0.0453
29487ION     NA49021   5.710   4.728  10.088  0.0326  0.1338  0.0958
29488ION     NA49022   8.846  10.065   0.174 -0.1804  0.0334 -0.0481
29489ION     NA49023   9.906   9.336   5.770 -0.3462 -0.1380 -0.0440
29490ION     NA49024   1.236   0.180  14.595  0.0242 -0.3174  0.0008
29491ION     NA49025  14.751   1.005   2.203 -0.0563  0.1245  0.1992
29492ION     NA49026   6.134   0.096   0.322 -0.1974  0.0492 -0.0167
29493ION     NA49027   0.072   2.065   5.219  0.1204  0.1667  0.0112
29494ION     NA49028  16.294   4.747  12.511  0.0079 -0.2529 -0.0073
29495ION     NA49029  11.548  13.656  14.352  0.1387 -0.2742  0.4232
29496ION     NA49030  10.929  18.142  12.043  0.1719  0.0556  0.0987
29497ION     NA49031   6.602   8.266  12.870  0.1199 -0.1489  0.1183
29498ION     NA49032   5.072  15.817   5.247  0.1008 -0.3840 -0.1007
29499ION     NA49033   7.368   5.530   1.120  0.1020 -0.2536  0.0336
29500ION     NA49034   3.994   1.499   2.215 -0.0659  0.3406 -0.1313
29501ION     NA49035  12.748  12.960   5.661  0.2895  0.0099  0.0950
29502ION     NA49036  10.796  14.715   0.115  0.3558 -0.0086 -0.0014
29503ION     NA49037   0.671   4.614  13.328 -0.3396 -0.4031  0.1173
29504ION     NA49038   3.226   3.123   5.311 -0.2559 -0.2260  0.3891
29505ION     NA49039   4.527   1.127  10.628  0.0439 -0.0106 -0.0117
29506ION     NA49040  10.108   5.105  15.164  0.0742  0.0658 -0.2544
29507ION     NA49041  15.767   5.893  12.386  0.0940 -0.1627 -0.2892
29508ION     NA49042  13.148   4.814  13.159 -0.0195  0.1881 -0.1254
29509ION     NA49043   1.457  16.544   0.846  0.1624 -0.0296  0.2592
29510ION     NA49044   0.946  10.202   4.399  0.1087  0.0810  0.2864
29511ION     NA49045   1.436  10.392   0.835 -0.1470 -0.2520 -0.0501
29512ION     NA49046   6.701  12.951  14.684  0.1132  0.0387  0.1471
29513ION     NA49047   1.769   6.453  13.039 -0.3096 -0.2448  0.0386
29514ION     NA49048   5.200   1.264   4.417 -0.0293  0.0615  0.0907
29515ION     NA49049  10.093  12.820   0.128 -0.0932  0.3539  0.1841
29516ION     NA49050  12.521  17.458   5.724 -0.2928 -0.0767 -0.1890
29517ION     NA49051   4.337   5.674  15.837  0.1775  0.1393  0.1342
29518ION     NA49052  13.718  10.130   0.484 -0.1470 -0.1868 -0.1110
29519ION     NA49053  10.426   6.419  10.569 -0.1624 -0.0873  0.0697
29520ION     NA49054  14.056  17.274   5.187 -0.0916 -0.2188 -0.1595
29521ION     NA49055   7.799  16.351  10.685 -0.0071  0.1074 -0.2671
29522ION     NA49056  14.920   1.032   5.900  0.1604 -0.0388 -0.0008
29523ION     NA49057  10.596   3.834  10.776  0.0405 -0.1660 -0.1222
29524ION     NA49058  11.151  16.973  13.401  0.0574 -0.0313  0.2040
29525ION     NA49059   4.835  15.592  10.377  0.3836 -0.1167 -0.1637
29526ION     NA49060  11.146  11.781   5.628  0.0285 -0.1716 -0.1777
29527ION     NA49061   5.912   5.071   5.232 -0.1592 -0.2630 -0.1528
29528ION     NA49062   3.455   7.445  13.753 -0.1649 -0.1590 -0.2126
29529ION     NA49063   7.536  12.955  15.713 -0.0273  0.0374  0.0074
29530ION     NA49064   8.178  17.208   0.859 -0.0417 -0.0538  0.0408
29531ION     NA49065   6.745  12.955   1.602 -0.0561  0.0119  0.1707
29532ION     NA49066   3.621   5.040  10.606 -0.1389 -0.0123 -0.2652
29533ION     NA49067  16.467   6.544  12.421 -0.0575  0.0333 -0.0149
29534ION     NA49068   0.799   2.436  10.247 -0.1413 -0.3288  0.1774
29535ION     NA49069  14.342   1.031   1.866  0.2740 -0.0504 -0.0784
29536ION     NA49070   9.176  13.865   3.822  0.1777  0.0563 -0.2384
29537ION     NA49071   9.453  16.586   0.987  0.2117 -0.1781  0.0397
29538ION     NA49072   2.430   9.976  10.563 -0.0722 -0.2639  0.0369
29539ION     NA49073   4.642   9.306   3.834 -0.0816  0.0680 -0.1674
29540ION     NA49074  17.037   1.402   0.438 -0.2796  0.0223 -0.2366
29541ION     NA49075   2.345  16.614   5.145  0.1171  0.0277 -0.0932
29542ION     NA49076  15.339   3.886  13.527  0.0527 -0.1528 -0.2759
29543ION     NA49077   1.914   1.642  13.544 -0.0564  0.2375  0.1641
29544ION     NA49078  13.985   8.406   0.710 -0.1815  0.0629  0.1476
29545ION     NA49079   5.841  13.439   2.548  0.0008  0.2146  0.2025
29546ION     NA49080   7.954   8.344   4.353  0.3251 -0.0476 -0.0783
29547ION     NA49081   9.294   0.623   1.363  0.0664  0.1751 -0.2654
29548ION     NA49082   7.752  14.005   3.958  0.1441  0.1337  0.0326
29549ION     NA49083   3.259   9.824  13.727  0.1888 -0.2472  0.1225
29550ION     NA49084   7.270  13.074   1.090 -0.0670  0.0337  0.1350
29551ION     NA49085  16.989   6.746   5.468  0.0571 -0.1855 -0.2295
29552ION     NA49086  18.018  13.404   5.519 -0.4529  0.1873  0.1732
29553ION     NA49087  14.100   9.804  10.808  0.1160  0.1164 -0.0335
29554ION     NA49088  10.626  12.581   3.241 -0.0926 -0.0552  0.0299
29555ION     NA49089  11.383   9.735  10.844 -0.1933  0.1414 -0.0806
29556ION     NA49090  11.464  14.002  10.811 -0.1593  0.1496  0.1819
29557ION     NA49091  14.769   9.039  12.477  0.0214  0.0960  0.1248
29558ION     NA49092   4.784   6.795   5.466 -0.3201  0.2167  0.0789
29559ION     NA49093  13.324   5.883   0.646 -0.0378 -0.1796 -0.1076
29560ION     NA49094   9.442  14.537   1.821  0.5242  0.1489  0.2160
29561ION     NA49095   6.811   5.650  10.648 -0.0865 -0.0434  0.2424
29562ION     NA49096   6.503  16.025  11.708  0.2459  0.1760 -0.0221
29563ION     NA49097  17.853   5.399  10.775  0.4403  0.1117 -0.1941
29564ION     NA49098  10.415   4.650   0.490 -0.2267  0.1490  0.1063
29565ION     NA49099  11.858   1.620   0.176 -0.3377  0.1569  0.1683
29566ION     NA49100   2.471  10.955  10.454 -0.5282  0.3240  0.1801
29567ION     NA49101   6.591  14.756   5.318  0.2683 -0.0745 -0.0325
29568ION     NA49102  13.961  16.530   0.692  0.0084 -0.3537 -0.1410
29569ION     NA49103   1.169   4.734   0.700 -0.2198 -0.0046 -0.2942
29570ION     NA49104  10.344   3.861   2.428 -0.0241 -0.1397 -0.0542
29571ION     NA49105   0.376  13.379  12.887 -0.0485  0.0918 -0.0006
29572ION     NA49106  10.940   6.292  10.741 -0.1516  0.1076 -0.0272
29573ION     NA49107   9.462   6.808  12.898 -0.1011 -0.1310 -0.2401
29574ION     NA49108   8.431  17.571  10.643  0.0276  0.0126  0.0559
29575ION     NA49109  10.886   2.702  13.097  0.1064  0.0350 -0.0576
29576ION     NA49110  12.327   9.615   1.439 -0.1922  0.2615  0.2859
29577ION     NA49111  16.175  15.356   6.068 -0.4377 -0.1338  0.1332
29578ION     NA49112   7.908   2.421   1.412 -0.0022 -0.0960 -0.2648
29579ION     NA49113   7.494  16.461  12.376  0.0099  0.1806  0.2954
29580ION     NA49114  11.495   6.900  12.631 -0.2473  0.1613  0.1132
29581ION     NA49115   1.999   9.004  11.132  0.2264  0.0374 -0.0427
29582ION     NA49116  15.411  15.960  15.969  0.2042  0.2570  0.0138
29583ION     NA49117  11.967   4.989  11.085  0.0031  0.0794 -0.0987
29584ION     NA49118   6.440   8.664  10.451  0.0812  0.1740 -0.2387
29585ION     NA49119   6.044   5.793  13.701  0.0875 -0.0610  0.1135
29586ION     NA49120   2.134   6.383   2.152 -0.0531  0.0213  0.0661
29587ION     NA49121   5.381   8.181  14.989 -0.0490 -0.0256 -0.2646
29588ION     NA49122  15.482  15.066  13.118  0.2269 -0.0030  0.1474
29589ION     NA49123   9.103  12.533  15.134 -0.1949 -0.0243 -0.0117
29590ION     NA49124   5.237   5.452   4.055  0.0333  0.1878 -0.2858
29591ION     NA49125   6.155  14.090  13.017 -0.0865  0.0417  0.0715
29592ION     NA49126  18.010   6.620   2.823  0.2550 -0.0512 -0.0029
29593ION     NA49127   5.974   8.788   5.372  0.4781 -0.0341 -0.3887
29594ION     NA49128  14.594   7.674   0.898 -0.1050  0.1402  0.1384
29595ION     NA49129   6.354   1.489  10.503 -0.1724 -0.1980 -0.2082
29596ION     NA49130   5.772  17.459   2.532  0.2489 -0.1378 -0.2383
29597ION     NA49131  12.968  14.452  10.815 -0.2104 -0.2389 -0.1235
29598ION     NA49132  16.931   0.520  11.611  0.0160  0.2037 -0.1233
29599ION     NA49133   8.600   4.665  10.229 -0.0600 -0.2615 -0.0611
29600ION     NA49134   7.492   0.237  15.120  0.1028  0.3316  0.0765
29601ION     NA49135  17.959  12.236  10.840  0.4219  0.0268  0.0469
29602ION     NA49136  16.038   0.516   0.933  0.1162 -0.0845  0.3334
29603ION     NA49137   8.892   8.561  13.199  0.2565  0.0681  0.1303
29604ION     NA49138   3.070  13.796   5.332  0.2119  0.0448 -0.0204
29605ION     NA49139  13.858   4.106  11.979  0.1561 -0.0346 -0.3903
29606ION     NA49140   1.378  12.851   1.475  0.1394 -0.0719  0.1256
29607ION     NA49141  14.026  14.866  10.790 -0.1237 -0.3132  0.3739
29608ION     NA49142   1.298   8.314   5.520  0.0478 -0.0567  0.1426
29609ION     NA49143   1.187   1.341   1.178 -0.2873  0.1373 -0.3053
29610ION     NA49144  14.244  10.776   1.765  0.1811  0.0249  0.2083
29611ION     NA49145  13.513  15.090   0.753  0.0492 -0.0333 -0.1316
29612ION     NA49146  12.291   7.783   3.657  0.0463  0.2277 -0.0499
29613ION     NA49147   9.091   1.872  15.155  0.1558 -0.1159 -0.3015
29614ION     NA49148  12.973   1.227   5.287 -0.2961  0.0890 -0.0518
29615ION     NA49149   0.332   5.670  11.269 -0.0689  0.0376 -0.0454
29616ION     NA49150   9.748   5.962   1.143 -0.1679  0.2089  0.1078
29617ION     NA49151   8.855   0.892  15.935 -0.0080  0.2809 -0.0084
29618ION     NA49152   1.715   3.725   0.153 -0.0610  0.1142 -0.0050
29619ION     NA49153  10.746   8.693   5.300  0.1879 -0.0902  0.1509
29620ION     NA49154  11.635   6.561   1.571 -0.2632  0.0492  0.0776
29621ION     NA49155   5.475  18.093  12.676 -0.2837  0.3184  0.2345
29622ION     NA49156  18.120   1.629  15.770 -0.0245 -0.3605  0.3383
29623ION     NA49157   9.780   1.440  12.191  0.0557  0.0525 -0.0771
29624ION     NA49158   0.347  14.548   3.884  0.2329  0.2421 -0.0394
29625ION     NA49159   2.175   2.506  12.432  0.1240 -0.1031 -0.2288
29626ION     NA49160  15.266   8.046   0.742 -0.2416 -0.2053 -0.3412
29627ION     NA49161  15.773   8.566   2.611 -0.0242 -0.0861 -0.0189
29628ION     NA49162   3.076  17.139  10.343 -0.0383  0.3169  0.2365
29629ION     NA49163  10.513  11.580   5.723 -0.2441  0.0306 -0.0569
29630ION     NA49164   0.307  10.527  11.151 -0.0343  0.0120 -0.1677
29631ION     NA49165  12.430  15.544   4.765 -0.1143  0.0635  0.3353
29632ION     NA49166   4.254   3.096   4.402 -0.2202 -0.2940  0.1391
29633ION     NA49167   2.791   8.385  10.580 -0.2757  0.1266  0.4282
29634ION     NA49168  12.931  12.074   5.722 -0.1411 -0.0200 -0.3368
29635ION     NA49169  16.517   8.102   5.446 -0.0063 -0.0485 -0.3118
29636ION     NA49170  12.605   9.068  10.804  0.0428  0.0847 -0.0057
29637ION     NA49171  10.000   5.334   5.274 -0.0799 -0.2481  0.2520
29638ION     NA49172  11.675   2.488  10.795  0.0121  0.2483  0.0119
29639ION     NA49173   4.999   4.357  10.487  0.1360  0.0256 -0.0055
29640ION     NA49174   4.220  14.933  10.492  0.1521 -0.0649  0.3284
29641ION     NA49175  15.098   4.008   5.571 -0.2724 -0.1022  0.2108
29642ION     NA49176  12.958  16.466   5.800 -0.1855 -0.0106  0.1170
29643ION     NA49177   1.595  14.290  10.719  0.1479 -0.2239  0.1327
29644ION     NA49178  17.032  10.615   4.250  0.1576  0.1532  0.1854
29645ION     NA49179   7.391  13.047   5.693 -0.0368 -0.1936 -0.2278
29646ION     NA49180  13.082   8.711  11.853  0.0670  0.0126 -0.1415
29647ION     NA49181   2.022  15.676   0.514  0.0155  0.0351 -0.0609
29648ION     NA49182   7.682  10.474  11.797  0.1463 -0.0752 -0.3896
29649ION     NA49183  15.847  11.583   1.957  0.1253  0.0764 -0.3692
29650ION     NA49184   2.437  11.193  12.331 -0.0321 -0.0397  0.0000
29651ION     NA49185   2.019   1.835   5.330  0.0098 -0.0251  0.3303
29652ION     NA49186  14.166  11.392  11.327 -0.1260  0.4618 -0.1213
29653ION     NA49187  17.724   3.566   3.178 -0.0308 -0.2462 -0.0252
29654ION     NA49188  16.712  11.576  13.530 -0.0890  0.1322 -0.1069
29655ION     NA49189  15.177   7.923  11.500 -0.1293  0.1713  0.1158
29656ION     NA49190  12.819  11.805  13.444  0.2968 -0.2531  0.5581
29657ION     NA49191  16.585   4.178   1.502  0.0268  0.1326  0.0520
29658ION     NA49192  10.281  17.170  12.042 -0.1937  0.1282  0.0289
29659ION     NA49193  12.149   2.746   5.524  0.0484  0.3038 -0.0382
29660ION     NA49194   6.603  15.229   2.704  0.0479  0.1201 -0.1218
29661ION     NA49195   2.520  13.433   3.144  0.1388  0.2029  0.0369
29662ION     NA49196  13.371   9.507  11.837  0.2098  0.0677 -0.0589
29663ION     NA49197   8.751  15.038  10.902 -0.2714 -0.1331 -0.0269
29664ION     NA49198   5.902   1.661  14.804 -0.1374 -0.1560 -0.0105
29665ION     NA49199  14.100   4.261  15.046 -0.1500 -0.2559 -0.0122
29666ION     NA49200  11.501  16.073   4.766  0.2659 -0.1660  0.2466
29667ION     NA49201   7.942   3.200  15.710 -0.2048 -0.2143  0.0302
29668ION     NA49202   3.538   9.431   3.346  0.0649 -0.2180 -0.1734
29669ION     NA49203  11.964  12.307   5.699  0.1847  0.0850 -0.4471
29670ION     NA49204  14.340   5.117   1.050 -0.1739  0.1158  0.2945
29671ION     NA49205  13.127  15.107  14.346  0.0052  0.2135  0.1167
29672ION     NA49206   1.556  12.501  12.173  0.1175 -0.0425 -0.0385
29673ION     NA49207   1.976   3.335  10.413  0.1015 -0.0335 -0.0469
29674ION     NA49208  12.844   1.463   2.400 -0.0204  0.0760 -0.0550
29675ION     NA49209   2.634  14.651   5.491 -0.1286 -0.1842  0.2799
29676ION     NA49210   6.536  14.674   0.730  0.1103 -0.0919  0.0928
29677ION     NA49211   0.922   2.599   5.308 -0.3645 -0.0636 -0.1250
29678ION     NA49212   3.316   4.306   5.095 -0.0243  0.1440  0.2045
29679ION     NA49213  17.751   6.886   5.503  0.1252  0.1624 -0.2318
29680ION     NA49214  10.157   1.673   5.274 -0.0656  0.0279 -0.0418
29681ION     NA49215   9.810  12.825   4.610 -0.1527 -0.0218  0.1225
29682ION     NA49216   8.151   8.329   1.752 -0.0187  0.1177 -0.0440
29683ION     NA49217  14.251  14.738   0.262 -0.1847  0.1899 -0.1003
29684ION     NA49218  17.187  13.567   5.831  0.1739 -0.1772  0.3363
29685ION     NA49219   7.581  17.467  15.015 -0.0518  0.1188 -0.1521
29686ION     NA49220   9.531   8.411  11.141  0.2780 -0.0080  0.0268
29687ION     NA49221   4.084   7.685   3.728  0.1963 -0.0535 -0.0306
29688ION     NA49222   9.284   7.906  12.748  0.1518 -0.0508 -0.0201
29689ION     NA49223   8.350  13.343   1.359  0.0593 -0.0768 -0.2761
29690ION     NA49224   5.924  10.584   0.359  0.0844  0.0237  0.1850
29691ION     NA49225   1.393  14.025  13.026  0.1863 -0.2769  0.1986
29692ION     NA49226   9.031   1.746   2.578 -0.0183 -0.0354 -0.0374
29693ION     NA49227   8.038   6.735  13.433 -0.0540 -0.1356  0.1449
29694ION     NA49228   1.923   6.038   1.129  0.0718  0.3176  0.0481
29695ION     NA49229  13.595  11.843   1.674 -0.0149  0.1144 -0.1796
29696ION     NA49230   3.342   7.735  12.656  0.1371  0.3162 -0.1666
29697ION     NA49231  12.605   7.390   2.986  0.1846  0.0127 -0.0442
29698ION     NA49232  15.395  10.427  12.803  0.1140  0.2530 -0.0526
29699ION     NA49233  13.155   8.748   5.374 -0.2920 -0.0898 -0.2372
29700ION     NA49234   5.572   2.418   1.285 -0.1927  0.3833  0.0144
29701ION     NA49235  12.258  13.995   4.365 -0.1720  0.0017  0.0082
29702ION     NA49236  17.145  16.127   4.331 -0.0351  0.0786  0.2915
29703ION     NA49237  14.192   9.493   2.187 -0.1407 -0.3991 -0.0744
29704ION     NA49238   4.853  11.748  13.475  0.2839 -0.0981  0.1876
29705ION     NA49239   8.973   2.120   0.959 -0.1687 -0.0597  0.3100
29706ION     NA49240  14.383   4.721  13.678 -0.1748 -0.1986  0.2805
29707ION     NA49241  15.339  14.431   1.568 -0.2093 -0.0553 -0.2345
29708ION     NA49242  14.946   5.463  15.920  0.1278  0.1547 -0.0773
29709ION     NA49243   5.447  13.180   5.320  0.2440 -0.0420 -0.0045
29710ION     NA49244  10.501  16.041   5.409 -0.1788 -0.2365 -0.1322
29711ION     NA49245   9.679  17.199  16.025  0.3107  0.1089  0.1564
29712ION     NA49246   8.024   6.355  14.664  0.1503 -0.1829  0.0925
29713ION     NA49247   5.234   3.406   5.035 -0.2660  0.4459  0.1679
29714ION     NA49248   2.195  11.055   4.610 -0.1883 -0.1214 -0.0949
29715ION     NA49249  15.259   4.074  10.683 -0.0608 -0.1336 -0.1283
29716ION     NA49250  18.079   0.655  10.573  0.2496 -0.1907  0.1992
29717ION     NA49251  13.355  15.110   5.471 -0.2439 -0.1358  0.1718
29718ION     NA49252   4.515   0.367  13.878  0.1211 -0.1046 -0.0576
29719ION     NA49253  10.458  17.555  13.972 -0.0785 -0.1886  0.1310
29720ION     NA49254  14.094   5.744  10.839  0.0947 -0.3466 -0.0145
29721ION     NA49255   6.288  10.616   4.738  0.0084 -0.2508 -0.0681
29722ION     NA49256   1.953   6.729  10.670 -0.0676  0.1818  0.2602
29723ION     NA49257   7.963   9.907  14.319 -0.1485 -0.3646 -0.3147
29724ION     NA49258  14.262   8.051  15.953  0.1604 -0.0393 -0.0707
29725ION     NA49259   2.950  12.882   5.332  0.0349 -0.0790 -0.3540
29726ION     NA49260  15.206  10.881  14.438  0.0276  0.0093  0.0907
29727ION     NA49261   1.297   5.342   5.477  0.0423 -0.0387 -0.4791
29728ION     NA49262   3.450   7.635  10.878  0.0904 -0.0928 -0.0232
29729ION     NA49263  10.941   6.544   0.023  0.0909  0.1994  0.1579
29730ION     NA49264  16.716   3.414   5.618  0.4135  0.1644 -0.0724
29731ION     NA49265   3.277   9.616   5.352 -0.0255 -0.1448  0.1928
29732ION     NA49266  16.219  15.303  11.107  0.0150  0.0647 -0.0904
29733ION     NA49267   5.011   9.914  11.334  0.0121 -0.0522  0.0190
29734ION     NA49268  17.498  15.096  13.202 -0.2636 -0.3301  0.1354
29735ION     NA49269   9.107   3.030   4.936  0.1323  0.3094  0.0014
29736ION     NA49270   0.335  15.876   5.630 -0.1282 -0.0227  0.1807
29737ION     NA49271   4.941   2.083  10.688  0.0303  0.0149  0.0022
29738ION     NA49272  15.314  10.441   3.649 -0.1668 -0.0629 -0.1768
29739ION     NA49273  15.335  17.932  10.639  0.2538 -0.1130 -0.2906
29740ION     NA49274   8.740   5.034   1.524 -0.0313 -0.2569  0.1923
29741ION     NA49275  14.625   9.786   5.416  0.0820 -0.2568 -0.0452
29742ION     NA49276   8.503  16.720  10.786 -0.1737  0.1851 -0.1360
29743ION     NA49277   1.075  15.028   3.677 -0.2068 -0.2190  0.0698
29744ION     NA49278   6.591  15.244  10.775  0.2413 -0.0960  0.0785
29745ION     NA49279  14.181   2.733  10.657 -0.1822  0.0876  0.0558
29746ION     NA49280  17.771   0.732   4.649 -0.1170 -0.2918  0.0576
29747ION     NA49281  18.160   6.115   0.470 -0.0749  0.0189 -0.1970
29748ION     NA49282  14.371  16.899  11.043  0.0824 -0.1481  0.2308
29749ION     NA49283   1.324   0.899  10.460 -0.2904 -0.1384 -0.1636
29750ION     NA49284   0.193  11.037   3.171 -0.0650  0.0681 -0.1072
29751ION     NA49285  13.946  16.301   5.782  0.0153 -0.2322 -0.1496
29752ION     NA49286   8.352   5.262  15.201  0.0684  0.1113  0.2151
29753ION     NA49287  16.770  18.185  14.841 -0.0042 -0.0860  0.0874
29754ION     NA49288   6.288   6.995   4.766  0.1500  0.2298  0.1886
29755ION     NA49289  11.790  17.584  10.920 -0.2470 -0.1118  0.0382
29756ION     NA49290  15.954   7.700   2.455 -0.1147  0.0740  0.0013
29757ION     NA49291   8.276   6.910   5.104  0.1779 -0.4021  0.2507
29758ION     NA49292  10.679   0.182  10.830 -0.0759  0.0624 -0.1103
29759ION     NA49293  12.897  17.994  12.380  0.0754  0.0416  0.2618
29760ION     NA49294   5.674   6.515   5.226 -0.1159 -0.2111 -0.1188
29761ION     NA49295   1.288   1.138   5.135 -0.0727 -0.4507 -0.0358
29762ION     NA49296   3.216  14.774  11.946  0.0343  0.4750 -0.1791
29763ION     NA49297   3.967  16.729  10.610  0.0166 -0.1795  0.3053
29764ION     NA49298  16.928  13.249   0.035 -0.3186  0.1819 -0.2151
29765ION     NA49299   3.897   9.222  13.938 -0.0831  0.1321  0.0006
29766ION     NA49300   3.944   0.304   1.046  0.2030  0.1204  0.1332
29767ION     NA49301   0.713   8.568   3.803  0.0057  0.0781  0.3136
29768ION     NA49302   3.618   5.212   4.620 -0.3065  0.0971 -0.0695
29769ION     NA49303  17.303  11.845   5.530 -0.1209  0.0544  0.0555
  18.19205  18.19205  16.05882
