INSANE! Membrane UpperLeaflet>loPI:POPI:DPPI:PYPI:ERGO=180.0:5.0:3.0:2.0:10.0 LowerLeaflet>loPI:POPI:DPPI:PYPI:ERGO=180.0:5.0:3.0:2.0:10.0
49303
    1loPI    C1    1   4.966  16.736  10.852  0.0465 -0.0848 -0.2509
    1loPI    C2    2   4.996  16.432  11.112  0.1300  0.0095 -0.1491
    1loPI    C3    3   5.183  16.778  11.186  0.0003  0.1010 -0.2436
    1loPI   PO4    4   4.739  16.721  10.830  0.2510  0.0594  0.1922
    1loPI   GL1    5   4.563  16.507  10.436  0.1239 -0.0267  0.0622
    1loPI   GL2    6   4.273  16.348  10.349 -0.0118 -0.0831 -0.0998
    1loPI   C1A    7   4.811  16.320  10.189 -0.0049 -0.1592 -0.1155
    1loPI   C2A    8   4.824  16.261   9.776 -0.1750 -0.4383  0.0486
    1loPI   C3A    9   4.780  16.254   9.295 -0.2138 -0.1817 -0.1632
    1loPI   C4A   10   4.747  16.257   8.856  0.3950 -0.0452  0.1106
    1loPI   C5A   11   4.765  16.128   8.373 -0.3393 -0.2422 -0.2189
    1loPI   C6A   12   4.774  16.051   7.909  0.2844  0.4219 -0.1106
    1loPI   C1B   13   4.383  16.458   9.922  0.0793  0.0858 -0.3488
    1loPI   C2B   14   4.328  16.459   9.442 -0.2426  0.1019 -0.2818
    1loPI   C3B   15   4.283  16.533   8.960  0.0428  0.2395 -0.1739
    1loPI   C4B   16   4.358  16.456   8.507 -0.3173 -0.0901 -0.2050
    2loPI    C1   17   9.550   4.466  11.100 -0.2281 -0.0055 -0.1542
    2loPI    C2   18   9.940   4.516  11.174 -0.1839 -0.2890 -0.1836
    2loPI    C3   19   9.668   4.691  11.410 -0.0420 -0.6429  0.2574
    2loPI   PO4   20   9.593   4.481  10.754  0.3498  0.0105 -0.2419
    2loPI   GL1   21   9.689   4.342  10.387 -0.0901 -0.0235  0.0605
    2loPI   GL2   22   9.618   4.638  10.221  0.0145 -0.1822  0.1978
    2loPI   C1A   23   9.629   4.218  10.030  0.1583  0.1695  0.0115
    2loPI   C2A   24   9.395   4.355   9.674  0.0426 -0.0040  0.3523
    2loPI   C3A   25   9.180   4.493   9.230 -0.1720 -0.2707  0.0329
    2loPI   C4A   26   9.399   4.216   8.883 -0.0292 -0.1970 -0.1010
    2loPI   C5A   27   9.359   4.101   8.495 -0.0018 -0.2340  0.1904
    2loPI   C6A   28   9.036   4.074   8.217 -0.0263 -0.0267 -0.2753
    2loPI   C1B   29   9.728   4.659   9.752  0.1772  0.0532  0.1858
    2loPI   C2B   30   9.761   4.603   9.340  0.0113 -0.0797 -0.2633
    2loPI   C3B   31   9.832   4.500   8.883 -0.1384 -0.0109  0.1536
    2loPI   C4B   32   9.851   4.452   8.434 -0.0377 -0.2656 -0.1946
    3loPI    C1   33   5.275   1.516  10.671 -0.0100 -0.2570  0.0264
    3loPI    C2   34   5.515   1.696  10.407  0.0493 -0.0982  0.1860
    3loPI    C3   35   5.623   1.672  10.792 -0.1428 -0.1192  0.2394
    3loPI   PO4   36   4.961   1.635  10.533  0.0453 -0.4099 -0.0283
    3loPI   GL1   37   4.788   1.883  10.316  0.1716  0.0101 -0.1347
    3loPI   GL2   38   4.495   1.723  10.346  0.1361  0.0984  0.0662
    3loPI   C1A   39   4.757   2.048   9.856 -0.2240 -0.0577  0.1070
    3loPI   C2A   40   4.830   2.134   9.436  0.2344  0.3151  0.0313
    3loPI   C3A   41   4.808   2.110   8.980  0.0536 -0.0993  0.1116
    3loPI   C4A   42   4.952   2.225   8.600  0.4020  0.3445  0.0238
    3loPI   C5A   43   4.830   2.377   8.156 -0.1237  0.4342 -0.0717
    3loPI   C6A   44   4.420   2.319   7.940  0.1115  0.2145 -0.1650
    3loPI   C1B   45   4.560   1.619   9.905 -0.3195 -0.2735 -0.4343
    3loPI   C2B   46   4.650   1.505   9.578 -0.0220 -0.1669 -0.1074
    3loPI   C3B   47   4.696   1.431   9.218  0.0365 -0.2106 -0.1390
    3loPI   C4B   48   4.875   1.618   8.835  0.4492  0.0513  0.2925
    4loPI    C1   49  10.092  11.264  10.553  0.0222 -0.1428 -0.0988
    4loPI    C2   50  10.139  11.402  10.925  0.2806  0.0240 -0.1903
    4loPI    C3   51   9.873  11.112  10.851 -0.1519  0.3512  0.0348
    4loPI   PO4   52  10.062  11.506  10.403 -0.0234  0.0106  0.3533
    4loPI   GL1   53  10.386  11.500  10.108  0.0857  0.2507  0.1676
    4loPI   GL2   54  10.200  11.728   9.965 -0.0484 -0.0129 -0.2601
    4loPI   C1A   55  10.253  11.313   9.658 -0.1336  0.1302  0.0804
    4loPI   C2A   56  10.309  11.291   9.211  0.2005 -0.0724 -0.3260
    4loPI   C3A   57  10.425  11.298   8.740  0.2328 -0.1019 -0.1815
    4loPI   C4A   58  10.450  11.359   8.276 -0.2327 -0.0413  0.2038
    4loPI   C5A   59  10.380  11.611   7.926 -0.1761 -0.0329 -0.0774
    4loPI   C6A   60  10.590  11.887   7.610  0.4013  0.2491  0.0536
    4loPI   C1B   61  10.016  11.739   9.574 -0.2510 -0.2037  0.0979
    4loPI   C2B   62  10.057  11.809   9.238 -0.1035  0.0628 -0.0641
    4loPI   C3B   63  10.105  11.766   8.775  0.1179  0.0644  0.0255
    4loPI   C4B   64  10.143  11.760   8.330  0.3244  0.0102  0.1449
    5loPI    C1   65  15.151   8.832  10.735  0.0254  0.0847  0.1873
    5loPI    C2   66  14.798   9.015  10.685  0.1247  0.2623  0.1266
    5loPI    C3   67  14.916   8.905  11.051 -0.0024  0.1837  0.1443
    5loPI   PO4   68  15.081   8.639  10.501  0.2285 -0.0453 -0.0529
    5loPI   GL1   69  15.114   8.716  10.037 -0.3743  0.0259 -0.1776
    5loPI   GL2   70  14.922   8.510  10.041  0.2137 -0.0701  0.1121
    5loPI   C1A   71  15.058   9.006   9.779  0.0392  0.1164 -0.1261
    5loPI   C2A   72  15.007   9.047   9.378 -0.0116  0.2412 -0.0705
    5loPI   C3A   73  14.815   9.249   9.026  0.2940  0.2103  0.1093
    5loPI   C4A   74  15.047   9.324   8.681  0.0315 -0.1176 -0.1747
    5loPI   C5A   75  15.413   9.226   8.435  0.1832  0.1352  0.0439
    5loPI   C6A   76  15.779   9.115   8.244 -0.0880  0.0145 -0.0413
    5loPI   C1B   77  14.524   8.481   9.770 -0.0458 -0.0318  0.0798
    5loPI   C2B   78  14.438   8.425   9.344 -0.0383 -0.0087 -0.1468
    5loPI   C3B   79  14.351   8.269   9.081 -0.0061 -0.0918  0.1131
    5loPI   C4B   80  14.337   8.151   8.552  0.1733  0.3551  0.1075
    6loPI    C1   81   3.015   7.028  10.458 -0.0821 -0.1525 -0.0806
    6loPI    C2   82   2.970   7.217  10.807  0.1960 -0.0803 -0.0815
    6loPI    C3   83   2.946   6.818  10.791  0.1301 -0.0802  0.0108
    6loPI   PO4   84   2.848   7.189  10.169  0.0528  0.0933 -0.1553
    6loPI   GL1   85   2.512   7.126   9.873  0.1508  0.0131 -0.3920
    6loPI   GL2   86   2.813   7.207   9.612  0.3181  0.2059 -0.4201
    6loPI   C1A   87   2.260   7.184   9.467  0.1846  0.1945 -0.1813
    6loPI   C2A   88   2.300   7.063   9.055 -0.0162 -0.3736  0.1751
    6loPI   C3A   89   2.543   6.986   8.610 -0.0799 -0.0809 -0.2246
    6loPI   C4A   90   2.507   6.863   8.161  0.2041 -0.1185  0.0647
    6loPI   C5A   91   2.504   6.614   7.773 -0.1795  0.3100  0.2357
    6loPI   C6A   92   2.377   6.271   7.608 -0.0548 -0.1499  0.5729
    6loPI   C1B   93   2.843   7.092   9.150 -0.0587  0.0536 -0.0328
    6loPI   C2B   94   2.962   7.093   8.759  0.1964 -0.0186 -0.0082
    6loPI   C3B   95   2.983   6.937   8.344  0.2657 -0.2282  0.1239
    6loPI   C4B   96   3.430   6.764   8.132 -0.5195 -0.0199 -0.1029
    7loPI    C1   97   2.006   7.078  10.632  0.1553  0.2746 -0.2329
    7loPI    C2   98   2.166   7.234  10.963  0.1353 -0.0973 -0.0423
    7loPI    C3   99   1.778   7.290  10.883  0.1024 -0.1426  0.0831
    7loPI   PO4  100   2.108   7.139  10.370  0.1444  0.1985  0.1410
    7loPI   GL1  101   1.896   6.850  10.189  0.1450  0.2323  0.3903
    7loPI   GL2  102   1.981   6.587  10.184 -0.2820  0.0649 -0.1843
    7loPI   C1A  103   2.111   6.778   9.724 -0.2151 -0.0406 -0.3235
    7loPI   C2A  104   2.124   6.681   9.289 -0.0215 -0.1146  0.1202
    7loPI   C3A  105   2.154   6.628   8.833  0.4130 -0.1530 -0.1645
    7loPI   C4A  106   2.112   6.766   8.434  0.2363 -0.0778 -0.1109
    7loPI   C5A  107   2.030   6.796   7.954 -0.0427 -0.0053 -0.1375
    7loPI   C6A  108   1.842   7.162   7.705 -0.2194  0.0432  0.0682
    7loPI   C1B  109   1.942   6.290   9.828 -0.0050 -0.1125 -0.1864
    7loPI   C2B  110   1.907   6.198   9.361  0.1914 -0.1724 -0.2241
    7loPI   C3B  111   1.907   6.220   8.958  0.0893 -0.1667 -0.1210
    7loPI   C4B  112   1.934   6.295   8.538 -0.1283 -0.0801  0.1256
    8loPI    C1  113   5.605  11.623  10.592  0.1236  0.0112  0.0920
    8loPI    C2  114   5.411  11.432  10.886  0.1284  0.0085  0.0935
    8loPI    C3  115   5.507  11.819  10.927  0.2213 -0.0192  0.1388
    8loPI   PO4  116   5.772  11.499  10.503 -0.0369 -0.2894 -0.3193
    8loPI   GL1  117   5.901  11.420  10.095 -0.0464 -0.0059 -0.1163
    8loPI   GL2  118   5.778  11.117  10.062  0.0637  0.0025  0.1036
    8loPI   C1A  119   6.115  11.504   9.780 -0.2400  0.1684 -0.6096
    8loPI   C2A  120   6.009  11.397   9.394 -0.2470 -0.3845  0.4171
    8loPI   C3A  121   5.937  11.403   8.961  0.1038  0.0111 -0.1825
    8loPI   C4A  122   5.999  11.391   8.570  0.1670  0.0783 -0.0469
    8loPI   C5A  123   6.069  11.729   8.270  0.0547  0.3322  0.0910
    8loPI   C6A  124   6.149  11.926   7.794 -0.0306 -0.1282 -0.1460
    8loPI   C1B  125   5.850  10.948   9.639  0.2504  0.0379  0.1184
    8loPI   C2B  126   6.048  10.937   9.188  0.2288  0.1670  0.1835
    8loPI   C3B  127   6.032  10.953   8.741 -0.1849 -0.0270 -0.1222
    8loPI   C4B  128   6.066  10.699   8.352 -0.0544  0.2443 -0.0966
    9loPI    C1  129   4.603   8.717  10.681 -0.0222  0.1072 -0.0532
    9loPI    C2  130   4.993   8.647  10.625 -0.0634 -0.2169  0.0444
    9loPI    C3  131   4.803   8.482  10.936 -0.1977  0.2449  0.2159
    9loPI   PO4  132   4.498   8.640  10.516 -0.3040 -0.0716  0.3907
    9loPI   GL1  133   4.543   8.487  10.110 -0.0683 -0.2242  0.2054
    9loPI   GL2  134   4.814   8.665  10.159 -0.1186 -0.1360  0.2260
    9loPI   C1A  135   4.567   8.454   9.718  0.0602 -0.0169 -0.0182
    9loPI   C2A  136   4.549   8.383   9.340 -0.0984 -0.2402 -0.0641
    9loPI   C3A  137   4.586   8.407   8.927  0.1145  0.1900 -0.3171
    9loPI   C4A  138   4.597   8.480   8.449  0.1461  0.0699  0.0908
    9loPI   C5A  139   4.579   8.569   8.024  0.0221 -0.2989 -0.3185
    9loPI   C6A  140   4.840   8.496   7.569  0.1995 -0.3864  0.2512
    9loPI   C1B  141   5.046   8.505   9.767 -0.1015 -0.0451 -0.0100
    9loPI   C2B  142   5.113   8.412   9.380 -0.2937 -0.0058 -0.2239
    9loPI   C3B  143   5.157   8.490   8.980 -0.0352 -0.2283 -0.1099
    9loPI   C4B  144   5.037   8.562   8.516 -0.0652 -0.1350 -0.0691
   10loPI    C1  145   2.290   7.572  10.273  0.2530 -0.0850  0.1667
   10loPI    C2  146   2.238   7.940  10.421 -0.0365  0.0119 -0.1632
   10loPI    C3  147   2.111   7.622  10.627 -0.0034  0.1112  0.0122
   10loPI   PO4  148   2.479   7.599  10.084  0.0614  0.2282 -0.0708
   10loPI   GL1  149   2.500   7.601   9.683  0.0300  0.1901  0.1375
   10loPI   GL2  150   2.708   7.890   9.736 -0.5965  0.0868  0.0214
   10loPI   C1A  151   2.536   7.611   9.188  0.3200  0.0080  0.0483
   10loPI   C2A  152   2.579   7.433   8.733  0.3083  0.1429  0.0083
   10loPI   C3A  153   2.488   7.443   8.249  0.1119  0.1550  0.1816
   10loPI   C4A  154   2.369   7.157   7.810  0.0359  0.0393 -0.3221
   10loPI   C5A  155   2.177   6.889   7.448 -0.1606  0.0005  0.0776
   10loPI   C6A  156   2.249   6.698   7.190 -0.3486 -0.3618 -0.0274
   10loPI   C1B  157   2.828   8.006   9.402  0.0474 -0.2803 -0.2794
   10loPI   C2B  158   2.725   7.977   8.914  0.1733  0.3916 -0.1992
   10loPI   C3B  159   2.748   7.887   8.477  0.1526 -0.0433 -0.3794
   10loPI   C4B  160   2.784   7.852   8.070 -0.2719 -0.1172  0.1678
   11loPI    C1  161   1.272  10.681  10.919  0.0517  0.1877  0.0881
   11loPI    C2  162   1.666  10.689  10.984  0.0665  0.1440  0.0047
   11loPI    C3  163   1.417  10.587  11.279  0.1317 -0.0284  0.0012
   11loPI   PO4  164   1.186  10.675  10.690 -0.2271 -0.1352 -0.2581
   11loPI   GL1  165   1.287  10.569  10.249 -0.2449  0.1306  0.0624
   11loPI   GL2  166   0.941  10.578  10.277 -0.0200  0.1311 -0.0125
   11loPI   C1A  167   1.178  10.750   9.763 -0.0206 -0.4301  0.0568
   11loPI   C2A  168   0.987  10.705   9.377  0.1401 -0.2446  0.0731
   11loPI   C3A  169   0.788  10.702   8.974 -0.1461  0.1054  0.0653
   11loPI   C4A  170   0.696  10.567   8.525 -0.0316 -0.0180 -0.2467
   11loPI   C5A  171   0.891  10.484   8.139  0.1844  0.4848 -0.0693
   11loPI   C6A  172   1.020  10.388   7.673 -0.0672  0.1414 -0.1923
   11loPI   C1B  173   0.746  10.496   9.894  0.0659  0.3981 -0.0873
   11loPI   C2B  174   0.594  10.442   9.496  0.3351  0.1382  0.1211
   11loPI   C3B  175   0.384  10.392   9.049  0.0533 -0.2342 -0.0238
   11loPI   C4B  176   0.215  10.471   8.700 -0.2027 -0.1816 -0.0520
   12loPI    C1  177  10.657   1.712  11.219  0.1022  0.2246  0.1465
   12loPI    C2  178  10.783   1.437  11.480  0.1191  0.0160 -0.0777
   12loPI    C3  179  10.392   1.474  11.401  0.1367 -0.1136 -0.2303
   12loPI   PO4  180  10.826   1.668  10.988  0.0616  0.2585 -0.0009
   12loPI   GL1  181  10.601   1.719  10.553  0.2350  0.2246 -0.3743
   12loPI   GL2  182  10.817   2.035  10.496  0.4397 -0.0700  0.0473
   12loPI   C1A  183  10.501   1.741  10.094  0.0353  0.1673  0.0261
   12loPI   C2A  184  10.607   1.689   9.726 -0.0075  0.1391  0.0207
   12loPI   C3A  185  10.771   1.793   9.383  0.1334  0.1421  0.2590
   12loPI   C4A  186  10.794   1.816   8.949  0.1393  0.1190 -0.1168
   12loPI   C5A  187  10.771   1.993   8.584 -0.0597  0.2276 -0.0459
   12loPI   C6A  188  11.006   2.175   8.297 -0.0280 -0.0483  0.0003
   12loPI   C1B  189  10.943   2.098  10.158  0.1728 -0.1007 -0.0381
   12loPI   C2B  190  11.049   2.057   9.701 -0.1188 -0.0325 -0.2488
   12loPI   C3B  191  11.206   2.030   9.199 -0.2921  0.0677 -0.0759
   12loPI   C4B  192  11.202   2.086   8.766 -0.1981 -0.1594 -0.3476
   13loPI    C1  193  16.876  10.250  10.665  0.0207 -0.1858 -0.0862
   13loPI    C2  194  16.738  10.525  10.921  0.0411 -0.0622 -0.2066
   13loPI    C3  195  16.796  10.149  11.043 -0.4728 -0.1371 -0.1710
   13loPI   PO4  196  17.040  10.357  10.528  0.1437 -0.0699 -0.0991
   13loPI   GL1  197  17.073  10.372  10.104 -0.1225  0.0470 -0.0542
   13loPI   GL2  198  16.745  10.345   9.988  0.0192 -0.0021 -0.0079
   13loPI   C1A  199  17.257  10.279   9.703  0.1233  0.2080 -0.2440
   13loPI   C2A  200  17.458  10.203   9.337 -0.1268  0.1351  0.2838
   13loPI   C3A  201  17.365  10.316   8.976 -0.0266  0.0282 -0.1722
   13loPI   C4A  202  17.337  10.257   8.609  0.1196  0.0836 -0.0997
   13loPI   C5A  203  17.436  10.194   8.139  0.2027  0.1296  0.0459
   13loPI   C6A  204  17.314   9.824   7.957 -0.2938  0.0469  0.1959
   13loPI   C1B  205  16.767  10.219   9.619 -0.0982 -0.0758 -0.0585
   13loPI   C2B  206  16.505  10.275   9.296 -0.0879 -0.1252 -0.1855
   13loPI   C3B  207  16.476  10.220   8.854  0.1025  0.0578  0.1144
   13loPI   C4B  208  16.463  10.326   8.393 -0.3115  0.1557 -0.0086
   14loPI    C1  209  14.261   8.089  10.462  0.0669 -0.3051  0.0587
   14loPI    C2  210  14.273   8.321  10.788  0.0407 -0.1964 -0.0171
   14loPI    C3  211  14.060   7.983  10.791 -0.1827 -0.0574 -0.0096
   14loPI   PO4  212  14.202   8.240  10.306  0.1355  0.0835 -0.2493
   14loPI   GL1  213  13.872   8.182   9.974 -0.1655 -0.4674 -0.1948
   14loPI   GL2  214  13.801   7.866   9.958 -0.0833  0.2023  0.1017
   14loPI   C1A  215  13.973   8.315   9.599  0.1259 -0.0575  0.1834
   14loPI   C2A  216  13.897   8.294   9.218 -0.2023 -0.1544 -0.2856
   14loPI   C3A  217  13.835   8.115   8.843  0.1739 -0.1528 -0.1545
   14loPI   C4A  218  13.527   8.117   8.719  0.2102 -0.2090 -0.0591
   14loPI   C5A  219  13.376   8.131   9.161 -0.1668 -0.0952 -0.1395
   14loPI   C6A  220  13.387   8.204   9.519  0.0567  0.1594 -0.3151
   14loPI   C1B  221  13.665   7.792   9.532 -0.0655  0.3044  0.1526
   14loPI   C2B  222  13.674   7.712   9.083  0.0446  0.4316 -0.0742
   14loPI   C3B  223  13.632   7.654   8.515 -0.0670  0.0163  0.4220
   14loPI   C4B  224  13.874   8.058   8.330  0.1665  0.0120 -0.0591
   15loPI    C1  225  10.685  13.299  10.961  0.0753  0.0584  0.1739
   15loPI    C2  226  10.468  13.521  11.213  0.0321  0.3322 -0.0987
   15loPI    C3  227  10.334  13.163  11.095 -0.0723  0.3184  0.0592
   15loPI   PO4  228  10.776  13.427  10.724 -0.0487 -0.0244  0.1332
   15loPI   GL1  229  10.652  13.363  10.388 -0.1583 -0.1066 -0.1588
   15loPI   GL2  230  10.494  13.616  10.185  0.0785  0.0231  0.3841
   15loPI   C1A  231  10.757  13.234   9.950 -0.0271 -0.0793  0.0900
   15loPI   C2A  232  10.812  13.188   9.470  0.1815  0.0449 -0.0355
   15loPI   C3A  233  10.838  13.124   9.024 -0.1305  0.3112 -0.3105
   15loPI   C4A  234  10.812  13.149   8.621 -0.0283 -0.2018 -0.0997
   15loPI   C5A  235  10.666  13.319   8.151  0.1744  0.0147 -0.3002
   15loPI   C6A  236  10.577  13.406   7.666 -0.0596  0.0158  0.1262
   15loPI   C1B  237  10.540  13.696   9.770  0.0202 -0.3948 -0.0435
   15loPI   C2B  238  10.577  13.607   9.396 -0.2112  0.1686 -0.3976
   15loPI   C3B  239  10.488  13.568   8.999  0.0012  0.1046 -0.1173
   15loPI   C4B  240  10.644  13.639   8.558  0.0411 -0.2544 -0.2699
   16loPI    C1  241  11.813   8.545  10.945  0.0376  0.4318 -0.0391
   16loPI    C2  242  12.213   8.544  10.931  0.0578 -0.1891  0.2394
   16loPI    C3  243  12.023   8.749  11.217  0.1815 -0.0396  0.2156
   16loPI   PO4  244  11.713   8.643  10.667 -0.1027 -0.2337  0.3697
   16loPI   GL1  245  11.830   8.844  10.361 -0.0566  0.3065 -0.0468
   16loPI   GL2  246  11.948   9.002  10.327 -0.1148  0.1125  0.0122
   16loPI   C1A  247  11.687   8.597   9.994 -0.0211 -0.2116 -0.0264
   16loPI   C2A  248  11.770   8.404   9.675 -0.0519 -0.0870  0.3017
   16loPI   C3A  249  11.838   8.274   9.252 -0.0813  0.1027  0.0026
   16loPI   C4A  250  11.677   8.294   8.838  0.0622  0.0214  0.2316
   16loPI   C5A  251  11.804   8.099   8.349  0.2369 -0.0587 -0.4059
   16loPI   C6A  252  12.001   7.943   7.958  0.2488 -0.0050 -0.1226
   16loPI   C1B  253  11.882   9.044   9.866 -0.0563 -0.0256 -0.0489
   16loPI   C2B  254  11.717   8.942   9.524 -0.0133  0.0107 -0.0722
   16loPI   C3B  255  11.571   8.694   9.183 -0.0243 -0.0932 -0.0254
   16loPI   C4B  256  11.412   8.666   8.732 -0.3414  0.2664 -0.0449
   17loPI    C1  257  12.766   8.334  10.617  0.0209 -0.1763 -0.0461
   17loPI    C2  258  12.943   8.561  10.895  0.0676  0.0046 -0.2209
   17loPI    C3  259  13.059   8.182  10.842  0.1683  0.0186 -0.1032
   17loPI   PO4  260  12.548   8.482  10.610 -0.0964 -0.2785  0.0628
   17loPI   GL1  261  12.347   8.720  10.399 -0.2413 -0.0350  0.2563
   17loPI   GL2  262  12.430   9.057  10.247 -0.2543  0.1706 -0.2300
   17loPI   C1A  263  12.254   8.654   9.997  0.1866  0.2907  0.0938
   17loPI   C2A  264  12.135   8.681   9.563 -0.0716  0.2185  0.0774
   17loPI   C3A  265  12.096   8.601   9.042  0.3146 -0.0706  0.0654
   17loPI   C4A  266  12.055   8.535   8.541  0.2702 -0.1133  0.2155
   17loPI   C5A  267  12.025   8.511   8.011 -0.3492  0.1774 -0.2298
   17loPI   C6A  268  11.705   8.480   7.750 -0.0487 -0.0733  0.1071
   17loPI   C1B  269  12.456   9.123   9.790  0.2265 -0.0678 -0.2038
   17loPI   C2B  270  12.347   9.127   9.315  0.2152 -0.0131  0.0322
   17loPI   C3B  271  11.920   9.118   9.135 -0.1526  0.1644 -0.1417
   17loPI   C4B  272  11.707   9.071   8.765  0.0690 -0.0456 -0.3436
   18loPI    C1  273   6.077   2.787  10.684  0.0980 -0.0291  0.1251
   18loPI    C2  274   5.874   3.065  10.481  0.0574 -0.0724  0.1063
   18loPI    C3  275   5.892   3.083  10.880  0.4572  0.2311  0.0801
   18loPI   PO4  276   5.977   2.563  10.568  0.2052 -0.0915  0.0031
   18loPI   GL1  277   5.588   2.460  10.265 -0.1278 -0.1644 -0.2215
   18loPI   GL2  278   5.676   2.755  10.135 -0.0612 -0.1824 -0.0267
   18loPI   C1A  279   5.782   2.235   9.952  0.2435 -0.0062  0.1082
   18loPI   C2A  280   5.734   2.206   9.503  0.2146  0.0817  0.1738
   18loPI   C3A  281   5.754   2.267   9.119  0.0612 -0.0333  0.1258
   18loPI   C4A  282   5.779   2.078   8.725 -0.0533 -0.2168 -0.0772
   18loPI   C5A  283   5.824   1.881   8.341  0.1338 -0.2571  0.0898
   18loPI   C6A  284   5.464   1.905   7.902  0.1741  0.0057 -0.0388
   18loPI   C1B  285   5.554   2.567   9.741 -0.1085 -0.0834 -0.0965
   18loPI   C2B  286   5.534   2.666   9.295 -0.1012 -0.2484  0.0037
   18loPI   C3B  287   5.545   2.972   8.883 -0.2001 -0.2132 -0.1166
   18loPI   C4B  288   5.575   3.072   8.440 -0.1265 -0.0235  0.1321
   19loPI    C1  289  11.793  12.599  10.769  0.2538  0.0797 -0.1606
   19loPI    C2  290  11.891  12.908  11.003  0.0083  0.0429 -0.0059
   19loPI    C3  291  11.562  12.694  11.081  0.1778 -0.2620 -0.1088
   19loPI   PO4  292  11.764  12.673  10.476 -0.4165 -0.0832  0.2514
   19loPI   GL1  293  12.011  12.709  10.039  0.1693  0.1932 -0.1338
   19loPI   GL2  294  12.102  12.886  10.117 -0.0622  0.1371 -0.0700
   19loPI   C1A  295  12.001  12.625   9.648  0.0039 -0.0112 -0.1768
   19loPI   C2A  296  12.104  12.743   9.209 -0.1183 -0.2052 -0.2308
   19loPI   C3A  297  12.174  12.645   8.825  0.0507  0.2401  0.0160
   19loPI   C4A  298  12.318  12.639   8.406 -0.0449 -0.1978  0.0198
   19loPI   C5A  299  12.587  12.973   8.235 -0.0360  0.0105 -0.4224
   19loPI   C6A  300  12.784  13.415   8.241  0.2039 -0.1045  0.1761
   19loPI   C1B  301  12.291  13.197   9.849  0.3010 -0.0147 -0.2710
   19loPI   C2B  302  12.309  13.260   9.453 -0.2069  0.2276 -0.0235
   19loPI   C3B  303  12.439  13.171   9.079  0.0889  0.0766 -0.0697
   19loPI   C4B  304  12.465  13.170   8.678  0.1522  0.0483 -0.2034
   20loPI    C1  305  16.545  15.921  11.205 -0.0647 -0.1511 -0.0294
   20loPI    C2  306  16.485  15.625  11.468  0.0613  0.0199  0.1955
   20loPI    C3  307  16.335  15.989  11.539 -0.1323  0.0018 -0.1024
   20loPI   PO4  308  16.484  15.849  10.992  0.0400 -0.0996 -0.1808
   20loPI   GL1  309  16.397  16.003  10.512  0.4048  0.1797 -0.4660
   20loPI   GL2  310  16.163  15.811  10.445 -0.0764 -0.2101 -0.1391
   20loPI   C1A  311  16.498  15.957  10.059 -0.0719 -0.0049  0.1012
   20loPI   C2A  312  16.515  15.994   9.609 -0.0522  0.0997  0.0188
   20loPI   C3A  313  16.449  15.928   9.182 -0.0803 -0.0176 -0.1022
   20loPI   C4A  314  16.326  15.949   8.833  0.0450 -0.0583  0.0992
   20loPI   C5A  315  16.035  15.838   8.510  0.2690  0.2130  0.0037
   20loPI   C6A  316  16.187  15.791   8.074  0.0694 -0.2484 -0.3264
   20loPI   C1B  317  16.052  15.707   9.953 -0.0010 -0.2485  0.0309
   20loPI   C2B  318  16.081  15.513   9.459  0.0010  0.3484  0.0127
   20loPI   C3B  319  16.050  15.494   9.056 -0.3956  0.1440 -0.1385
   20loPI   C4B  320  15.946  15.340   8.553  0.0356  0.0129  0.0562
   21loPI    C1  321  13.807  10.316  10.510  0.3395 -0.1722  0.0716
   21loPI    C2  322  13.834  10.417  10.896  0.0170  0.0211  0.0472
   21loPI    C3  323  14.147  10.470  10.653  0.2085 -0.0630  0.2711
   21loPI   PO4  324  13.608  10.370  10.405 -0.3011 -0.0707 -0.2481
   21loPI   GL1  325  13.419  10.123  10.006 -0.2087  0.0837  0.2362
   21loPI   GL2  326  13.840  10.193  10.007 -0.2379 -0.0876  0.1435
   21loPI   C1A  327  13.270  10.089   9.553 -0.0740 -0.1388 -0.0852
   21loPI   C2A  328  13.216  10.044   8.971 -0.1648 -0.0459 -0.1934
   21loPI   C3A  329  13.275   9.883   8.568  0.1520  0.1826 -0.2882
   21loPI   C4A  330  13.157   9.642   8.191  0.0424 -0.2313  0.1375
   21loPI   C5A  331  12.941   9.678   7.750  0.0785  0.2732  0.1059
   21loPI   C6A  332  12.894   9.856   7.460  0.1154 -0.1048  0.2641
   21loPI   C1B  333  13.805  10.069   9.581  0.0970  0.0772 -0.0132
   21loPI   C2B  334  13.726   9.914   9.167  0.1738 -0.1069  0.0409
   21loPI   C3B  335  13.561   9.611   8.866 -0.0761  0.0395 -0.1228
   21loPI   C4B  336  13.445   9.297   8.573  0.2979  0.1852  0.2659
   22loPI    C1  337   7.432   0.505  10.844 -0.3098  0.0782 -0.1782
   22loPI    C2  338   7.829   0.527  10.884 -0.3022  0.1714 -0.2989
   22loPI    C3  339   7.591   0.711  11.147 -0.2721 -0.1536 -0.0382
   22loPI   PO4  340   7.392   0.617  10.593 -0.2937  0.2564  0.0620
   22loPI   GL1  341   7.295   0.550  10.257  0.1013 -0.0694  0.0401
   22loPI   GL2  342   7.218   0.859  10.090  0.0677  0.1271  0.3750
   22loPI   C1A  343   7.399   0.275   9.940  0.0182 -0.0646 -0.1302
   22loPI   C2A  344   7.308   0.274   9.539 -0.1196  0.0160  0.0870
   22loPI   C3A  345   7.137   0.197   9.111 -0.0629 -0.4048 -0.1970
   22loPI   C4A  346   7.142   0.459   8.794  0.1684  0.1795 -0.2643
   22loPI   C5A  347   7.049   0.890   8.563 -0.2672  0.0370 -0.0299
   22loPI   C6A  348   6.734   1.068   8.336  0.4387 -0.1425  0.2275
   22loPI   C1B  349   7.270   0.852   9.535  0.2960 -0.1873 -0.3945
   22loPI   C2B  350   7.219   0.950   9.070 -0.0353 -0.0394  0.1704
   22loPI   C3B  351   7.093   1.275   8.921  0.1566  0.0518 -0.0047
   22loPI   C4B  352   6.836   1.436   8.595 -0.2070 -0.2194  0.1928
   23loPI    C1  353   8.186   5.308  10.957 -0.0914 -0.3731  0.0259
   23loPI    C2  354   8.367   5.455  11.282  0.0509 -0.0201 -0.2068
   23loPI    C3  355   7.998   5.304  11.310  0.0839 -0.0466  0.1270
   23loPI   PO4  356   8.433   5.423  10.745 -0.2465  0.1444 -0.0719
   23loPI   GL1  357   8.526   5.505  10.338  0.1092 -0.0785 -0.2532
   23loPI   GL2  358   8.751   5.790  10.159 -0.3351  0.1034  0.1168
   23loPI   C1A  359   8.524   5.435   9.921  0.2799  0.1654  0.0562
   23loPI   C2A  360   8.657   5.428   9.480 -0.3517 -0.1447  0.0162
   23loPI   C3A  361   8.661   5.458   9.004  0.0922 -0.1332  0.4872
   23loPI   C4A  362   8.660   5.409   8.584  0.2089  0.1483 -0.2393
   23loPI   C5A  363   8.566   5.358   8.221 -0.0521  0.1599 -0.0704
   23loPI   C6A  364   8.318   5.237   7.876 -0.0769  0.1047  0.2640
   23loPI   C1B  365   8.758   5.916   9.675  0.3044 -0.0705 -0.2847
   23loPI   C2B  366   8.880   5.871   9.251  0.5842  0.2582 -0.1465
   23loPI   C3B  367   9.054   5.750   8.810  0.1752 -0.1838  0.0730
   23loPI   C4B  368   9.052   5.745   8.334  0.1678  0.2079 -0.0419
   24loPI    C1  369  14.103   1.776  10.495  0.0788 -0.0413 -0.1976
   24loPI    C2  370  13.824   1.516  10.376 -0.0831  0.0210  0.0388
   24loPI    C3  371  14.013   1.461  10.724 -0.0845  0.1932  0.0676
   24loPI   PO4  372  13.988   2.068  10.430 -0.0711  0.0446 -0.2309
   24loPI   GL1  373  13.837   2.204  10.025  0.0290 -0.0495 -0.0974
   24loPI   GL2  374  13.954   1.881  10.006  0.1865  0.2567  0.0567
   24loPI   C1A  375  13.853   2.352   9.618  0.0684  0.0235 -0.1650
   24loPI   C2A  376  13.726   2.329   9.241  0.1322  0.1174  0.0163
   24loPI   C3A  377  13.769   2.263   8.947 -0.1050 -0.1806  0.4576
   24loPI   C4A  378  13.908   2.332   8.619  0.1789 -0.3376 -0.1450
   24loPI   C5A  379  13.877   2.421   8.243  0.1153 -0.2559 -0.0927
   24loPI   C6A  380  13.939   2.568   7.881 -0.0401  0.0124  0.0746
   24loPI   C1B  381  13.801   1.854   9.542  0.1618  0.2855  0.0508
   24loPI   C2B  382  13.862   1.825   9.205  0.0506 -0.1084  0.0986
   24loPI   C3B  383  13.882   1.839   8.779  0.1138 -0.0779 -0.3745
   24loPI   C4B  384  13.788   1.816   8.305 -0.1376  0.2538 -0.0966
   25loPI    C1  385   8.159  12.577  10.950  0.1976  0.1426  0.0679
   25loPI    C2  386   7.928  12.697  11.254 -0.0303 -0.2275  0.0478
   25loPI    C3  387   8.327  12.712  11.286 -0.0532 -0.1656  0.3234
   25loPI   PO4  388   8.100  12.760  10.701  0.0321  0.1474 -0.1375
   25loPI   GL1  389   7.969  13.133  10.505  0.0138  0.1586 -0.0089
   25loPI   GL2  390   8.137  13.010  10.240  0.4163 -0.3219  0.2836
   25loPI   C1A  391   7.851  13.427  10.192 -0.1038  0.0855 -0.1361
   25loPI   C2A  392   7.856  13.386   9.720  0.4004 -0.1122  0.0743
   25loPI   C3A  393   7.914  13.511   9.378  0.1022  0.0198  0.3932
   25loPI   C4A  394   7.730  13.683   8.967 -0.1038 -0.0233 -0.0064
   25loPI   C5A  395   7.702  13.969   8.614  0.2777  0.1116 -0.2271
   25loPI   C6A  396   7.707  14.070   8.212  0.0725  0.1554  0.1135
   25loPI   C1B  397   8.132  12.956   9.816 -0.0688  0.0933  0.1702
   25loPI   C2B  398   8.203  12.934   9.459 -0.0101 -0.2569 -0.4297
   25loPI   C3B  399   8.107  13.031   9.144 -0.1890 -0.2008  0.3196
   25loPI   C4B  400   7.986  13.280   8.763 -0.2290 -0.4435 -0.1105
   26loPI    C1  401   4.186   6.658  10.702 -0.1743  0.1668  0.1029
   26loPI    C2  402   4.223   6.852  11.049 -0.2361  0.0550  0.1731
   26loPI    C3  403   4.258   6.454  11.039  0.2483  0.0948 -0.0244
   26loPI   PO4  404   4.351   6.795  10.554  0.1887 -0.0893 -0.1647
   26loPI   GL1  405   4.583   6.606  10.269  0.1999  0.0228  0.0732
   26loPI   GL2  406   4.870   6.685  10.246  0.4319 -0.0468  0.1093
   26loPI   C1A  407   4.668   6.702   9.804 -0.1735 -0.1927  0.2017
   26loPI   C2A  408   4.542   6.707   9.420  0.1506 -0.0390 -0.0246
   26loPI   C3A  409   4.670   6.653   9.077 -0.0225  0.0128 -0.2146
   26loPI   C4A  410   4.776   6.780   8.640 -0.1399  0.0785  0.0463
   26loPI   C5A  411   4.878   6.630   8.271  0.1669 -0.1946 -0.0420
   26loPI   C6A  412   5.273   6.572   8.082 -0.1236  0.1040 -0.2658
   26loPI   C1B  413   5.151   6.788   9.874 -0.2271  0.0398  0.0004
   26loPI   C2B  414   5.187   6.705   9.404 -0.1690  0.1459 -0.0741
   26loPI   C3B  415   5.230   6.668   8.957 -0.0852  0.0885  0.1522
   26loPI   C4B  416   5.348   6.666   8.550  0.2946 -0.0456  0.1084
   27loPI    C1  417   4.890  12.946  10.841 -0.1281  0.1070 -0.1362
   27loPI    C2  418   5.122  13.063  11.145  0.1011  0.0278 -0.2777
   27loPI    C3  419   4.909  12.726  11.175  0.4164 -0.1813 -0.3448
   27loPI   PO4  420   4.941  13.112  10.696 -0.0548 -0.0157 -0.1553
   27loPI   GL1  421   5.210  13.369  10.415  0.1733 -0.0492  0.1334
   27loPI   GL2  422   5.434  13.322  10.187 -0.5031 -0.2516 -0.0957
   27loPI   C1A  423   4.971  13.433   9.985 -0.1577 -0.2540  0.1406
   27loPI   C2A  424   4.960  13.335   9.561  0.2269 -0.4378 -0.1251
   27loPI   C3A  425   4.892  13.494   9.077  0.0537  0.2049 -0.2366
   27loPI   C4A  426   4.744  13.568   8.670 -0.0141  0.1423 -0.1695
   27loPI   C5A  427   4.749  13.386   8.252 -0.2175 -0.1032  0.0229
   27loPI   C6A  428   4.382  13.186   8.270  0.1859 -0.1978 -0.0670
   27loPI   C1B  429   5.423  13.194   9.710  0.0600 -0.1660  0.1800
   27loPI   C2B  430   5.295  13.185   9.261 -0.0249  0.0299 -0.0335
   27loPI   C3B  431   5.303  13.257   8.915 -0.1097  0.0126  0.1899
   27loPI   C4B  432   5.107  13.204   8.521 -0.1084  0.1897 -0.1149
   28loPI    C1  433  15.051  10.295  10.515  0.1008  0.0191 -0.0144
   28loPI    C2  434  14.962   9.939  10.675  0.0355 -0.0079 -0.1101
   28loPI    C3  435  15.123  10.226  10.903  0.0049 -0.0682 -0.0117
   28loPI   PO4  436  15.278  10.278  10.398  0.2509  0.1270  0.0945
   28loPI   GL1  437  15.518  10.268   9.962  0.3121  0.1597  0.0824
   28loPI   GL2  438  15.205  10.124   9.905  0.0808 -0.2002 -0.1889
   28loPI   C1A  439  15.492  10.374   9.512  0.0309  0.0999 -0.0085
   28loPI   C2A  440  15.376  10.261   9.084 -0.1115 -0.2676  0.3710
   28loPI   C3A  441  15.557  10.097   8.646 -0.2791 -0.0187  0.1720
   28loPI   C4A  442  15.987  10.125   8.503  0.1651 -0.3652 -0.2086
   28loPI   C5A  443  16.124  10.157   8.058  0.1999 -0.0468 -0.2465
   28loPI   C6A  444  16.084  10.220   7.637  0.1440  0.0440 -0.0176
   28loPI   C1B  445  15.132  10.023   9.448  0.1184  0.0201  0.1544
   28loPI   C2B  446  14.795   9.750   9.359  0.2124 -0.0176  0.1047
   28loPI   C3B  447  14.604   9.667   8.890  0.3142 -0.0340 -0.2375
   28loPI   C4B  448  14.466   9.286   8.671  0.1323  0.2100 -0.3157
   29loPI    C1  449   5.034   0.076  10.746 -0.0467 -0.1720  0.1589
   29loPI    C2  450   4.753   0.018  10.467 -0.1656  0.0207  0.2369
   29loPI    C3  451   4.787  -0.238  10.772 -0.0337 -0.1922  0.0463
   29loPI   PO4  452   5.201   0.172  10.597 -0.3085 -0.0387 -0.0732
   29loPI   GL1  453   4.986   0.498  10.189  0.0939 -0.0858  0.1930
   29loPI   GL2  454   4.904   0.852  10.207 -0.3221  0.1392 -0.0413
   29loPI   C1A  455   5.049   0.182   9.877  0.3089  0.0084  0.0086
   29loPI   C2A  456   5.126   0.388   9.604 -0.0925  0.0138  0.2502
   29loPI   C3A  457   5.044   0.700   9.323 -0.2505 -0.2920  0.0512
   29loPI   C4A  458   4.905   0.776   8.899  0.2929 -0.1904 -0.3385
   29loPI   C5A  459   4.655   0.561   8.641 -0.3087  0.2407  0.0964
   29loPI   C6A  460   4.198   0.546   8.562  0.2777  0.0460 -0.0411
   29loPI   C1B  461   5.260   0.779   9.906  0.0564 -0.0147  0.0737
   29loPI   C2B  462   5.488   0.773   9.517 -0.1096  0.3050  0.0901
   29loPI   C3B  463   5.456   0.849   9.028 -0.0269  0.2816 -0.1040
   29loPI   C4B  464   5.290   0.508   8.780  0.1191 -0.1664  0.2872
   30loPI    C1  465  17.734   0.526  10.890  0.1000 -0.2049 -0.0286
   30loPI    C2  466  18.083   0.604  11.069 -0.0011 -0.1870  0.1632
   30loPI    C3  467  17.825   0.349  11.236 -0.1865 -0.0101  0.1506
   30loPI   PO4  468  17.847   0.402  10.646  0.2321 -0.1882  0.0105
   30loPI   GL1  469  18.056   0.400  10.208  0.0605  0.1160 -0.3483
   30loPI   GL2  470  18.188   0.677  10.110  0.1236 -0.2827 -0.0005
   30loPI   C1A  471  17.802   0.344   9.870  0.2108  0.1318  0.1100
   30loPI   C2A  472  17.818   0.342   9.469 -0.0628 -0.1868  0.0514
   30loPI   C3A  473  17.839   0.421   9.001  0.2147 -0.1530 -0.0245
   30loPI   C4A  474  17.867   0.474   8.480 -0.0837 -0.4752 -0.0758
   30loPI   C5A  475  17.774   0.764   8.256 -0.1172 -0.2522 -0.1106
   30loPI   C6A  476  17.755   1.137   8.033 -0.0147  0.0788  0.3067
   30loPI   C1B  477  18.200   0.658   9.641  0.1993 -0.2239 -0.0864
   30loPI   C2B  478  18.181   0.743   9.224  0.1906 -0.0442  0.0902
   30loPI   C3B  479  18.175   0.770   8.770 -0.0204 -0.1758  0.0606
   30loPI   C4B  480  18.297   0.822   8.321 -0.0962 -0.1755 -0.4781
   31loPI    C1  481  14.251  17.329  11.072  0.2280 -0.0496  0.0150
   31loPI    C2  482  14.529  17.111  11.258  0.1892  0.0716  0.2178
   31loPI    C3  483  14.239  17.288  11.469 -0.0936 -0.1244  0.0004
   31loPI   PO4  484  14.203  17.162  10.827  0.2450 -0.2167 -0.3478
   31loPI   GL1  485  14.306  17.321  10.511  0.1578  0.2691  0.1726
   31loPI   GL2  486  14.421  17.585  10.546 -0.1242 -0.0676 -0.1469
   31loPI   C1A  487  14.232  17.170  10.123 -0.1797 -0.4394 -0.4429
   31loPI   C2A  488  14.314  17.224   9.667  0.0070  0.3106 -0.0557
   31loPI   C3A  489  14.264  17.170   9.259  0.0109 -0.0459  0.0838
   31loPI   C4A  490  14.293  17.225   8.800 -0.5087 -0.0928 -0.0995
   31loPI   C5A  491  14.446  17.073   8.434 -0.2915 -0.0415 -0.0600
   31loPI   C6A  492  14.500  17.312   7.977  0.2604  0.2324 -0.1363
   31loPI   C1B  493  14.521  17.549  10.097  0.0735 -0.0360  0.2148
   31loPI   C2B  494  14.749  17.502   9.586  0.0315 -0.3817  0.0241
   31loPI   C3B  495  14.673  17.503   9.122 -0.4153  0.0156 -0.0183
   31loPI   C4B  496  14.850  17.431   8.689 -0.0103 -0.1436 -0.0927
   32loPI    C1  497  17.972   6.909  10.984  0.1154 -0.1944 -0.0639
   32loPI    C2  498  18.218   6.693  11.215  0.1167 -0.0118  0.1084
   32loPI    C3  499  18.295   7.080  11.147  0.1460 -0.0757 -0.2453
   32loPI   PO4  500  17.997   6.848  10.756  0.1690 -0.0651 -0.0081
   32loPI   GL1  501  17.807   6.932  10.397  0.0178  0.1162 -0.0546
   32loPI   GL2  502  17.574   7.147  10.208  0.0602  0.1777 -0.0325
   32loPI   C1A  503  17.966   6.823   9.916  0.0836  0.1692  0.1200
   32loPI   C2A  504  18.187   6.899   9.550  0.1344 -0.1215  0.1515
   32loPI   C3A  505  18.170   6.879   9.153  0.0584  0.0394  0.0327
   32loPI   C4A  506  18.142   6.873   8.675 -0.2645 -0.2038 -0.1933
   32loPI   C5A  507  18.215   6.928   8.232  0.1329 -0.0855  0.2062
   32loPI   C6A  508  18.106   7.235   7.974 -0.0009  0.0697  0.3649
   32loPI   C1B  509  17.611   7.141   9.708 -0.1115 -0.1048 -0.1803
   32loPI   C2B  510  17.821   7.170   9.298  0.0917 -0.0941 -0.0687
   32loPI   C3B  511  17.916   7.280   8.824 -0.1135  0.0827  0.1546
   32loPI   C4B  512  17.879   7.266   8.450 -0.0432 -0.0813  0.2339
   33loPI    C1  513  12.479   5.816  10.453 -0.1057  0.0298  0.1823
   33loPI    C2  514  12.853   5.676  10.437 -0.1295 -0.0182  0.0300
   33loPI    C3  515  12.544   5.430  10.374 -0.1774  0.0688 -0.0805
   33loPI   PO4  516  12.406   6.035  10.319 -0.0541 -0.0491  0.1551
   33loPI   GL1  517  12.293   6.138   9.964 -0.1263 -0.2442  0.4651
   33loPI   GL2  518  12.534   6.398   9.969 -0.0109 -0.1289 -0.3624
   33loPI   C1A  519  12.051   5.914   9.702  0.0124  0.0511 -0.1232
   33loPI   C2A  520  11.950   6.083   9.263 -0.3097 -0.1102 -0.1935
   33loPI   C3A  521  11.728   6.407   8.954  0.2907  0.0853  0.1446
   33loPI   C4A  522  11.418   6.541   8.750  0.0223  0.2028  0.5204
   33loPI   C5A  523  11.314   6.360   8.326 -0.1388 -0.0709 -0.0276
   33loPI   C6A  524  11.469   6.250   8.019  0.0753  0.0138 -0.2568
   33loPI   C1B  525  12.387   6.405   9.503 -0.0083 -0.1904  0.0583
   33loPI   C2B  526  12.309   6.384   9.104 -0.1104  0.1670 -0.0123
   33loPI   C3B  527  12.147   6.431   8.695 -0.4593  0.0402  0.5244
   33loPI   C4B  528  11.786   6.342   8.488  0.1346  0.0254  0.1893
   34loPI    C1  529   6.679  17.772  10.829  0.2326 -0.0855 -0.0710
   34loPI    C2  530   6.447  17.912  10.535  0.2729  0.1589  0.0115
   34loPI    C3  531   6.325  17.937  10.915  0.3384  0.0883  0.0375
   34loPI   PO4  532   6.789  17.570  10.700 -0.1000 -0.3577 -0.0263
   34loPI   GL1  533   6.594  17.468  10.446 -0.0605  0.0046 -0.0587
   34loPI   GL2  534   6.797  17.246  10.333 -0.1262 -0.1136  0.1177
   34loPI   C1A  535   6.486  17.592  10.092  0.3509  0.0782  0.1058
   34loPI   C2A  536   6.420  17.578   9.642 -0.0111  0.0905  0.2084
   34loPI   C3A  537   6.460  17.535   9.249 -0.1624  0.0939  0.2425
   34loPI   C4A  538   6.459  17.500   8.884 -0.2358  0.0663 -0.1350
   34loPI   C5A  539   6.391  17.337   8.483  0.1963  0.1370 -0.1030
   34loPI   C6A  540   5.917  17.312   8.249 -0.3144 -0.2276 -0.0975
   34loPI   C1B  541   6.850  17.284   9.900 -0.0598 -0.3115  0.1319
   34loPI   C2B  542   6.890  17.386   9.487 -0.3241 -0.0346 -0.1696
   34loPI   C3B  543   6.932  17.336   9.120 -0.0179  0.0124  0.1533
   34loPI   C4B  544   6.940  17.472   8.767 -0.3313  0.1293 -0.1487
   35loPI    C1  545   4.314   5.557  10.874  0.1463 -0.2859  0.1932
   35loPI    C2  546   4.411   5.887  11.079 -0.0337  0.0299 -0.2153
   35loPI    C3  547   4.259   5.570  11.270 -0.1178  0.2833  0.1482
   35loPI   PO4  548   4.215   5.699  10.623  0.1312  0.0160  0.1308
   35loPI   GL1  549   4.364   5.550  10.215 -0.0886 -0.1901 -0.1982
   35loPI   GL2  550   4.727   5.389  10.202 -0.0306  0.0056  0.2627
   35loPI   C1A  551   4.381   5.379   9.762 -0.1455 -0.1995  0.0578
   35loPI   C2A  552   4.442   5.388   9.301 -0.1485  0.2302 -0.0859
   35loPI   C3A  553   4.596   5.110   8.919  0.0125 -0.2701 -0.1285
   35loPI   C4A  554   4.841   5.114   8.467  0.0074 -0.1903  0.2045
   35loPI   C5A  555   4.781   5.150   8.001  0.0844 -0.0923  0.2575
   35loPI   C6A  556   4.400   5.174   7.829  0.1560  0.0546  0.0881
   35loPI   C1B  557   4.946   5.353   9.750  0.1343  0.1274 -0.0033
   35loPI   C2B  558   5.008   5.320   9.301 -0.0056 -0.4116  0.0832
   35loPI   C3B  559   5.089   5.341   8.885  0.1064 -0.2136 -0.3670
   35loPI   C4B  560   5.250   5.368   8.470 -0.2815  0.2240  0.0600
   36loPI    C1  561   7.608  10.878  10.863  0.0490  0.0469 -0.1193
   36loPI    C2  562   7.697  11.110  11.176 -0.1082 -0.0880  0.0277
   36loPI    C3  563   7.623  10.721  11.231  0.0184 -0.1458 -0.1990
   36loPI   PO4  564   7.628  10.913  10.580 -0.1106  0.0415  0.0117
   36loPI   GL1  565   7.446  10.718  10.288  0.2061 -0.2075  0.0733
   36loPI   GL2  566   7.519  11.127  10.154  0.2211  0.1083 -0.1436
   36loPI   C1A  567   7.674  10.531  10.013  0.1043  0.4639  0.0257
   36loPI   C2A  568   7.688  10.337   9.681 -0.1108  0.2537  0.1135
   36loPI   C3A  569   7.801  10.266   9.339  0.0193  0.1254 -0.1623
   36loPI   C4A  570   7.811  10.300   8.935 -0.1409  0.1503 -0.1242
   36loPI   C5A  571   7.709  10.387   8.485  0.1313  0.1051 -0.2177
   36loPI   C6A  572   7.635  10.655   8.101  0.0678 -0.0254  0.1345
   36loPI   C1B  573   7.444  11.179   9.730 -0.1489 -0.0851 -0.0534
   36loPI   C2B  574   7.648  11.256   9.336 -0.0262  0.4146  0.3767
   36loPI   C3B  575   7.803  11.178   8.923 -0.1055  0.2156  0.0009
   36loPI   C4B  576   7.679  11.048   8.451  0.0640 -0.0338  0.2726
   37loPI    C1  577   7.837   4.622  10.643 -0.0471  0.1998  0.0220
   37loPI    C2  578   7.929   4.913  10.901  0.0057  0.0617  0.1601
   37loPI    C3  579   8.088   4.548  10.945  0.0251  0.0402 -0.0752
   37loPI   PO4  580   7.837   4.773  10.359 -0.2572  0.2087  0.1396
   37loPI   GL1  581   7.593   4.921  10.076 -0.0417 -0.0593  0.0932
   37loPI   GL2  582   7.380   4.847   9.854 -0.2468  0.0345 -0.0431
   37loPI   C1A  583   7.863   5.065   9.666 -0.0390  0.1343 -0.0129
   37loPI   C2A  584   7.868   5.175   9.217  0.2143 -0.1446 -0.0441
   37loPI   C3A  585   7.871   4.847   8.951  0.2073 -0.1596 -0.0163
   37loPI   C4A  586   7.881   4.624   8.514  0.2019  0.2019 -0.2224
   37loPI   C5A  587   8.190   4.272   8.318 -0.1224 -0.1601  0.0778
   37loPI   C6A  588   8.650   4.392   8.250 -0.1925  0.0095  0.4021
   37loPI   C1B  589   7.431   5.034   9.435  0.2197  0.0889  0.1364
   37loPI   C2B  590   7.394   5.123   9.100  0.2693 -0.2025 -0.0599
   37loPI   C3B  591   7.444   4.940   8.559  0.0000 -0.2390 -0.3874
   37loPI   C4B  592   7.522   4.817   8.183 -0.1492 -0.0722  0.1365
   38loPI    C1  593  14.897  17.787  11.161 -0.0513 -0.0690  0.0522
   38loPI    C2  594  14.767  17.503  11.411  0.2216 -0.2880 -0.0497
   38loPI    C3  595  15.153  17.606  11.410  0.1066  0.1654  0.0634
   38loPI   PO4  596  14.830  17.721  10.917  0.1805  0.2929  0.0611
   38loPI   GL1  597  14.906  17.552  10.470  0.3135  0.2241 -0.2046
   38loPI   GL2  598  14.806  17.240  10.300 -0.2039 -0.1173  0.0618
   38loPI   C1A  599  15.109  17.689  10.153  0.0975  0.3519  0.0868
   38loPI   C2A  600  15.138  17.797   9.774 -0.2161 -0.0123 -0.1579
   38loPI   C3A  601  15.256  17.790   9.390 -0.0788 -0.0095  0.1043
   38loPI   C4A  602  15.067  17.809   8.993 -0.0392  0.0953 -0.2442
   38loPI   C5A  603  15.126  17.930   8.561  0.1222 -0.1186  0.0152
   38loPI   C6A  604  15.224  17.851   8.121  0.2027  0.3644 -0.2210
   38loPI   C1B  605  14.794  17.091   9.868 -0.1376  0.2977 -0.0999
   38loPI   C2B  606  14.742  17.038   9.395 -0.0138 -0.1022  0.2213
   38loPI   C3B  607  14.699  16.982   8.959 -0.2285 -0.1000  0.0108
   38loPI   C4B  608  14.841  16.725   8.583  0.2751 -0.5377 -0.0586
   39loPI    C1  609  17.705   1.324  10.935  0.0778  0.2041  0.2542
   39loPI    C2  610  17.765   0.958  11.086  0.3698  0.1462  0.0081
   39loPI    C3  611  17.742   1.274  11.331 -0.0599 -0.0530  0.2366
   39loPI   PO4  612  17.949   1.418  10.683  0.0888  0.4992 -0.0716
   39loPI   GL1  613  17.811   1.563  10.225  0.0147 -0.2384 -0.2974
   39loPI   GL2  614  17.501   1.443  10.014  0.0386 -0.1655 -0.1693
   39loPI   C1A  615  17.906   1.742   9.806 -0.3361  0.0498 -0.4452
   39loPI   C2A  616  17.863   1.717   9.408 -0.2133  0.1424  0.1165
   39loPI   C3A  617  17.909   1.822   8.975  0.3481  0.0592 -0.2470
   39loPI   C4A  618  17.834   2.241   8.941  0.0507 -0.2082  0.1640
   39loPI   C5A  619  17.872   2.556   8.596  0.0061  0.2326 -0.0011
   39loPI   C6A  620  17.883   2.694   8.191 -0.0216  0.1164  0.0659
   39loPI   C1B  621  17.580   1.288   9.650  0.3834  0.0806  0.0674
   39loPI   C2B  622  17.475   1.384   9.209  0.0473 -0.0789  0.1834
   39loPI   C3B  623  17.599   1.480   8.859  0.0945  0.0901  0.1264
   39loPI   C4B  624  17.799   1.428   8.418  0.1235  0.1422  0.1894
   40loPI    C1  625   6.067   9.755  10.716  0.2649  0.0549 -0.0328
   40loPI    C2  626   5.927  10.069  10.920 -0.1009 -0.1215 -0.0047
   40loPI    C3  627   5.975   9.717  11.104  0.1234 -0.1337 -0.0837
   40loPI   PO4  628   5.970   9.812  10.451  0.0092 -0.1642 -0.1730
   40loPI   GL1  629   5.957   9.555  10.109 -0.0511  0.1524  0.2814
   40loPI   GL2  630   5.655   9.580  10.077 -0.1756 -0.1662 -0.1157
   40loPI   C1A  631   6.150   9.488   9.737 -0.1910  0.1196  0.3096
   40loPI   C2A  632   6.235   9.458   9.339  0.1157  0.1557 -0.0020
   40loPI   C3A  633   6.108   9.383   8.989  0.2322 -0.0057 -0.2724
   40loPI   C4A  634   6.375   9.416   8.631  0.1355 -0.2632 -0.1867
   40loPI   C5A  635   6.623   9.316   8.228  0.1770 -0.0860  0.1268
   40loPI   C6A  636   6.850   9.179   7.839  0.0032  0.1785  0.0262
   40loPI   C1B  637   5.551   9.476   9.700 -0.0143 -0.0793  0.0878
   40loPI   C2B  638   5.617   9.394   9.188 -0.0424 -0.4121 -0.4250
   40loPI   C3B  639   5.640   9.455   8.685  0.1055 -0.0746 -0.2498
   40loPI   C4B  640   5.666   9.263   8.267  0.0325  0.1105 -0.0291
   41loPI    C1  641  13.540  12.915  10.816 -0.0437  0.2731  0.0721
   41loPI    C2  642  13.267  12.962  11.105 -0.1161 -0.0006  0.0521
   41loPI    C3  643  13.629  12.816  11.193 -0.2035 -0.2673 -0.0219
   41loPI   PO4  644  13.399  12.867  10.611  0.1672  0.0039 -0.1790
   41loPI   GL1  645  13.519  12.556  10.261  0.0052  0.1569 -0.0910
   41loPI   GL2  646  13.862  12.331  10.101  0.1829 -0.3815 -0.0240
   41loPI   C1A  647  13.669  12.781   9.859 -0.3051 -0.1577 -0.0616
   41loPI   C2A  648  13.763  12.690   9.483  0.1215  0.3899  0.3465
   41loPI   C3A  649  13.829  12.747   8.963  0.0813 -0.0609 -0.0895
   41loPI   C4A  650  14.021  12.859   8.610  0.1898  0.0960  0.2270
   41loPI   C5A  651  13.756  12.937   8.215 -0.1513  0.3271 -0.2316
   41loPI   C6A  652  13.373  12.679   8.133 -0.1844 -0.3360  0.0350
   41loPI   C1B  653  13.572  12.292   9.782  0.0086  0.1729  0.2081
   41loPI   C2B  654  13.417  12.287   9.427 -0.0936  0.0862 -0.1399
   41loPI   C3B  655  13.462  12.272   8.984  0.2879  0.2816  0.0434
   41loPI   C4B  656  13.643  12.481   8.593 -0.3435  0.0981  0.0104
   42loPI    C1  657   2.964   4.223  10.604 -0.0187 -0.0855 -0.0157
   42loPI    C2  658   2.764   4.049  10.904 -0.0973  0.0025 -0.0168
   42loPI    C3  659   2.757   4.447  10.863 -0.0638 -0.0071 -0.1188
   42loPI   PO4  660   2.946   4.100  10.415  0.0724 -0.0573 -0.2665
   42loPI   GL1  661   2.934   4.187   9.946 -0.0446  0.0935  0.1663
   42loPI   GL2  662   2.695   3.899  10.051 -0.0365 -0.3967 -0.0397
   42loPI   C1A  663   3.211   3.884   9.612  0.1426  0.0632 -0.0526
   42loPI   C2A  664   3.283   3.904   9.172 -0.1812  0.0376 -0.2301
   42loPI   C3A  665   3.279   3.962   8.780 -0.0355 -0.1437  0.3353
   42loPI   C4A  666   3.134   4.180   8.440  0.0630 -0.1207  0.2496
   42loPI   C5A  667   2.897   4.436   8.168 -0.0309  0.0285  0.0255
   42loPI   C6A  668   2.622   4.319   7.799  0.2818  0.0104 -0.2370
   42loPI   C1B  669   2.724   3.800   9.569  0.0159  0.0612  0.0721
   42loPI   C2B  670   2.834   3.747   9.089 -0.0529  0.2395 -0.0115
   42loPI   C3B  671   2.778   3.711   8.652 -0.1294  0.0770 -0.3331
   42loPI   C4B  672   2.696   4.015   8.371 -0.0450  0.3517  0.0987
   43loPI    C1  673  14.098   9.410  10.568  0.0738  0.0718  0.0298
   43loPI    C2  674  14.403   9.175  10.459  0.1111  0.0302  0.2205
   43loPI    C3  675  14.318   9.226  10.846 -0.3667 -0.2707  0.1644
   43loPI   PO4  676  13.955   9.464  10.359  0.0385  0.1049  0.1814
   43loPI   GL1  677  14.004   9.495   9.878 -0.0427 -0.1932 -0.1675
   43loPI   GL2  678  13.665   9.715   9.941  0.1942  0.0606 -0.0817
   43loPI   C1A  679  13.949   9.232   9.482  0.0763  0.0984 -0.3024
   43loPI   C2A  680  13.777   9.110   9.179 -0.3456 -0.0162 -0.0815
   43loPI   C3A  681  13.990   9.060   8.772 -0.0975 -0.4279 -0.1441
   43loPI   C4A  682  14.135   9.120   8.354 -0.2590 -0.0060 -0.2319
   43loPI   C5A  683  14.231   9.319   7.967  0.0844  0.0796  0.1958
   43loPI   C6A  684  14.527   9.474   7.753  0.2536  0.0051 -0.1982
   43loPI   C1B  685  13.423   9.613   9.527 -0.1901 -0.0131  0.5458
   43loPI   C2B  686  13.097   9.595   9.331 -0.3830 -0.1115  0.3165
   43loPI   C3B  687  12.970   9.572   8.989  0.0980  0.0342 -0.1464
   43loPI   C4B  688  12.917   9.442   8.564 -0.4923 -0.0671 -0.1186
   44loPI    C1  689   1.874   1.644  10.981  0.1154  0.1690 -0.1161
   44loPI    C2  690   1.532   1.819  11.091 -0.0585 -0.0435 -0.3067
   44loPI    C3  691   1.874   1.914  11.276 -0.2014  0.2485 -0.1850
   44loPI   PO4  692   1.787   1.621  10.642 -0.1000 -0.1222  0.1106
   44loPI   GL1  693   1.964   1.489  10.172 -0.2147 -0.3327  0.0243
   44loPI   GL2  694   2.222   1.541   9.884  0.0678  0.0909  0.0300
   44loPI   C1A  695   1.766   1.312   9.822  0.2989  0.0826 -0.1030
   44loPI   C2A  696   1.632   1.275   9.423  0.1202 -0.1112 -0.1899
   44loPI   C3A  697   1.478   1.153   9.071  0.0257 -0.3285  0.1655
   44loPI   C4A  698   1.117   1.233   8.875 -0.0673  0.3301 -0.0761
   44loPI   C5A  699   1.044   1.445   8.445 -0.1462 -0.2454  0.0682
   44loPI   C6A  700   0.858   1.545   7.966  0.0072  0.4724  0.0187
   44loPI   C1B  701   2.057   1.476   9.455 -0.0729  0.0228 -0.0794
   44loPI   C2B  702   2.002   1.398   9.065  0.0926 -0.0287 -0.0441
   44loPI   C3B  703   2.084   1.415   8.543 -0.0337  0.3307  0.2595
   44loPI   C4B  704   2.033   1.472   8.161 -0.0158 -0.2950  0.2098
   45loPI    C1  705  14.303   6.747  10.541  0.0458  0.1321  0.1173
   45loPI    C2  706  14.352   6.935  10.890  0.2792 -0.1654  0.2491
   45loPI    C3  707  14.176   6.576  10.879  0.1097 -0.0782  0.0369
   45loPI   PO4  708  14.541   6.736  10.353 -0.0604 -0.1430 -0.0215
   45loPI   GL1  709  14.721   6.618  10.056  0.1771 -0.0534 -0.1275
   45loPI   GL2  710  15.073   6.646   9.891 -0.0708  0.0150  0.1887
   45loPI   C1A  711  14.648   6.580   9.628 -0.0733 -0.0007 -0.1618
   45loPI   C2A  712  14.641   6.534   9.282  0.0171  0.1552  0.3227
   45loPI   C3A  713  14.820   6.329   8.841 -0.0734 -0.0498  0.1226
   45loPI   C4A  714  15.037   6.583   8.484  0.1275 -0.0193  0.2266
   45loPI   C5A  715  15.068   6.897   8.198  0.0181  0.1846 -0.0698
   45loPI   C6A  716  15.126   7.149   7.886  0.0098 -0.0148 -0.0644
   45loPI   C1B  717  15.196   6.662   9.474 -0.0092  0.0109  0.0438
   45loPI   C2B  718  15.283   6.651   9.050 -0.0693 -0.2106 -0.1288
   45loPI   C3B  719  15.489   6.628   8.708  0.1338  0.1342 -0.2343
   45loPI   C4B  720  15.563   6.581   8.369  0.2905  0.0579  0.2787
   46loPI    C1  721  11.078  16.244  10.882 -0.1195  0.0130  0.0294
   46loPI    C2  722  10.985  16.484  11.189 -0.2872  0.0392 -0.0411
   46loPI    C3  723  11.184  16.143  11.255  0.0040  0.2233  0.0535
   46loPI   PO4  724  10.889  16.304  10.735 -0.0532  0.0240  0.0018
   46loPI   GL1  725  10.655  16.342  10.322  0.3769  0.0133 -0.2235
   46loPI   GL2  726  10.854  16.234  10.200  0.0679  0.1916 -0.0721
   46loPI   C1A  727  10.327  16.589  10.201 -0.2867  0.0362  0.0732
   46loPI   C2A  728  10.170  16.702   9.903 -0.2804  0.2635 -0.2708
   46loPI   C3A  729  10.057  16.764   9.443 -0.0294  0.0924 -0.0241
   46loPI   C4A  730  10.005  16.986   9.040  0.0581 -0.0679  0.0969
   46loPI   C5A  731   9.816  17.208   8.739  0.0303  0.1319 -0.1389
   46loPI   C6A  732   9.368  17.213   8.729 -0.1764  0.1326  0.1576
   46loPI   C1B  733  11.081  16.480   9.936 -0.0518  0.1966 -0.1157
   46loPI   C2B  734  11.041  16.663   9.504 -0.0452  0.1002 -0.1098
   46loPI   C3B  735  10.911  16.725   9.077 -0.1656 -0.1310  0.1132
   46loPI   C4B  736  10.676  16.724   8.626  0.1565  0.0115  0.2075
   47loPI    C1  737   5.081  10.630  10.082  0.0566 -0.0010  0.1900
   47loPI    C2  738   4.807  10.810  10.312  0.0887  0.2455  0.0395
   47loPI    C3  739   4.870  10.416  10.346 -0.0866  0.2354  0.2704
   47loPI   PO4  740   5.268  10.920  10.124 -0.1086 -0.2406 -0.0931
   47loPI   GL1  741   5.392  11.065   9.792 -0.3336  0.3518  0.0428
   47loPI   GL2  742   5.554  11.322   9.687 -0.3269  0.0489  0.2546
   47loPI   C1A  743   5.268  10.730   9.477 -0.2222 -0.0609 -0.1718
   47loPI   C2A  744   5.508  10.715   9.073  0.1855  0.0106 -0.3124
   47loPI   C3A  745   5.591  10.577   8.666 -0.3492  0.2458  0.2036
   47loPI   C4A  746   5.573  10.340   8.307  0.0241  0.2000 -0.0164
   47loPI   C5A  747   5.535   9.978   7.957 -0.0231  0.1046  0.1132
   47loPI   C6A  748   5.146   9.825   7.781  0.1205 -0.0286 -0.0300
   47loPI   C1B  749   5.563  11.170   9.274  0.1841  0.0264  0.1152
   47loPI   C2B  750   5.546  11.143   8.738 -0.2011 -0.0165  0.0856
   47loPI   C3B  751   5.346  11.263   8.328  0.1461  0.0162 -0.0864
   47loPI   C4B  752   5.409  11.359   7.942 -0.2403 -0.0789  0.1300
   48loPI    C1  753  10.065  12.993  10.676  0.0676 -0.1368 -0.1305
   48loPI    C2  754  10.265  12.711  10.876  0.0348 -0.0858 -0.0248
   48loPI    C3  755  10.459  12.951  10.621  0.1216  0.0094  0.1292
   48loPI   PO4  756   9.905  12.828  10.525  0.0553  0.3819 -0.3078
   48loPI   GL1  757   9.993  12.780  10.060  0.3344  0.0615 -0.2654
   48loPI   GL2  758   9.783  13.079   9.981 -0.2063 -0.0887  0.1315
   48loPI   C1A  759  10.087  12.691   9.683  0.1814  0.0917  0.0166
   48loPI   C2A  760  10.089  12.696   9.237  0.0316  0.1015 -0.0716
   48loPI   C3A  761  10.212  12.605   8.828  0.2659 -0.2039 -0.0128
   48loPI   C4A  762  10.070  12.711   8.332 -0.0788  0.1714 -0.0550
   48loPI   C5A  763  10.314  12.707   7.964  0.3967 -0.4137  0.2109
   48loPI   C6A  764  10.223  12.727   7.527  0.2155  0.1789  0.2077
   48loPI   C1B  765   9.895  13.157   9.582  0.0800 -0.0474 -0.0332
   48loPI   C2B  766   9.809  13.132   9.163  0.0286 -0.3103  0.2397
   48loPI   C3B  767   9.844  13.084   8.681 -0.0057 -0.0213  0.0328
   48loPI   C4B  768   9.741  13.102   8.257  0.1781 -0.0962 -0.1851
   49loPI    C1  769   6.012  13.862  10.923 -0.1158 -0.0906 -0.0145
   49loPI    C2  770   6.046  13.488  11.061 -0.2490 -0.1483 -0.1353
   49loPI    C3  771   5.768  13.732  11.213  0.0735  0.0212  0.1982
   49loPI   PO4  772   6.078  13.898  10.714  0.2158 -0.2423 -0.0113
   49loPI   GL1  773   6.097  14.144  10.393 -0.0331 -0.0707  0.3649
   49loPI   GL2  774   5.804  14.250  10.250 -0.0480 -0.1124 -0.1199
   49loPI   C1A  775   6.373  13.955  10.077 -0.1262  0.1109 -0.0240
   49loPI   C2A  776   6.521  14.036   9.626  0.0968  0.0176  0.0145
   49loPI   C3A  777   6.622  14.345   9.259 -0.2941 -0.0028 -0.0880
   49loPI   C4A  778   6.525  14.474   8.936  0.2386 -0.2476  0.5135
   49loPI   C5A  779   6.721  14.616   8.556  0.1571 -0.0800  0.2619
   49loPI   C6A  780   6.505  14.968   8.530 -0.1002 -0.0550 -0.0247
   49loPI   C1B  781   5.875  14.150   9.823 -0.2103 -0.0642  0.1335
   49loPI   C2B  782   6.063  13.896   9.529 -0.0904  0.0608 -0.1915
   49loPI   C3B  783   6.353  13.726   9.263 -0.2828 -0.2156 -0.1434
   49loPI   C4B  784   6.267  13.811   8.843  0.3309  0.0069 -0.2401
   50loPI    C1  785   7.097  11.644  11.027 -0.0597  0.1170 -0.0105
   50loPI    C2  786   7.192  12.013  11.150 -0.0122  0.0755  0.0779
   50loPI    C3  787   6.821  11.873  11.204  0.0477  0.0020  0.3127
   50loPI   PO4  788   7.199  11.729  10.752  0.0565  0.1992 -0.3001
   50loPI   GL1  789   7.071  11.452  10.460  0.3386  0.4083 -0.0511
   50loPI   GL2  790   6.744  11.457  10.268  0.1643  0.1021 -0.1447
   50loPI   C1A  791   7.234  11.591   9.952  0.1537  0.1088 -0.0257
   50loPI   C2A  792   7.258  11.648   9.483  0.1043 -0.0353  0.0976
   50loPI   C3A  793   7.384  11.656   9.035 -0.0313 -0.1701 -0.3907
   50loPI   C4A  794   7.573  11.690   8.688  0.2295  0.3919 -0.1964
   50loPI   C5A  795   7.673  12.089   8.407 -0.0632 -0.0383  0.0383
   50loPI   C6A  796   8.073  12.377   8.409  0.2542 -0.1276  0.0648
   50loPI   C1B  797   6.801  11.388   9.783  0.1636 -0.3133  0.0677
   50loPI   C2B  798   6.908  11.216   9.512  0.2739 -0.1292 -0.0146
   50loPI   C3B  799   7.106  11.186   9.211  0.1404  0.0735  0.0272
   50loPI   C4B  800   7.353  11.251   8.740  0.0893  0.3072  0.1257
   51loPI    C1  801   2.914   8.455  10.336  0.3533 -0.0961  0.0564
   51loPI    C2  802   2.731   8.654  10.631  0.0899 -0.0498 -0.1343
   51loPI    C3  803   2.852   8.277  10.689 -0.0795 -0.0865 -0.0087
   51loPI   PO4  804   3.056   8.687  10.230  0.0172  0.2088 -0.0222
   51loPI   GL1  805   3.331   8.925   9.820 -0.1709  0.1113 -0.1010
   51loPI   GL2  806   3.612   8.717   9.980  0.1076  0.3317 -0.0314
   51loPI   C1A  807   3.393   9.005   9.414  0.4618  0.0841  0.0096
   51loPI   C2A  808   3.314   9.071   8.947 -0.1534  0.0072  0.0629
   51loPI   C3A  809   3.150   9.130   8.457  0.0869  0.0221 -0.0192
   51loPI   C4A  810   2.777   8.928   8.418  0.1991  0.1683  0.1556
   51loPI   C5A  811   2.419   9.052   8.212 -0.0054 -0.1611 -0.0295
   51loPI   C6A  812   2.043   9.029   8.003 -0.0901  0.4320 -0.0561
   51loPI   C1B  813   3.549   8.554   9.603 -0.1584  0.2745  0.2994
   51loPI   C2B  814   3.507   8.434   9.155  0.3465 -0.1764 -0.1757
   51loPI   C3B  815   3.603   8.458   8.672  0.0309 -0.0194  0.1692
   51loPI   C4B  816   3.723   8.304   8.183  0.5430  0.1821 -0.3213
   52loPI    C1  817   6.617   9.092  10.745 -0.0253 -0.0024 -0.0279
   52loPI    C2  818   6.249   8.970  10.843 -0.1358  0.2619 -0.1050
   52loPI    C3  819   6.354   9.353  10.897  0.1420  0.1799 -0.0470
   52loPI   PO4  820   6.669   9.051  10.515  0.2374  0.0486  0.3571
   52loPI   GL1  821   6.829   8.895  10.252  0.0205 -0.0017 -0.1444
   52loPI   GL2  822   6.614   8.630  10.155  0.0490 -0.2556  0.2514
   52loPI   C1A  823   6.971   9.015   9.894 -0.1615  0.3912 -0.3041
   52loPI   C2A  824   6.910   9.000   9.507  0.1650 -0.0532  0.0047
   52loPI   C3A  825   6.970   9.021   9.109 -0.3422  0.0589  0.0224
   52loPI   C4A  826   7.132   9.047   8.665 -0.1491 -0.0900  0.1345
   52loPI   C5A  827   6.926   8.909   8.312 -0.1042  0.0428  0.0482
   52loPI   C6A  828   6.580   8.797   8.062  0.1257 -0.0906 -0.1060
   52loPI   C1B  829   6.763   8.594   9.683 -0.1291 -0.2534  0.1696
   52loPI   C2B  830   6.681   8.601   9.261 -0.0285  0.0188  0.2200
   52loPI   C3B  831   6.796   8.596   8.827 -0.0067 -0.1186 -0.0078
   52loPI   C4B  832   6.882   8.525   8.545  0.1047 -0.1897  0.0741
   53loPI    C1  833  10.959  11.387  10.870 -0.0857 -0.2319  0.0340
   53loPI    C2  834  10.883  11.132  11.168 -0.0901  0.1121  0.3337
   53loPI    C3  835  10.721  11.498  11.172  0.0150  0.1658 -0.0270
   53loPI   PO4  836  11.009  11.208  10.520  0.1392  0.1209  0.0003
   53loPI   GL1  837  10.885  11.241  10.098 -0.1687 -0.3153  0.0813
   53loPI   GL2  838  11.130  11.020   9.986 -0.0103 -0.0254  0.0006
   53loPI   C1A  839  10.760  11.331   9.628  0.1554 -0.1295 -0.0395
   53loPI   C2A  840  10.834  11.303   9.137  0.0369  0.0741  0.0782
   53loPI   C3A  841  10.908  11.198   8.743  0.0161  0.1698  0.1461
   53loPI   C4A  842  10.945  11.452   8.409 -0.0955  0.2083 -0.2349
   53loPI   C5A  843  11.084  11.514   8.019 -0.1739 -0.1290  0.2410
   53loPI   C6A  844  10.957  11.610   7.513 -0.2792  0.2612  0.0320
   53loPI   C1B  845  11.020  10.877   9.576 -0.1798  0.2374  0.1344
   53loPI   C2B  846  11.101  10.896   9.162  0.1305  0.0143  0.2717
   53loPI   C3B  847  11.231  10.738   8.681 -0.0287 -0.2304  0.3041
   53loPI   C4B  848  11.261  10.660   8.257  0.0243  0.0304 -0.5325
   54loPI    C1  849  14.979   4.713  10.356  0.0971 -0.2455 -0.1330
   54loPI    C2  850  15.271   4.931  10.521 -0.2720  0.1492  0.0177
   54loPI    C3  851  15.130   4.608  10.712 -0.2307  0.2094  0.1517
   54loPI   PO4  852  14.779   4.816  10.311 -0.3201 -0.2575  0.3312
   54loPI   GL1  853  14.641   4.910   9.820 -0.1068  0.0258  0.0209
   54loPI   GL2  854  14.965   4.802   9.857 -0.1601 -0.1714 -0.0218
   54loPI   C1A  855  14.400   4.871   9.530 -0.0275  0.0932  0.0081
   54loPI   C2A  856  14.124   4.841   9.219 -0.1006 -0.2820 -0.1243
   54loPI   C3A  857  13.902   4.769   8.832  0.2105  0.3613  0.1600
   54loPI   C4A  858  14.010   4.467   8.448 -0.0089  0.0650  0.2403
   54loPI   C5A  859  13.889   4.085   8.235  0.3524  0.1648 -0.2011
   54loPI   C6A  860  14.075   4.074   7.971  0.3748  0.0049  0.1756
   54loPI   C1B  861  15.057   4.836   9.401 -0.1109 -0.0228  0.3846
   54loPI   C2B  862  15.205   4.703   8.984 -0.0109 -0.0380  0.2680
   54loPI   C3B  863  15.445   4.616   8.612  0.0943  0.1432  0.1415
   54loPI   C4B  864  15.657   4.954   8.407  0.0322  0.0366  0.1779
   55loPI    C1  865  16.922  13.839  11.040 -0.2055  0.2312 -0.0270
   55loPI    C2  866  16.845  13.577  11.332  0.1199 -0.0712 -0.2037
   55loPI    C3  867  17.072  13.899  11.405  0.0346 -0.0388 -0.0779
   55loPI   PO4  868  16.648  13.802  10.821  0.0822  0.1038  0.0154
   55loPI   GL1  869  16.592  13.869  10.327 -0.0012 -0.1015  0.1071
   55loPI   GL2  870  16.371  13.624  10.192 -0.1463  0.2433  0.0225
   55loPI   C1A  871  16.695  13.883   9.907  0.0547 -0.0152 -0.0934
   55loPI   C2A  872  16.550  13.982   9.470 -0.2085  0.3268 -0.1707
   55loPI   C3A  873  16.389  14.004   9.001 -0.0514 -0.2653 -0.0295
   55loPI   C4A  874  16.372  13.796   8.472 -0.0134  0.0223 -0.0879
   55loPI   C5A  875  16.038  13.940   8.121 -0.0781 -0.0869 -0.0862
   55loPI   C6A  876  16.100  14.152   7.794  0.0241 -0.4592 -0.0658
   55loPI   C1B  877  16.282  13.516   9.798 -0.2643 -0.0304 -0.2496
   55loPI   C2B  878  16.056  13.639   9.432 -0.0918 -0.0216 -0.5328
   55loPI   C3B  879  15.903  13.911   9.136  0.1342 -0.2547 -0.0184
   55loPI   C4B  880  15.966  13.998   8.739 -0.0193  0.0843  0.0062
   56loPI    C1  881  16.928  17.215  10.638  0.1036  0.0552 -0.2706
   56loPI    C2  882  17.278  17.375  10.749  0.0024  0.1197 -0.0397
   56loPI    C3  883  17.038  17.209  11.023 -0.0398 -0.1417 -0.2312
   56loPI   PO4  884  16.887  17.172  10.475  0.1542  0.3496 -0.3363
   56loPI   GL1  885  17.138  17.172  10.220  0.0188  0.1289  0.2647
   56loPI   GL2  886  16.880  16.915  10.055 -0.1244 -0.0979  0.0115
   56loPI   C1A  887  17.217  17.198   9.742 -0.0886 -0.2499 -0.1684
   56loPI   C2A  888  17.151  17.168   9.281 -0.0201  0.0236  0.3090
   56loPI   C3A  889  17.120  17.027   8.845  0.0501 -0.2307 -0.1023
   56loPI   C4A  890  16.961  17.137   8.449  0.1430 -0.0764  0.0435
   56loPI   C5A  891  17.174  17.385   8.167  0.2190  0.0758  0.0352
   56loPI   C6A  892  17.224  17.791   8.144 -0.2754  0.1192  0.0440
   56loPI   C1B  893  16.809  16.833   9.714 -0.1066 -0.0485 -0.1128
   56loPI   C2B  894  16.751  16.834   9.206  0.0286  0.2216  0.2047
   56loPI   C3B  895  16.719  16.688   8.747  0.2478  0.2573 -0.0222
   56loPI   C4B  896  16.827  16.644   8.335  0.0243 -0.2177  0.2249
   57loPI    C1  897   9.958   3.137  10.800 -0.3525  0.0318 -0.2406
   57loPI    C2  898   9.802   2.866  11.050 -0.0001 -0.1496 -0.2124
   57loPI    C3  899   9.898   3.230  11.185  0.0279 -0.1898 -0.1232
   57loPI   PO4  900  10.031   3.148  10.629  0.1502 -0.3062 -0.0236
   57loPI   GL1  901  10.139   3.008  10.265 -0.1267  0.3396 -0.2367
   57loPI   GL2  902  10.092   2.707  10.204 -0.1212  0.0724  0.1360
   57loPI   C1A  903   9.992   3.110   9.890 -0.1723  0.1153  0.0589
   57loPI   C2A  904   9.950   3.176   9.478 -0.0738  0.2620  0.1898
   57loPI   C3A  905  10.113   2.982   9.137 -0.0872  0.3224 -0.0232
   57loPI   C4A  906  10.088   2.934   8.674 -0.1963  0.2122  0.2234
   57loPI   C5A  907  10.263   2.865   8.302 -0.1964 -0.0617 -0.0838
   57loPI   C6A  908  10.309   2.882   7.848  0.1320  0.0423  0.0794
   57loPI   C1B  909  10.104   2.521   9.810 -0.3179 -0.1483 -0.1509
   57loPI   C2B  910  10.157   2.459   9.379  0.0090 -0.0347  0.2767
   57loPI   C3B  911  10.251   2.510   8.992 -0.3648 -0.2575 -0.1565
   57loPI   C4B  912  10.283   2.431   8.582  0.0653 -0.2864  0.0860
   58loPI    C1  913   3.029  13.198  10.966  0.0404 -0.0767 -0.2223
   58loPI    C2  914   3.144  13.462  11.243 -0.2489 -0.1100 -0.0663
   58loPI    C3  915   3.181  13.070  11.314 -0.2080 -0.1170 -0.1263
   58loPI   PO4  916   3.129  13.221  10.808  0.1913 -0.1303  0.0959
   58loPI   GL1  917   3.254  13.163  10.318  0.0856 -0.1430 -0.0203
   58loPI   GL2  918   3.464  13.392  10.399  0.0505 -0.0105 -0.2022
   58loPI   C1A  919   3.108  13.483   9.965 -0.1493 -0.0610 -0.0960
   58loPI   C2A  920   3.025  13.545   9.528  0.0051  0.0047 -0.2539
   58loPI   C3A  921   2.992  13.711   9.069  0.1292 -0.3062  0.0211
   58loPI   C4A  922   3.006  13.727   8.703 -0.1033  0.0233  0.3160
   58loPI   C5A  923   2.999  13.557   8.286  0.2553 -0.0794  0.0598
   58loPI   C6A  924   3.163  13.092   8.132  0.1945  0.0174  0.1237
   58loPI   C1B  925   3.646  13.566  10.030  0.2134  0.0997  0.1614
   58loPI   C2B  926   3.563  13.927   9.813 -0.2122 -0.3578 -0.1766
   58loPI   C3B  927   3.394  13.959   9.319 -0.1148 -0.0612 -0.0824
   58loPI   C4B  928   3.413  14.021   8.832  0.0296  0.0576  0.0742
   59loPI    C1  929   7.821   5.652  10.718 -0.1572 -0.0603  0.1284
   59loPI    C2  930   7.902   6.033  10.808 -0.1332 -0.0767  0.1769
   59loPI    C3  931   7.915   5.754  11.094  0.0577 -0.1487  0.1002
   59loPI   PO4  932   8.073   5.726  10.445  0.0379 -0.1647 -0.0868
   59loPI   GL1  933   8.347   6.022  10.285  0.0109 -0.2646  0.0647
   59loPI   GL2  934   8.295   5.934   9.993  0.0164 -0.0454 -0.2772
   59loPI   C1A  935   8.128   6.401  10.048 -0.0109 -0.4099  0.4263
   59loPI   C2A  936   7.981   6.362   9.599 -0.0101 -0.0080 -0.0733
   59loPI   C3A  937   8.120   6.334   9.240 -0.1504  0.1181  0.2209
   59loPI   C4A  938   8.113   6.502   8.853  0.2373  0.0965  0.3337
   59loPI   C5A  939   8.135   6.712   8.520  0.2240 -0.0869 -0.1986
   59loPI   C6A  940   8.144   6.785   8.023  0.1987  0.0570  0.1852
   59loPI   C1B  941   8.258   5.962   9.626 -0.3838 -0.2892  0.2034
   59loPI   C2B  942   8.370   5.929   9.137  0.0580 -0.1583  0.1344
   59loPI   C3B  943   8.559   5.975   8.749 -0.0870  0.2146 -0.1343
   59loPI   C4B  944   8.585   5.894   8.232 -0.1097 -0.0544 -0.2015
   60loPI    C1  945   1.390  16.730  10.948  0.1600 -0.0951 -0.0458
   60loPI    C2  946   1.012  16.628  10.862  0.1731 -0.2135  0.0346
   60loPI    C3  947   1.089  16.874  11.168  0.1419  0.0380 -0.1564
   60loPI   PO4  948   1.506  16.811  10.736 -0.2056 -0.1941  0.0658
   60loPI   GL1  949   1.505  16.953  10.294 -0.2199 -0.0849 -0.1104
   60loPI   GL2  950   1.152  16.915  10.418 -0.0921 -0.1292 -0.1752
   60loPI   C1A  951   1.528  17.146   9.939  0.0440 -0.3082 -0.0331
   60loPI   C2A  952   1.609  17.184   9.517 -0.2185 -0.0328 -0.0885
   60loPI   C3A  953   1.579  17.439   9.185  0.1518 -0.0390 -0.2016
   60loPI   C4A  954   1.428  17.635   8.879  0.0289  0.0379  0.1629
   60loPI   C5A  955   1.430  17.686   8.445 -0.2061  0.0400  0.1239
   60loPI   C6A  956   1.443  17.987   8.051 -0.0626  0.1446  0.0737
   60loPI   C1B  957   1.073  16.987  10.001  0.1034  0.1804 -0.1219
   60loPI   C2B  958   1.129  17.020   9.522 -0.2258 -0.0215  0.3615
   60loPI   C3B  959   1.124  17.174   9.192  0.2058  0.5497 -0.1476
   60loPI   C4B  960   1.039  17.255   8.852  0.0627  0.1974 -0.5317
   61loPI    C1  961   2.258   3.045  10.599  0.0525 -0.0529 -0.0603
   61loPI    C2  962   2.591   2.920  10.783 -0.0463 -0.0395  0.1296
   61loPI    C3  963   2.521   3.312  10.740  0.0435 -0.0432 -0.0618
   61loPI   PO4  964   2.204   2.902  10.370 -0.2121  0.0582 -0.1554
   61loPI   GL1  965   2.204   2.837  10.027 -0.0686  0.0055  0.0894
   61loPI   GL2  966   2.002   3.119   9.896  0.1040  0.0330  0.0322
   61loPI   C1A  967   2.107   2.638   9.687  0.3486 -0.2045  0.2493
   61loPI   C2A  968   2.283   2.413   9.408 -0.2396 -0.1615  0.1868
   61loPI   C3A  969   2.336   2.477   8.902  0.2399 -0.1808 -0.1386
   61loPI   C4A  970   2.156   2.426   8.634  0.0818  0.0613 -0.0546
   61loPI   C5A  971   1.929   2.507   8.287 -0.0823 -0.0524 -0.1087
   61loPI   C6A  972   2.168   2.691   7.937  0.2198  0.2379  0.0317
   61loPI   C1B  973   2.177   3.166   9.558 -0.1271 -0.2138  0.2896
   61loPI   C2B  974   2.320   3.038   9.144 -0.1214 -0.3188  0.3901
   61loPI   C3B  975   2.264   2.954   8.712 -0.3346  0.1374 -0.1746
   61loPI   C4B  976   2.284   2.893   8.354 -0.0992  0.0093  0.0814
   62loPI    C1  977   3.215   3.852  10.782  0.1134 -0.1639 -0.1643
   62loPI    C2  978   3.534   4.024  10.952 -0.0002  0.1422 -0.2534
   62loPI    C3  979   3.198   3.972  11.164  0.0808 -0.1071 -0.1834
   62loPI   PO4  980   3.191   3.659  10.621 -0.2872  0.2036 -0.0831
   62loPI   GL1  981   3.233   3.768  10.175  0.2545 -0.1846  0.2278
   62loPI   GL2  982   3.530   3.844  10.098 -0.0707  0.1242  0.2103
   62loPI   C1A  983   3.230   3.473   9.867 -0.3147  0.0622 -0.2214
   62loPI   C2A  984   3.117   3.394   9.436  0.2229  0.1560 -0.0228
   62loPI   C3A  985   3.246   3.447   9.028  0.1588 -0.0708  0.0795
   62loPI   C4A  986   3.217   3.365   8.621  0.0835  0.0202 -0.1696
   62loPI   C5A  987   3.163   3.213   8.278 -0.2085  0.4050  0.2663
   62loPI   C6A  988   2.728   3.084   8.061 -0.4322  0.1658 -0.1476
   62loPI   C1B  989   3.704   4.012   9.776  0.1540  0.1733  0.4262
   62loPI   C2B  990   3.592   4.196   9.433 -0.1179  0.3426  0.0922
   62loPI   C3B  991   3.551   4.383   9.111 -0.2393  0.3270  0.0262
   62loPI   C4B  992   3.538   4.401   8.711  0.0468  0.1418  0.1887
   63loPI    C1  993  11.549  17.733  10.906  0.0076 -0.0255 -0.1049
   63loPI    C2  994  11.385  17.426  11.102  0.0550 -0.0440 -0.0942
   63loPI    C3  995  11.599  17.698  11.301  0.0867 -0.0521 -0.1171
   63loPI   PO4  996  11.479  17.651  10.688  0.0764  0.0299 -0.0917
   63loPI   GL1  997  11.237  17.510  10.422 -0.0502  0.1704 -0.0723
   63loPI   GL2  998  11.520  17.543  10.209 -0.1191 -0.0197  0.0566
   63loPI   C1A  999  11.021  17.653  10.064  0.1386 -0.1630 -0.0722
   63loPI   C2A 1000  11.171  17.630   9.630 -0.1418  0.0579  0.1121
   63loPI   C3A 1001  11.402  17.393   9.403  0.1348  0.1275 -0.0927
   63loPI   C4A 1002  11.308  17.212   9.000  0.0646 -0.1658 -0.1064
   63loPI   C5A 1003  11.419  17.424   8.692  0.0685  0.0749  0.1858
   63loPI   C6A 1004  11.771  17.614   8.454  0.1401 -0.0651 -0.1269
   63loPI   C1B 1005  11.611  17.681   9.835 -0.2645  0.0988  0.2114
   63loPI   C2B 1006  11.490  17.929   9.405 -0.0839  0.1019  0.1304
   63loPI   C3B 1007  11.133  17.700   9.094  0.1632 -0.0365 -0.1043
   63loPI   C4B 1008  11.009  17.706   8.733 -0.0493  0.0164 -0.0451
   64loPI    C1 1009   4.158   8.036  10.647 -0.1053 -0.1078 -0.0860
   64loPI    C2 1010   4.513   8.061  10.831 -0.0495 -0.1394 -0.1886
   64loPI    C3 1011   4.279   7.742  10.890 -0.1215 -0.0552 -0.0142
   64loPI   PO4 1012   4.282   8.179  10.415  0.1779  0.1805 -0.1052
   64loPI   GL1 1013   4.224   7.915  10.119  0.0896  0.0260 -0.1716
   64loPI   GL2 1014   4.339   7.594  10.283 -0.0481 -0.0942 -0.0599
   64loPI   C1A 1015   4.308   8.007   9.626 -0.1074  0.0440  0.1726
   64loPI   C2A 1016   4.340   7.965   9.221 -0.0882 -0.3416 -0.2229
   64loPI   C3A 1017   4.430   7.982   8.698 -0.1245 -0.0359  0.1204
   64loPI   C4A 1018   4.608   7.992   8.350 -0.0861 -0.0106 -0.2319
   64loPI   C5A 1019   4.466   8.040   7.906 -0.1458 -0.3692  0.1442
   64loPI   C6A 1020   4.081   8.145   7.761 -0.3009 -0.3645  0.1072
   64loPI   C1B 1021   4.644   7.578   9.925  0.1088  0.2607 -0.2229
   64loPI   C2B 1022   4.557   7.588   9.454 -0.4016  0.1033  0.1487
   64loPI   C3B 1023   4.693   7.539   8.986 -0.0971 -0.3774  0.0866
   64loPI   C4B 1024   4.824   7.558   8.481  0.2418 -0.0939 -0.1442
   65loPI    C1 1025   7.716   8.291  11.031  0.0638  0.1534  0.0882
   65loPI    C2 1026   7.832   7.997  11.277  0.1022  0.0764 -0.0213
   65loPI    C3 1027   7.464   8.151  11.309  0.0414 -0.0633 -0.0388
   65loPI   PO4 1028   7.923   8.302  10.855 -0.0779 -0.0524  0.1970
   65loPI   GL1 1029   7.927   8.301  10.427  0.0636  0.0255 -0.1249
   65loPI   GL2 1030   8.202   8.102  10.377 -0.3100  0.1839  0.1621
   65loPI   C1A 1031   7.786   8.631  10.062 -0.0690 -0.0349 -0.0276
   65loPI   C2A 1032   7.831   8.525   9.512 -0.1614 -0.4349  0.3315
   65loPI   C3A 1033   7.797   8.556   9.057  0.0349 -0.1797 -0.1532
   65loPI   C4A 1034   7.861   8.558   8.619  0.3857  0.0715 -0.0879
   65loPI   C5A 1035   7.902   8.490   8.180  0.0258  0.1154 -0.1470
   65loPI   C6A 1036   8.290   8.253   7.969  0.3832  0.1056 -0.3326
   65loPI   C1B 1037   8.380   7.816  10.096  0.3112  0.1775 -0.0111
   65loPI   C2B 1038   8.303   7.620   9.664  0.0608 -0.0087 -0.2265
   65loPI   C3B 1039   8.360   7.707   9.220 -0.1155 -0.0518 -0.0591
   65loPI   C4B 1040   8.304   7.690   8.772  0.1708  0.0053  0.2603
   66loPI    C1 1041   6.815   9.680  10.838  0.2879  0.1106  0.1965
   66loPI    C2 1042   7.141   9.448  10.842  0.1802 -0.0414  0.2456
   66loPI    C3 1043   6.829   9.359  11.075 -0.0231 -0.0793 -0.0347
   66loPI   PO4 1044   6.752   9.660  10.638 -0.1912  0.1596 -0.1089
   66loPI   GL1 1045   7.011   9.462  10.391  0.0384 -0.4059 -0.1156
   66loPI   GL2 1046   6.732   9.399  10.117 -0.3498 -0.1967  0.1056
   66loPI   C1A 1047   7.271   9.422  10.034 -0.1067 -0.2181 -0.4520
   66loPI   C2A 1048   7.234   9.376   9.589  0.0002  0.1134 -0.1719
   66loPI   C3A 1049   7.284   9.416   9.093  0.0473  0.0622  0.0654
   66loPI   C4A 1050   7.362   9.461   8.664  0.0622 -0.2081 -0.1044
   66loPI   C5A 1051   7.219   9.506   8.243 -0.0850  0.0345 -0.1608
   66loPI   C6A 1052   7.414   9.638   7.852 -0.0736 -0.0899  0.1647
   66loPI   C1B 1053   6.654   9.450   9.682  0.1811  0.3385 -0.0049
   66loPI   C2B 1054   6.681   9.420   9.169 -0.1228 -0.1545 -0.3523
   66loPI   C3B 1055   6.866   9.468   8.824  0.1436  0.1246  0.6288
   66loPI   C4B 1056   6.850   9.664   8.506  0.2912 -0.2782 -0.1571
   67loPI    C1 1057   4.401   2.578  11.052 -0.0236 -0.0034 -0.0350
   67loPI    C2 1058   4.275   2.954  11.103  0.0604  0.0109  0.0721
   67loPI    C3 1059   4.099   2.655  11.303 -0.1410 -0.0334 -0.1658
   67loPI   PO4 1060   4.558   2.564  10.794  0.0952  0.1195 -0.0708
   67loPI   GL1 1061   4.445   2.257  10.466 -0.0250 -0.0165 -0.2033
   67loPI   GL2 1062   4.119   2.302  10.462 -0.3197 -0.4192 -0.0665
   67loPI   C1A 1063   4.339   2.137  10.038  0.1341 -0.0258 -0.1181
   67loPI   C2A 1064   4.335   2.018   9.604  0.1355  0.1065 -0.1390
   67loPI   C3A 1065   4.458   1.875   9.212  0.2370 -0.0629 -0.0095
   67loPI   C4A 1066   4.406   1.787   8.754 -0.0214 -0.0075  0.1956
   67loPI   C5A 1067   4.446   1.505   8.400  0.2720 -0.2058  0.1483
   67loPI   C6A 1068   4.504   1.414   7.906 -0.0328  0.3204  0.0021
   67loPI   C1B 1069   4.131   2.578  10.125  0.0810  0.4931 -0.1604
   67loPI   C2B 1070   4.098   2.426   9.733 -0.0568 -0.0199 -0.0349
   67loPI   C3B 1071   4.112   2.405   9.294 -0.0151 -0.0372 -0.0133
   67loPI   C4B 1072   3.986   2.276   8.904  0.0376 -0.0873 -0.0171
   68loPI    C1 1073   5.784   8.773  10.766  0.2033 -0.1077 -0.0692
   68loPI    C2 1074   5.448   8.823  10.977  0.1020  0.0616 -0.2666
   68loPI    C3 1075   5.777   8.679  11.155 -0.0540 -0.0399 -0.0560
   68loPI   PO4 1076   5.643   8.756  10.475 -0.0691 -0.0104  0.2360
   68loPI   GL1 1077   5.362   8.737  10.218 -0.0070 -0.1131  0.1945
   68loPI   GL2 1078   5.242   8.923  10.094  0.0708  0.0725  0.0300
   68loPI   C1A 1079   5.579   8.531   9.854 -0.1895 -0.2610 -0.2417
   68loPI   C2A 1080   5.672   8.440   9.480 -0.1076  0.2375  0.0325
   68loPI   C3A 1081   5.665   8.512   9.042  0.1045  0.0794  0.0899
   68loPI   C4A 1082   5.569   8.590   8.616 -0.0436 -0.0208 -0.0529
   68loPI   C5A 1083   5.734   8.745   8.199  0.1045  0.2021 -0.0494
   68loPI   C6A 1084   6.102   9.014   8.194  0.1734  0.0058 -0.0065
   68loPI   C1B 1085   5.389   8.978   9.700 -0.0374 -0.0500  0.0774
   68loPI   C2B 1086   5.374   8.869   9.223  0.0422 -0.1129  0.3856
   68loPI   C3B 1087   5.342   9.011   8.820 -0.0755 -0.0224 -0.2562
   68loPI   C4B 1088   5.153   9.280   8.573  0.0978 -0.1679  0.0151
   69loPI    C1 1089   6.497  10.907  10.636  0.2145 -0.1065  0.1553
   69loPI    C2 1090   6.686  10.926  10.988 -0.0660  0.1152  0.2983
   69loPI    C3 1091   6.316  11.074  10.952 -0.1758 -0.2193 -0.0022
   69loPI   PO4 1092   6.676  10.997  10.473 -0.1059  0.0749 -0.1682
   69loPI   GL1 1093   6.920  10.789  10.226  0.1397  0.0551  0.1200
   69loPI   GL2 1094   7.011  11.080  10.066 -0.4658  0.0679 -0.1697
   69loPI   C1A 1095   6.607  10.826   9.831  0.3530 -0.2820  0.2291
   69loPI   C2A 1096   6.346  11.074   9.607 -0.1039 -0.1320  0.1682
   69loPI   C3A 1097   6.533  11.131   9.167  0.2144 -0.2735  0.3175
   69loPI   C4A 1098   6.522  11.177   8.741 -0.0185 -0.1713  0.3899
   69loPI   C5A 1099   6.642  11.425   8.304  0.1082  0.2262 -0.1731
   69loPI   C6A 1100   6.535  11.530   7.931 -0.0663  0.1646 -0.0874
   69loPI   C1B 1101   7.116  10.776   9.818 -0.2708  0.3047  0.1722
   69loPI   C2B 1102   7.310  10.736   9.533 -0.1810  0.0740 -0.1642
   69loPI   C3B 1103   7.476  10.726   9.134  0.0144  0.1554  0.2070
   69loPI   C4B 1104   7.586  10.725   8.802 -0.1030  0.0736 -0.2893
   70loPI    C1 1105  15.120   6.396  10.501  0.1203 -0.0240 -0.1146
   70loPI    C2 1106  14.977   6.232  10.837 -0.1521 -0.0518 -0.2412
   70loPI    C3 1107  15.288   6.484  10.853 -0.0653 -0.1721  0.0130
   70loPI   PO4 1108  15.006   6.392  10.407 -0.0977 -0.2398  0.0797
   70loPI   GL1 1109  15.067   6.129  10.018 -0.3443 -0.0258  0.1119
   70loPI   GL2 1110  14.923   6.227   9.720 -0.0091  0.1737  0.1342
   70loPI   C1A 1111  15.414   6.310   9.846 -0.0424 -0.0901 -0.1278
   70loPI   C2A 1112  15.639   6.282   9.428 -0.1040 -0.1487 -0.3351
   70loPI   C3A 1113  15.717   6.252   9.023 -0.2780  0.1241 -0.1550
   70loPI   C4A 1114  15.766   6.098   8.695 -0.1963  0.1244  0.0365
   70loPI   C5A 1115  15.848   5.955   8.352  0.0995  0.0443 -0.1383
   70loPI   C6A 1116  16.055   5.636   8.048  0.2143  0.1387  0.0456
   70loPI   C1B 1117  15.050   6.207   9.277 -0.0986  0.0752  0.2291
   70loPI   C2B 1118  15.254   6.135   8.950 -0.1000  0.0342 -0.2219
   70loPI   C3B 1119  15.259   6.155   8.503  0.2860  0.1196 -0.1534
   70loPI   C4B 1120  15.213   6.066   8.058  0.0908 -0.1015 -0.0787
   71loPI    C1 1121  10.915   2.706  11.036 -0.2398 -0.2137 -0.1070
   71loPI    C2 1122  10.568   2.732  11.232 -0.1115 -0.1167  0.1117
   71loPI    C3 1123  10.891   2.922  11.372 -0.0067 -0.0796 -0.1738
   71loPI   PO4 1124  10.895   2.761  10.772  0.3597 -0.0202  0.0209
   71loPI   GL1 1125  11.061   2.472  10.565 -0.1111  0.0731  0.1648
   71loPI   GL2 1126  11.352   2.281  10.443 -0.1892 -0.0609 -0.3768
   71loPI   C1A 1127  11.048   2.575  10.112 -0.1433 -0.2575  0.0199
   71loPI   C2A 1128  10.944   2.517   9.729 -0.0267 -0.0574 -0.1810
   71loPI   C3A 1129  11.021   2.653   9.389 -0.3625  0.0285  0.0310
   71loPI   C4A 1130  11.150   2.590   8.955 -0.1968  0.1131 -0.1095
   71loPI   C5A 1131  11.160   2.591   8.564  0.1264 -0.0439 -0.4551
   71loPI   C6A 1132  11.561   2.258   8.284  0.0767 -0.0394 -0.0663
   71loPI   C1B 1133  11.439   2.205   9.968 -0.1991 -0.1442  0.2137
   71loPI   C2B 1134  11.465   2.356   9.607 -0.0330 -0.0220 -0.0674
   71loPI   C3B 1135  11.575   2.419   9.187  0.1739  0.0508 -0.1755
   71loPI   C4B 1136  11.674   2.318   8.832 -0.2313  0.1410  0.5938
   72loPI    C1 1137   6.060  16.932  11.079  0.2832 -0.1879  0.0660
   72loPI    C2 1138   5.706  16.760  11.151  0.1006  0.0856 -0.1576
   72loPI    C3 1139   5.932  16.886  11.456  0.1711 -0.4052  0.0035
   72loPI   PO4 1140   6.035  16.970  10.798 -0.2693  0.0225  0.2201
   72loPI   GL1 1141   6.028  16.792  10.441  0.2605  0.1525  0.0812
   72loPI   GL2 1142   5.674  16.690  10.442 -0.0576 -0.1983 -0.0085
   72loPI   C1A 1143   5.995  16.755   9.962  0.0620 -0.1280  0.1759
   72loPI   C2A 1144   6.021  16.757   9.522 -0.0149  0.2845 -0.0358
   72loPI   C3A 1145   6.103  16.712   9.120  0.2197 -0.0132 -0.0190
   72loPI   C4A 1146   6.131  16.564   8.691  0.3122 -0.1176 -0.0658
   72loPI   C5A 1147   6.225  16.813   8.310  0.0405 -0.2463  0.1318
   72loPI   C6A 1148   6.643  16.907   8.178  0.2650  0.0005 -0.1304
   72loPI   C1B 1149   5.730  16.398  10.147 -0.2260  0.1555 -0.1215
   72loPI   C2B 1150   5.729  16.400   9.681 -0.0847 -0.3629 -0.1565
   72loPI   C3B 1151   5.674  16.463   9.308 -0.1459 -0.2546  0.1026
   72loPI   C4B 1152   5.683  16.321   8.864 -0.0183  0.2518  0.1193
   73loPI    C1 1153  17.604   4.495  10.429  0.1734 -0.0367 -0.1614
   73loPI    C2 1154  17.328   4.259  10.597  0.0316  0.0471 -0.2753
   73loPI    C3 1155  17.667   4.340  10.792 -0.1559  0.1904 -0.0025
   73loPI   PO4 1156  17.650   4.367  10.198  0.1607 -0.0855  0.1496
   73loPI   GL1 1157  17.867   4.526   9.820 -0.0986 -0.3262  0.0005
   73loPI   GL2 1158  17.585   4.695   9.823 -0.0593  0.3159  0.2824
   73loPI   C1A 1159  18.093   4.463   9.544  0.3569 -0.1526  0.0082
   73loPI   C2A 1160  18.275   4.593   9.182  0.1911  0.1980 -0.0078
   73loPI   C3A 1161  18.498   4.522   8.765  0.0362  0.0076 -0.1646
   73loPI   C4A 1162  18.478   4.787   8.304  0.4237 -0.1559  0.3655
   73loPI   C5A 1163  18.458   5.134   7.900 -0.1305  0.0535 -0.1655
   73loPI   C6A 1164  18.392   5.280   7.455 -0.0734 -0.3052 -0.2001
   73loPI   C1B 1165  17.577   4.492   9.412 -0.0244  0.2059  0.0504
   73loPI   C2B 1166  17.815   4.389   9.047 -0.0646  0.0546  0.1412
   73loPI   C3B 1167  18.185   4.203   8.819  0.1596  0.0081 -0.1764
   73loPI   C4B 1168  18.374   4.175   8.343  0.2244 -0.0638 -0.2271
   74loPI    C1 1169   7.526  17.791  10.828  0.1850 -0.0332  0.0328
   74loPI    C2 1170   7.540  17.633  11.195 -0.0099  0.0097  0.0596
   74loPI    C3 1171   7.675  18.004  11.132 -0.0218  0.0204  0.0978
   74loPI   PO4 1172   7.341  17.660  10.719  0.0419  0.1174 -0.0467
   74loPI   GL1 1173   7.098  17.665  10.313  0.2551  0.0327 -0.0593
   74loPI   GL2 1174   6.864  18.013  10.269  0.2019  0.1595  0.0676
   74loPI   C1A 1175   7.292  17.554  10.009 -0.0068 -0.1690 -0.3726
   74loPI   C2A 1176   7.241  17.662   9.601 -0.2925 -0.1832 -0.0240
   74loPI   C3A 1177   7.264  17.711   9.150  0.0350  0.1718  0.1117
   74loPI   C4A 1178   7.643  17.789   8.766 -0.0918 -0.0847 -0.1886
   74loPI   C5A 1179   7.623  18.010   8.298  0.2985 -0.0855  0.0552
   74loPI   C6A 1180   7.576  18.389   8.059  0.0638 -0.0365  0.2559
   74loPI   C1B 1181   6.802  17.879   9.810 -0.0104 -0.0448  0.1076
   74loPI   C2B 1182   6.791  17.894   9.428 -0.0579  0.0277  0.1184
   74loPI   C3B 1183   6.809  17.861   9.029  0.0443  0.1420 -0.0518
   74loPI   C4B 1184   7.147  17.895   8.697 -0.0580 -0.2311  0.1398
   75loPI    C1 1185  16.229   3.165  10.684  0.2397 -0.0023  0.1650
   75loPI    C2 1186  16.374   2.809  10.575 -0.1870 -0.1144 -0.0592
   75loPI    C3 1187  16.314   2.891  10.962  0.0573 -0.2252  0.0042
   75loPI   PO4 1188  16.231   3.293  10.440  0.0678 -0.1685  0.2747
   75loPI   GL1 1189  16.556   3.118  10.156  0.0925 -0.3387  0.0208
   75loPI   GL2 1190  16.270   3.182   9.935 -0.1808 -0.0824 -0.1389
   75loPI   C1A 1191  16.766   3.110   9.699  0.2334 -0.0908 -0.1354
   75loPI   C2A 1192  16.854   3.211   9.297  0.1023  0.1094  0.2310
   75loPI   C3A 1193  16.915   3.139   8.826  0.0209  0.0368  0.3656
   75loPI   C4A 1194  17.069   3.184   8.455  0.1759 -0.2220  0.3127
   75loPI   C5A 1195  16.991   3.475   8.146  0.3491  0.1522  0.0096
   75loPI   C6A 1196  17.070   3.520   7.712 -0.2541 -0.1219  0.0220
   75loPI   C1B 1197  16.218   3.353   9.486 -0.2099  0.4129  0.1409
   75loPI   C2B 1198  16.436   3.319   9.064  0.0395 -0.0935  0.0558
   75loPI   C3B 1199  16.568   3.436   8.665 -0.0391  0.0199  0.4108
   75loPI   C4B 1200  16.488   3.472   8.212  0.2263 -0.2588  0.0625
   76loPI    C1 1201   7.413  13.787  11.375  0.0432 -0.1543 -0.0613
   76loPI    C2 1202   7.138  14.013  11.558  0.1262 -0.0286 -0.0909
   76loPI    C3 1203   7.516  14.012  11.689  0.0813 -0.3159  0.0429
   76loPI   PO4 1204   7.399  13.831  11.111 -0.2371 -0.1701 -0.5587
   76loPI   GL1 1205   7.335  13.829  10.696  0.1606 -0.1720 -0.0478
   76loPI   GL2 1206   7.168  14.127  10.611  0.0262  0.0768  0.2177
   76loPI   C1A 1207   7.551  13.830  10.259 -0.0437 -0.0546 -0.1000
   76loPI   C2A 1208   7.588  13.842   9.848 -0.3772  0.2757 -0.0214
   76loPI   C3A 1209   7.544  13.887   9.444  0.0569 -0.1158 -0.4392
   76loPI   C4A 1210   7.500  14.098   9.068  0.0414  0.0155 -0.0199
   76loPI   C5A 1211   7.191  14.311   8.728  0.0717 -0.3009  0.1169
   76loPI   C6A 1212   6.792  14.140   8.739  0.0223 -0.0369  0.0773
   76loPI   C1B 1213   7.254  14.208  10.163 -0.1729 -0.0640 -0.2678
   76loPI   C2B 1214   7.206  14.346   9.682 -0.0335  0.1604 -0.0522
   76loPI   C3B 1215   7.066  14.580   9.300 -0.3897 -0.0529  0.0295
   76loPI   C4B 1216   6.896  14.808   8.995  0.2156  0.1852  0.1501
   77loPI    C1 1217  16.962  16.696  10.731 -0.1488  0.0789  0.1856
   77loPI    C2 1218  17.288  16.862  10.570 -0.1080 -0.0676  0.1146
   77loPI    C3 1219  17.276  16.786  10.962  0.1311 -0.4877  0.0465
   77loPI   PO4 1220  16.743  16.701  10.538  0.0790 -0.0402  0.2564
   77loPI   GL1 1221  16.751  16.363  10.278  0.0103 -0.3332 -0.1654
   77loPI   GL2 1222  17.124  16.461  10.248  0.0696 -0.1657  0.0097
   77loPI   C1A 1223  16.451  16.502   9.957  0.1646 -0.0490  0.1553
   77loPI   C2A 1224  16.365  16.509   9.472  0.2468  0.2787 -0.3026
   77loPI   C3A 1225  16.385  16.384   9.022  0.0393  0.0889 -0.2286
   77loPI   C4A 1226  16.420  16.328   8.543  0.0507 -0.1275 -0.0618
   77loPI   C5A 1227  16.530  16.169   8.269 -0.0653  0.1272 -0.1691
   77loPI   C6A 1228  16.773  15.772   8.113  0.3464  0.1114  0.0161
   77loPI   C1B 1229  17.213  16.590   9.783  0.0082  0.0107 -0.2549
   77loPI   C2B 1230  17.291  16.656   9.389  0.2254 -0.0470 -0.1026
   77loPI   C3B 1231  17.236  16.607   8.987  0.1159  0.3515  0.1159
   77loPI   C4B 1232  17.220  16.588   8.696  0.1449  0.1519 -0.0142
   78loPI    C1 1233  11.415   0.283  11.048 -0.0416 -0.0507 -0.0028
   78loPI    C2 1234  11.744   0.096  11.176  0.1605  0.1127 -0.2720
   78loPI    C3 1235  11.526   0.313  11.431  0.1593 -0.1402 -0.0527
   78loPI   PO4 1236  11.522   0.446  10.879  0.1528  0.0767  0.0495
   78loPI   GL1 1237  11.528   0.661  10.426 -0.1444 -0.3403 -0.2076
   78loPI   GL2 1238  11.371   0.228  10.483  0.0953  0.3061  0.1457
   78loPI   C1A 1239  11.634   0.804   9.992  0.1242  0.0728  0.2597
   78loPI   C2A 1240  11.667   0.759   9.557 -0.0049 -0.0149  0.2321
   78loPI   C3A 1241  11.714   0.852   9.110 -0.0759  0.0989 -0.1517
   78loPI   C4A 1242  11.699   0.764   8.689  0.3034 -0.0055  0.1619
   78loPI   C5A 1243  11.493   0.580   8.411 -0.1458 -0.1099 -0.0517
   78loPI   C6A 1244  11.209   0.281   8.303  0.2031 -0.2586  0.2916
   78loPI   C1B 1245  11.346   0.112  10.047  0.0135 -0.1368  0.1525
   78loPI   C2B 1246  11.349  -0.005   9.562  0.0590 -0.1214 -0.3462
   78loPI   C3B 1247  11.298   0.003   9.065  0.3183  0.1422 -0.1301
   78loPI   C4B 1248  11.345  -0.032   8.643  0.0545  0.0402  0.0454
   79loPI    C1 1249   6.295   3.317  10.713 -0.0661 -0.1993 -0.0802
   79loPI    C2 1250   6.632   3.424  10.900 -0.1786  0.0925 -0.0379
   79loPI    C3 1251   6.317   3.296  11.111 -0.0721 -0.2538 -0.0828
   79loPI   PO4 1252   6.393   3.177  10.452  0.0283  0.3312 -0.0916
   79loPI   GL1 1253   6.582   3.209   9.949 -0.1987 -0.4054  0.0829
   79loPI   GL2 1254   6.484   3.530  10.014 -0.1238 -0.2508  0.2085
   79loPI   C1A 1255   6.264   3.132   9.609  0.0895  0.1224  0.2886
   79loPI   C2A 1256   6.278   3.009   9.141 -0.0850  0.3554 -0.0511
   79loPI   C3A 1257   6.594   3.042   8.784 -0.2601  0.0108  0.1322
   79loPI   C4A 1258   6.968   3.308   8.523  0.0087  0.2685  0.2672
   79loPI   C5A 1259   7.331   3.331   8.186 -0.1161  0.0188  0.1731
   79loPI   C6A 1260   7.342   3.325   7.796  0.2443 -0.1638  0.0500
   79loPI   C1B 1261   6.551   3.617   9.606 -0.3857 -0.0873  0.1813
   79loPI   C2B 1262   6.659   3.577   9.151 -0.2641 -0.0022 -0.1477
   79loPI   C3B 1263   6.476   3.494   8.795 -0.1508 -0.2579  0.2089
   79loPI   C4B 1264   6.350   3.485   8.470 -0.0057 -0.1788  0.3628
   80loPI    C1 1265  14.871  12.088  10.654 -0.1228 -0.0797  0.2075
   80loPI    C2 1266  15.142  11.860  10.839 -0.0626 -0.0561  0.1486
   80loPI    C3 1267  15.068  12.230  10.972 -0.0953 -0.0771  0.1893
   80loPI   PO4 1268  14.890  12.053  10.424 -0.1727 -0.1313  0.0962
   80loPI   GL1 1269  14.706  12.151  10.049  0.0612 -0.2021  0.2899
   80loPI   GL2 1270  14.438  12.238  10.023 -0.3089 -0.1205  0.1033
   80loPI   C1A 1271  14.829  12.245   9.569  0.0187 -0.2273  0.2443
   80loPI   C2A 1272  14.782  12.363   9.099  0.0558  0.0961  0.3716
   80loPI   C3A 1273  14.820  12.343   8.641  0.0576 -0.0621 -0.3320
   80loPI   C4A 1274  14.991  12.442   8.312  0.1917 -0.1338 -0.1484
   80loPI   C5A 1275  15.219  12.461   8.087 -0.2375  0.0930  0.0219
   80loPI   C6A 1276  15.235  12.614   7.568  0.0732  0.2216  0.1712
   80loPI   C1B 1277  14.227  12.217   9.692  0.2577  0.0885  0.1655
   80loPI   C2B 1278  14.404  12.086   9.290 -0.0810 -0.1731 -0.1282
   80loPI   C3B 1279  14.587  11.758   8.993  0.0496 -0.2249  0.1253
   80loPI   C4B 1280  14.507  11.493   8.617  0.0750 -0.1916  0.0262
   81loPI    C1 1281   0.441   9.949  10.605 -0.1040  0.2002  0.1133
   81loPI    C2 1282   0.214   9.633  10.515  0.1392  0.0850 -0.1085
   81loPI    C3 1283   0.095   9.890  10.797 -0.1527 -0.0980 -0.0602
   81loPI   PO4 1284   0.691   9.876  10.505  0.2196 -0.0145 -0.1589
   81loPI   GL1 1285   0.819   9.938  10.174  0.1223 -0.1323  0.1713
   81loPI   GL2 1286   0.459   9.820  10.064  0.2671 -0.1799 -0.0083
   81loPI   C1A 1287   0.904  10.044   9.722  0.1299  0.1014 -0.0366
   81loPI   C2A 1288   0.894  10.170   9.239 -0.3396 -0.0846 -0.2699
   81loPI   C3A 1289   0.779  10.172   8.837 -0.3346 -0.2791 -0.0962
   81loPI   C4A 1290   0.851  10.044   8.453  0.4528 -0.1689 -0.1695
   81loPI   C5A 1291   0.782  10.034   7.997  0.1624  0.0032  0.0119
   81loPI   C6A 1292   0.709   9.994   7.562  0.1496  0.0692  0.2867
   81loPI   C1B 1293   0.506   9.482   9.873  0.2585 -0.0901  0.1028
   81loPI   C2B 1294   0.348   9.422   9.392  0.2130 -0.0508  0.0857
   81loPI   C3B 1295   0.323   9.452   8.969 -0.0898  0.2456 -0.0279
   81loPI   C4B 1296   0.201   9.414   8.552 -0.0830  0.2021 -0.3200
   82loPI    C1 1297  17.584   5.430  10.286 -0.0153  0.0171 -0.2122
   82loPI    C2 1298  17.742   5.423  10.653 -0.2831 -0.1296 -0.0965
   82loPI    C3 1299  17.369   5.556  10.599 -0.2297 -0.0677 -0.3232
   82loPI   PO4 1300  17.864   5.409  10.186 -0.0352 -0.0001  0.2336
   82loPI   GL1 1301  18.120   5.235   9.835 -0.1115 -0.1415  0.0127
   82loPI   GL2 1302  18.027   4.995   9.822 -0.3537 -0.2110 -0.0427
   82loPI   C1A 1303  17.926   5.475   9.567 -0.2086  0.1731 -0.1218
   82loPI   C2A 1304  17.637   5.408   9.328  0.0697 -0.2282  0.3930
   82loPI   C3A 1305  17.331   5.228   8.964  0.2220  0.2807 -0.1474
   82loPI   C4A 1306  17.266   5.099   8.493 -0.1178 -0.0492  0.4726
   82loPI   C5A 1307  17.082   5.172   8.040 -0.0119  0.1431  0.2608
   82loPI   C6A 1308  16.940   5.155   7.615  0.2142 -0.1693  0.2480
   82loPI   C1B 1309  17.897   4.902   9.388  0.1839  0.1726  0.3366
   82loPI   C2B 1310  17.916   5.089   9.086 -0.0559 -0.0424 -0.2353
   82loPI   C3B 1311  18.044   4.782   8.734 -0.1689 -0.0159 -0.3544
   82loPI   C4B 1312  17.983   4.434   8.429 -0.0668 -0.0312  0.0972
   83loPI    C1 1313   9.732   1.373  11.000 -0.1363  0.0542  0.1756
   83loPI    C2 1314   9.886   1.633  11.263 -0.0655  0.0099  0.1782
   83loPI    C3 1315   9.700   1.303  11.393  0.0661 -0.0677  0.1721
   83loPI   PO4 1316   9.917   1.264  10.837 -0.1362 -0.1799 -0.0802
   83loPI   GL1 1317  10.340   1.313  10.527  0.0627 -0.1419  0.1793
   83loPI   GL2 1318  10.053   1.510  10.286 -0.0785  0.3936 -0.2206
   83loPI   C1A 1319  10.424   1.173  10.123 -0.0210 -0.3001 -0.0652
   83loPI   C2A 1320  10.631   1.177   9.740  0.0877 -0.1587 -0.0812
   83loPI   C3A 1321  10.784   1.253   9.367  0.1400 -0.3238  0.1195
   83loPI   C4A 1322  10.843   1.229   9.009  0.2308 -0.0058  0.3118
   83loPI   C5A 1323  11.081   1.315   8.558  0.0694 -0.1400  0.0901
   83loPI   C6A 1324  11.294   1.295   8.233 -0.0119 -0.1236 -0.0305
   83loPI   C1B 1325  10.158   1.441   9.863  0.0908 -0.0262 -0.1387
   83loPI   C2B 1326  10.275   1.430   9.470  0.1303  0.2319  0.2264
   83loPI   C3B 1327  10.395   1.469   9.002  0.4060 -0.1261  0.2260
   83loPI   C4B 1328  10.533   1.508   8.643 -0.1347  0.0673  0.0138
   84loPI    C1 1329   3.495  15.124  10.907  0.0736 -0.0838  0.1390
   84loPI    C2 1330   3.499  14.938  10.553  0.2375  0.1093  0.0369
   84loPI    C3 1331   3.590  14.736  10.887 -0.1851 -0.1423  0.0072
   84loPI   PO4 1332   3.285  15.339  10.805  0.4052  0.1539 -0.3396
   84loPI   GL1 1333   3.216  15.358  10.380 -0.0359  0.0330 -0.0221
   84loPI   GL2 1334   3.012  15.600  10.491 -0.1477  0.1373 -0.2696
   84loPI   C1A 1335   3.163  15.345   9.899  0.2436  0.1460  0.1836
   84loPI   C2A 1336   3.110  15.279   9.440 -0.1199 -0.2779 -0.1760
   84loPI   C3A 1337   3.043  15.427   8.997 -0.0121 -0.3540  0.3324
   84loPI   C4A 1338   3.013  15.497   8.609 -0.0029  0.1425 -0.3475
   84loPI   C5A 1339   3.070  15.521   8.129  0.2730 -0.1456 -0.0365
   84loPI   C6A 1340   2.993  15.421   7.656 -0.0848  0.1486  0.4110
   84loPI   C1B 1341   3.081  15.781  10.095  0.0443  0.2315  0.2404
   84loPI   C2B 1342   3.093  15.802   9.646 -0.2310  0.2720 -0.1717
   84loPI   C3B 1343   3.061  15.916   9.203 -0.1752  0.4369 -0.1441
   84loPI   C4B 1344   2.934  16.015   8.730  0.0848  0.1205  0.0721
   85loPI    C1 1345   1.715   1.122  10.754 -0.1987 -0.0626 -0.1669
   85loPI    C2 1346   1.338   1.016  10.831 -0.2316  0.1955  0.0421
   85loPI    C3 1347   1.514   1.300  11.051  0.1394 -0.0362  0.0521
   85loPI   PO4 1348   1.695   1.139  10.519 -0.0203 -0.0158 -0.0397
   85loPI   GL1 1349   1.892   0.926  10.148  0.0265  0.0152  0.0887
   85loPI   GL2 1350   1.629   0.921  10.058  0.2415 -0.3956 -0.1199
   85loPI   C1A 1351   2.046   0.821   9.768 -0.0821  0.3133  0.4171
   85loPI   C2A 1352   1.964   0.904   9.307  0.2011  0.3419 -0.3769
   85loPI   C3A 1353   2.070   0.881   8.948  0.1835  0.1243 -0.2482
   85loPI   C4A 1354   2.065   0.892   8.405  0.3737 -0.2315  0.3609
   85loPI   C5A 1355   1.770   0.935   8.009  0.1948 -0.0586  0.5604
   85loPI   C6A 1356   1.478   0.909   7.636  0.0446  0.0154 -0.1464
   85loPI   C1B 1357   1.489   0.863   9.645 -0.0552 -0.1311 -0.0940
   85loPI   C2B 1358   1.239   0.708   9.243 -0.1583  0.3795  0.0915
   85loPI   C3B 1359   1.103   0.742   8.833  0.3251  0.0143  0.3575
   85loPI   C4B 1360   1.140   0.903   8.378 -0.1588  0.0773  0.1199
   86loPI    C1 1361   4.209  11.355  10.569  0.1608 -0.0014 -0.1172
   86loPI    C2 1362   4.496  11.083  10.631  0.0557 -0.0856  0.0063
   86loPI    C3 1363   4.403  11.343  10.919  0.2067  0.1318 -0.1376
   86loPI   PO4 1364   4.302  11.382  10.254 -0.2585  0.2333 -0.2144
   86loPI   GL1 1365   4.022  11.419   9.934 -0.1213  0.1762 -0.0678
   86loPI   GL2 1366   3.711  11.494  10.045  0.0010 -0.0270  0.0360
   86loPI   C1A 1367   4.218  11.576   9.639 -0.0797  0.0640  0.0252
   86loPI   C2A 1368   4.039  11.738   9.229 -0.1427 -0.1846  0.2578
   86loPI   C3A 1369   3.909  12.043   8.812  0.0129  0.2137 -0.0678
   86loPI   C4A 1370   3.755  12.452   8.584  0.1546 -0.1778  0.0957
   86loPI   C5A 1371   3.457  12.554   8.223 -0.1719 -0.1887  0.1423
   86loPI   C6A 1372   3.374  12.623   7.789  0.3736 -0.0504 -0.2315
   86loPI   C1B 1373   3.637  11.618   9.659  0.1562 -0.1450 -0.3399
   86loPI   C2B 1374   3.511  11.809   9.322  0.2644  0.1402  0.3306
   86loPI   C3B 1375   3.396  12.157   8.973 -0.0180 -0.0634  0.0274
   86loPI   C4B 1376   3.238  12.256   8.654  0.6542  0.1046 -0.3642
   87loPI    C1 1377  17.183  13.417  10.823 -0.1758  0.0146 -0.0119
   87loPI    C2 1378  17.428  13.716  10.928 -0.0264 -0.0964 -0.0414
   87loPI    C3 1379  17.335  13.431  11.192 -0.2034 -0.0018  0.0000
   87loPI   PO4 1380  17.314  13.372  10.570  0.1278 -0.0709  0.4364
   87loPI   GL1 1381  17.200  13.263  10.171  0.2740  0.2379 -0.1454
   87loPI   GL2 1382  17.592  13.183  10.082  0.1149 -0.0405  0.2789
   87loPI   C1A 1383  17.231  13.564   9.937  0.0226 -0.2616  0.0546
   87loPI   C2A 1384  17.552  13.820   9.796 -0.1820 -0.1302  0.0722
   87loPI   C3A 1385  17.602  13.945   9.378  0.0405  0.1861 -0.2339
   87loPI   C4A 1386  17.744  14.152   8.979 -0.1718 -0.2528  0.1647
   87loPI   C5A 1387  17.635  13.926   8.591  0.0398  0.0568 -0.1252
   87loPI   C6A 1388  17.774  14.184   8.170 -0.1650  0.0436  0.2141
   87loPI   C1B 1389  17.800  13.435   9.685 -0.0708  0.1283  0.0194
   87loPI   C2B 1390  17.890  13.545   9.321 -0.2420 -0.0139 -0.5247
   87loPI   C3B 1391  17.958  13.664   8.873  0.0753 -0.0661  0.4837
   87loPI   C4B 1392  18.041  13.681   8.451  0.0354 -0.0276  0.3331
   88loPI    C1 1393   3.065  17.157  10.911  0.1237 -0.0596  0.2397
   88loPI    C2 1394   2.721  17.088  11.103 -0.0953  0.3401  0.0049
   88loPI    C3 1395   3.049  17.188  11.310 -0.0987 -0.1003  0.2352
   88loPI   PO4 1396   3.181  16.919  10.795  0.0470  0.3014  0.3543
   88loPI   GL1 1397   3.344  16.777  10.357 -0.1013 -0.2738 -0.1297
   88loPI   GL2 1398   3.114  16.543  10.461  0.1092 -0.2064 -0.2612
   88loPI   C1A 1399   3.449  16.720   9.861 -0.2146  0.0224  0.0080
   88loPI   C2A 1400   3.356  16.716   9.404  0.1304 -0.1222  0.2006
   88loPI   C3A 1401   3.315  16.767   9.012  0.0964 -0.0505  0.0381
   88loPI   C4A 1402   3.198  16.857   8.560  0.1141  0.1742  0.1784
   88loPI   C5A 1403   2.968  16.636   8.160 -0.2518 -0.2504 -0.2808
   88loPI   C6A 1404   2.634  16.344   8.020 -0.0728  0.1275  0.0228
   88loPI   C1B 1405   3.047  16.450  10.002 -0.0612  0.0017  0.1008
   88loPI   C2B 1406   3.001  16.369   9.483  0.1416 -0.0930  0.0999
   88loPI   C3B 1407   2.911  16.448   9.063 -0.2015 -0.3058  0.0717
   88loPI   C4B 1408   2.838  16.508   8.626  0.1200  0.1049  0.0153
   89loPI    C1 1409   8.752   7.150  10.949 -0.3125 -0.1151  0.2358
   89loPI    C2 1410   8.658   7.335  11.291  0.2791  0.2551  0.2132
   89loPI    C3 1411   8.697   7.546  10.953 -0.0225 -0.0677 -0.0308
   89loPI   PO4 1412   9.034   7.129  10.969 -0.3460  0.0045  0.2612
   89loPI   GL1 1413   9.300   7.194  10.633  0.2063  0.1049 -0.0127
   89loPI   GL2 1414   9.317   6.929  10.492 -0.0115 -0.2966 -0.2560
   89loPI   C1A 1415   9.128   7.232  10.125  0.0662 -0.2149 -0.2437
   89loPI   C2A 1416   9.136   7.337   9.699 -0.1837 -0.2306 -0.1388
   89loPI   C3A 1417   9.154   7.277   9.372  0.1522 -0.0015 -0.0556
   89loPI   C4A 1418   9.117   7.320   8.864 -0.1126  0.3935  0.1714
   89loPI   C5A 1419   9.119   7.226   8.397  0.2163  0.1241  0.2044
   89loPI   C6A 1420   9.337   6.932   8.158 -0.0161 -0.1623 -0.1729
   89loPI   C1B 1421   9.436   6.735  10.105  0.0635  0.2047 -0.1927
   89loPI   C2B 1422   9.445   6.793   9.608 -0.1097  0.0086 -0.0162
   89loPI   C3B 1423   9.425   6.840   9.190 -0.1338  0.0358  0.1294
   89loPI   C4B 1424   9.416   6.917   8.729  0.1433 -0.0232 -0.0696
   90loPI    C1 1425   8.475  11.687  10.485  0.0922  0.3193  0.1553
   90loPI    C2 1426   8.415  11.390  10.745 -0.1492  0.2421  0.0154
   90loPI    C3 1427   8.460  11.765  10.877 -0.1270  0.1841  0.1755
   90loPI   PO4 1428   8.675  11.592  10.313  0.1176 -0.1045 -0.2546
   90loPI   GL1 1429   9.009  11.328  10.133 -0.5084  0.0826 -0.1291
   90loPI   GL2 1430   8.752  11.327   9.899 -0.0382  0.0619  0.1480
   90loPI   C1A 1431   9.190  11.301   9.715 -0.1778  0.2248 -0.2022
   90loPI   C2A 1432   9.265  11.442   9.271 -0.0799 -0.0514 -0.2648
   90loPI   C3A 1433   9.294  11.272   8.928  0.1996 -0.1055 -0.0913
   90loPI   C4A 1434   9.393  11.211   8.489  0.0683 -0.2854  0.1728
   90loPI   C5A 1435   9.449  11.245   8.055  0.1507  0.2086  0.0677
   90loPI   C6A 1436   9.212  11.430   7.696 -0.3593  0.3397 -0.2143
   90loPI   C1B 1437   8.742  11.328   9.376  0.2304  0.1091 -0.1880
   90loPI   C2B 1438   8.793  11.258   8.973  0.1570 -0.0694 -0.1088
   90loPI   C3B 1439   8.880  11.262   8.555 -0.0680 -0.1529  0.1407
   90loPI   C4B 1440   8.961  11.134   8.050  0.1554  0.0140  0.0563
   91loPI    C1 1441  13.895   0.566  10.918 -0.0102 -0.2747 -0.0106
   91loPI    C2 1442  13.796   0.479  11.296 -0.1215  0.1510  0.0638
   91loPI    C3 1443  14.154   0.639  11.214  0.0127 -0.1970 -0.0498
   91loPI   PO4 1444  13.786   0.298  10.800 -0.0645 -0.4533 -0.2827
   91loPI   GL1 1445  13.890   0.031  10.388 -0.0327  0.0140  0.1041
   91loPI   GL2 1446  14.185   0.181  10.468  0.0380 -0.0660  0.0256
   91loPI   C1A 1447  13.823  -0.203  10.032 -0.1247 -0.1524  0.0030
   91loPI   C2A 1448  13.688  -0.116   9.641  0.0635  0.1319  0.2103
   91loPI   C3A 1449  13.680   0.050   9.225  0.0004 -0.3364  0.0049
   91loPI   C4A 1450  13.794  -0.122   8.822 -0.2075  0.2335  0.0821
   91loPI   C5A 1451  13.925   0.000   8.451 -0.0051 -0.2108 -0.0587
   91loPI   C6A 1452  13.813   0.372   8.212  0.1601  0.2264 -0.2759
   91loPI   C1B 1453  14.142   0.281  10.018  0.0992 -0.0786 -0.0701
   91loPI   C2B 1454  14.097   0.285   9.729  0.0351 -0.0987  0.3562
   91loPI   C3B 1455  14.082   0.370   9.290  0.0827  0.0653  0.1332
   91loPI   C4B 1456  14.052   0.289   8.871 -0.3018  0.2012  0.0374
   92loPI    C1 1457  10.333   2.154  10.979  0.2431 -0.1283 -0.0462
   92loPI    C2 1458  10.507   2.216  11.334 -0.0099  0.2387  0.0197
   92loPI    C3 1459  10.168   2.006  11.312  0.0769  0.1017 -0.0238
   92loPI   PO4 1460  10.495   2.353  10.855  0.1565  0.2217 -0.1569
   92loPI   GL1 1461  10.296   2.327  10.463 -0.1846  0.0833  0.0987
   92loPI   GL2 1462  10.578   2.484  10.339  0.1646 -0.0124 -0.1922
   92loPI   C1A 1463  10.086   2.113  10.010 -0.0641 -0.1432 -0.0940
   92loPI   C2A 1464  10.094   2.004   9.596  0.2052 -0.2505 -0.0226
   92loPI   C3A 1465  10.326   1.928   9.195 -0.3102 -0.2149  0.1607
   92loPI   C4A 1466  10.357   1.996   8.819  0.1023 -0.1609 -0.1692
   92loPI   C5A 1467  10.074   1.926   8.405 -0.0235  0.5182  0.1540
   92loPI   C6A 1468  10.053   1.840   8.004  0.4184  0.0159 -0.1250
   92loPI   C1B 1469  10.531   2.342   9.964 -0.1467  0.3149 -0.0405
   92loPI   C2B 1470  10.531   2.175   9.587  0.0778 -0.1095 -0.0348
   92loPI   C3B 1471  10.662   2.333   9.308  0.2953 -0.1722 -0.1850
   92loPI   C4B 1472  10.732   2.364   8.846  0.0621 -0.0285 -0.1517
   93loPI    C1 1473  14.835   3.158  10.450 -0.0866  0.1302  0.0129
   93loPI    C2 1474  15.124   2.910  10.572 -0.0830  0.1350  0.0139
   93loPI    C3 1475  14.849   3.040  10.832 -0.0412  0.1909  0.0304
   93loPI   PO4 1476  14.970   3.306  10.239 -0.1313 -0.0074 -0.1045
   93loPI   GL1 1477  14.910   3.138   9.891 -0.0965 -0.0496 -0.0113
   93loPI   GL2 1478  15.025   2.834  10.050  0.1842 -0.0267 -0.0693
   93loPI   C1A 1479  14.657   2.939   9.570 -0.0815  0.0469  0.1011
   93loPI   C2A 1480  14.528   2.883   9.227 -0.2338  0.1665 -0.1524
   93loPI   C3A 1481  14.548   2.958   8.767  0.0098 -0.1875  0.0060
   93loPI   C4A 1482  14.651   3.058   8.432  0.1879 -0.0149 -0.1867
   93loPI   C5A 1483  14.772   3.263   8.061 -0.1564 -0.2782 -0.1036
   93loPI   C6A 1484  14.771   3.628   7.823  0.0439  0.2940 -0.0988
   93loPI   C1B 1485  14.805   2.540   9.805  0.1993  0.0895 -0.1871
   93loPI   C2B 1486  14.708   2.461   9.453 -0.0164 -0.1142  0.1644
   93loPI   C3B 1487  14.732   2.455   8.933 -0.1117 -0.0049 -0.1007
   93loPI   C4B 1488  14.764   2.602   8.477  0.1213  0.0396  0.0842
   94loPI    C1 1489   9.554  13.155  10.659  0.0629 -0.0410  0.0868
   94loPI    C2 1490   9.791  13.326  10.932  0.2509 -0.0686 -0.0571
   94loPI    C3 1491   9.415  13.227  11.028  0.3289 -0.1204  0.2053
   94loPI   PO4 1492   9.668  13.264  10.445  0.3476 -0.0389  0.1881
   94loPI   GL1 1493   9.975  13.591  10.303  0.2901  0.2272 -0.0576
   94loPI   GL2 1494  10.207  13.222  10.242  0.0906 -0.1031  0.0576
   94loPI   C1A 1495   9.953  13.607   9.812 -0.2237  0.4594  0.0029
   94loPI   C2A 1496  10.032  13.632   9.368 -0.0390  0.0866  0.2952
   94loPI   C3A 1497  10.000  13.578   8.898  0.0359 -0.0376  0.1676
   94loPI   C4A 1498  10.168  13.530   8.486 -0.1111  0.1671 -0.1605
   94loPI   C5A 1499  10.111  13.352   8.086 -0.1246  0.2434 -0.4313
   94loPI   C6A 1500   9.882  13.116   7.706  0.2191  0.1390  0.1048
   94loPI   C1B 1501  10.303  13.274   9.820  0.0507  0.0460 -0.1197
   94loPI   C2B 1502  10.328  13.208   9.371  0.3247 -0.0805 -0.0561
   94loPI   C3B 1503  10.272  13.095   8.986  0.0729 -0.1321  0.1146
   94loPI   C4B 1504  10.341  13.070   8.436 -0.3552  0.1602 -0.2341
   95loPI    C1 1505  11.119   7.977  10.708  0.0826  0.1250 -0.0120
   95loPI    C2 1506  10.774   7.881  10.885  0.0747  0.0770 -0.0530
   95loPI    C3 1507  10.838   8.256  10.762 -0.0370  0.0451 -0.2113
   95loPI   PO4 1508  11.134   7.827  10.493  0.0931  0.0076  0.0119
   95loPI   GL1 1509  11.284   7.731  10.019 -0.0544 -0.0385  0.1981
   95loPI   GL2 1510  11.115   7.494  10.122 -0.2425  0.0481  0.2269
   95loPI   C1A 1511  11.549   7.915   9.685  0.2654  0.2436 -0.1700
   95loPI   C2A 1512  11.583   7.759   9.219  0.2515  0.0391 -0.0304
   95loPI   C3A 1513  11.451   7.818   8.835  0.0070 -0.0155 -0.1351
   95loPI   C4A 1514  11.408   7.798   8.342 -0.0036  0.0949 -0.0993
   95loPI   C5A 1515  11.455   7.378   8.111  0.1604  0.1558  0.2915
   95loPI   C6A 1516  11.368   7.233   7.689 -0.1230 -0.1807 -0.1499
   95loPI   C1B 1517  10.817   7.376   9.788  0.0961 -0.0945 -0.2676
   95loPI   C2B 1518  10.808   7.370   9.342  0.0394 -0.1522  0.1570
   95loPI   C3B 1519  10.808   7.237   8.914  0.0330  0.2152 -0.0275
   95loPI   C4B 1520  10.636   7.265   8.400 -0.0274 -0.0382 -0.1024
   96loPI    C1 1521  11.028   4.953  10.999  0.2811  0.1620 -0.1318
   96loPI    C2 1522  10.902   4.973  11.378 -0.0123 -0.1545 -0.2073
   96loPI    C3 1523  10.840   5.281  11.130  0.2151  0.0692  0.0086
   96loPI   PO4 1524  10.980   4.740  10.834  0.1665  0.1831 -0.1511
   96loPI   GL1 1525  11.205   4.654  10.464 -0.1970  0.2168  0.4215
   96loPI   GL2 1526  11.318   4.340  10.323  0.1143  0.0919 -0.0976
   96loPI   C1A 1527  11.035   4.613  10.008 -0.0953  0.1191 -0.0384
   96loPI   C2A 1528  10.770   4.641   9.603  0.2068 -0.2723  0.0101
   96loPI   C3A 1529  10.822   4.751   9.221  0.1877 -0.0921 -0.0145
   96loPI   C4A 1530  10.793   4.674   8.789 -0.0474 -0.0530  0.1805
   96loPI   C5A 1531  11.016   4.773   8.378  0.1975  0.0447 -0.0807
   96loPI   C6A 1532  11.393   4.654   8.107 -0.2679 -0.2251 -0.7509
   96loPI   C1B 1533  11.424   3.977   9.971 -0.0547  0.1203  0.0544
   96loPI   C2B 1534  11.253   3.957   9.565 -0.1802  0.1334  0.0899
   96loPI   C3B 1535  11.327   4.025   9.160 -0.1964  0.0100 -0.0531
   96loPI   C4B 1536  11.265   4.004   8.719 -0.1628  0.2339  0.0634
   97loPI    C1 1537   2.915  17.757  10.763 -0.1926 -0.0704  0.0031
   97loPI    C2 1538   3.304  17.667  10.784 -0.1440  0.0825 -0.2022
   97loPI    C3 1539   3.083  17.681  11.117 -0.0285 -0.2340 -0.1080
   97loPI   PO4 1540   2.805  17.510  10.647 -0.0779 -0.3875 -0.0270
   97loPI   GL1 1541   2.675  17.225  10.451 -0.1538 -0.0070 -0.0118
   97loPI   GL2 1542   2.729  16.956  10.605 -0.1781  0.0534  0.1831
   97loPI   C1A 1543   2.446  17.330  10.158  0.0781 -0.0252 -0.1009
   97loPI   C2A 1544   2.559  17.160   9.768  0.2649  0.0932 -0.3478
   97loPI   C3A 1545   2.434  17.200   9.410  0.0828 -0.0830  0.2629
   97loPI   C4A 1546   2.405  17.211   8.954  0.4251  0.1500  0.0166
   97loPI   C5A 1547   2.261  17.084   8.548  0.1598 -0.0545 -0.0520
   97loPI   C6A 1548   1.997  16.872   8.355 -0.1168  0.0230 -0.0025
   97loPI   C1B 1549   2.795  16.866  10.138  0.0383  0.0982 -0.2349
   97loPI   C2B 1550   2.966  16.806   9.685  0.1574  0.0213 -0.3276
   97loPI   C3B 1551   2.879  16.926   9.281  0.1791 -0.0103  0.1022
   97loPI   C4B 1552   2.825  16.946   8.855  0.1693  0.2740  0.0989
   98loPI    C1 1553   9.794   6.095  11.013 -0.0989 -0.1764  0.2635
   98loPI    C2 1554   9.959   6.403  10.819 -0.1596 -0.2673  0.0649
   98loPI    C3 1555   9.781   6.462  11.172  0.0125 -0.1127  0.1279
   98loPI   PO4 1556   9.648   5.884  10.829 -0.1864 -0.1621  0.2060
   98loPI   GL1 1557   9.574   5.976  10.409  0.0951 -0.3870  0.1578
   98loPI   GL2 1558   9.555   6.245  10.180 -0.4413 -0.0381 -0.1867
   98loPI   C1A 1559   9.422   5.766   9.994  0.1018 -0.0327  0.0887
   98loPI   C2A 1560   9.267   5.831   9.572 -0.0265 -0.1805  0.1614
   98loPI   C3A 1561   9.384   5.889   9.183  0.5581 -0.3079 -0.0099
   98loPI   C4A 1562   9.507   6.004   8.735 -0.0637  0.1032 -0.2005
   98loPI   C5A 1563   9.453   6.431   8.577 -0.2748 -0.0347 -0.2484
   98loPI   C6A 1564   9.052   6.620   8.439 -0.1139 -0.0354 -0.2188
   98loPI   C1B 1565   9.657   6.369   9.792 -0.4839  0.1835  0.1574
   98loPI   C2B 1566   9.598   6.383   9.372  0.2487  0.3930  0.3788
   98loPI   C3B 1567   9.728   6.461   8.975  0.0517 -0.1886  0.1728
   98loPI   C4B 1568   9.983   6.396   8.617  0.1259  0.0876  0.0838
   99loPI    C1 1569   5.870   7.021  10.719 -0.0722 -0.1768 -0.1625
   99loPI    C2 1570   5.863   6.880  11.093 -0.2614 -0.0754 -0.1268
   99loPI    C3 1571   6.212   6.966  10.919 -0.1871  0.2079  0.1532
   99loPI   PO4 1572   5.708   6.893  10.574  0.1634  0.1772  0.1361
   99loPI   GL1 1573   5.638   6.855  10.143  0.0260  0.1446 -0.1069
   99loPI   GL2 1574   5.413   7.143  10.188  0.1678 -0.1089 -0.1412
   99loPI   C1A 1575   5.645   6.833   9.631 -0.1536  0.0717  0.0582
   99loPI   C2A 1576   5.691   6.767   9.120  0.0459  0.2386  0.0544
   99loPI   C3A 1577   5.825   6.813   8.777 -0.0896  0.3509 -0.3151
   99loPI   C4A 1578   5.832   6.667   8.311 -0.1116 -0.3658 -0.0351
   99loPI   C5A 1579   5.645   6.899   7.908  0.0026 -0.0662 -0.0504
   99loPI   C6A 1580   5.353   6.830   7.589  0.1863  0.0784 -0.1251
   99loPI   C1B 1581   5.508   7.263   9.804 -0.4247 -0.1541 -0.0315
   99loPI   C2B 1582   5.469   7.185   9.324  0.0812 -0.1067 -0.3065
   99loPI   C3B 1583   5.550   7.191   8.891 -0.0359 -0.0120  0.2405
   99loPI   C4B 1584   5.570   7.152   8.419 -0.0053 -0.2715 -0.2565
  100loPI    C1 1585   6.389   5.119  10.616 -0.0694 -0.0259 -0.1413
  100loPI    C2 1586   6.662   4.913  10.824 -0.1364 -0.0518 -0.0783
  100loPI    C3 1587   6.441   5.191  11.006 -0.1369 -0.0154 -0.1342
  100loPI   PO4 1588   6.396   5.148  10.318 -0.0827 -0.1991 -0.1626
  100loPI   GL1 1589   6.407   5.444  10.059 -0.4031  0.0313  0.1167
  100loPI   GL2 1590   6.474   5.767   9.951 -0.1138 -0.1985  0.0812
  100loPI   C1A 1591   6.521   5.324   9.666 -0.0332  0.0644 -0.2190
  100loPI   C2A 1592   6.579   5.408   9.348  0.3121  0.0265  0.2989
  100loPI   C3A 1593   6.634   5.501   8.974 -0.1011 -0.1599 -0.0051
  100loPI   C4A 1594   6.735   5.413   8.513 -0.0528  0.0903 -0.3596
  100loPI   C5A 1595   6.958   5.278   8.099 -0.2409 -0.2236 -0.1128
  100loPI   C6A 1596   7.357   5.256   7.956 -0.1618 -0.0221  0.2274
  100loPI   C1B 1597   6.591   5.983   9.732 -0.0932 -0.3347  0.1758
  100loPI   C2B 1598   6.821   5.937   9.341 -0.0026  0.0304  0.1227
  100loPI   C3B 1599   6.893   5.971   8.859 -0.0100 -0.0454  0.0093
  100loPI   C4B 1600   6.812   5.893   8.392 -0.0272 -0.0871  0.0974
  101loPI    C1 1601  10.408   4.402  10.950  0.0514  0.1149  0.1034
  101loPI    C2 1602  10.605   4.111  11.141 -0.1660 -0.2066 -0.1510
  101loPI    C3 1603  10.716   4.492  11.189  0.2140 -0.3399  0.0760
  101loPI   PO4 1604  10.439   4.352  10.643  0.2924  0.0506  0.0081
  101loPI   GL1 1605  10.723   4.608  10.341  0.1696  0.2247  0.2491
  101loPI   GL2 1606  10.737   4.916  10.310 -0.0185 -0.0038  0.1468
  101loPI   C1A 1607  10.502   4.425   9.998 -0.1516  0.0075  0.3071
  101loPI   C2A 1608  10.134   4.230   9.869  0.0735  0.1824 -0.1143
  101loPI   C3A 1609  10.075   4.205   9.582  0.0899  0.1213  0.4389
  101loPI   C4A 1610   9.823   4.060   9.142 -0.0867 -0.0478 -0.2751
  101loPI   C5A 1611   9.902   3.970   8.731 -0.2610 -0.1198 -0.0777
  101loPI   C6A 1612   9.817   4.001   8.287  0.1462  0.1232  0.0075
  101loPI   C1B 1613  10.587   5.012   9.927 -0.5135  0.0055 -0.0743
  101loPI   C2B 1614  10.522   5.082   9.493  0.2710 -0.1997 -0.3317
  101loPI   C3B 1615  10.337   4.932   9.137 -0.1415 -0.0622 -0.2628
  101loPI   C4B 1616  10.335   5.084   8.685  0.3171  0.2226  0.0835
  102loPI    C1 1617  10.415   3.157  11.077  0.1649  0.0602  0.0701
  102loPI    C2 1618  10.609   3.340  11.375  0.1526 -0.0599  0.1525
  102loPI    C3 1619  10.291   3.111  11.454 -0.0759  0.2014  0.0105
  102loPI   PO4 1620  10.556   3.265  10.802  0.2033  0.1883 -0.0340
  102loPI   GL1 1621  10.424   3.454  10.423  0.1592 -0.0887 -0.0485
  102loPI   GL2 1622  10.169   3.509  10.255  0.1067 -0.1445  0.0319
  102loPI   C1A 1623  10.662   3.371  10.108 -0.3954 -0.5752 -0.3360
  102loPI   C2A 1624  10.954   3.225   9.859  0.0072 -0.0209 -0.0258
  102loPI   C3A 1625  10.965   3.113   9.480 -0.1752  0.0453  0.1379
  102loPI   C4A 1626  10.998   3.089   8.978 -0.0109  0.1150 -0.0513
  102loPI   C5A 1627  10.994   3.065   8.680  0.4310  0.2123  0.2133
  102loPI   C6A 1628  10.815   2.831   8.274 -0.0074 -0.4364 -0.1836
  102loPI   C1B 1629  10.293   3.505   9.840  0.1105 -0.0242  0.0841
  102loPI   C2B 1630  10.463   3.436   9.356  0.1914  0.3781  0.0904
  102loPI   C3B 1631  10.571   3.365   8.986  0.0469  0.1376  0.2693
  102loPI   C4B 1632  10.529   3.237   8.552 -0.2868 -0.1840  0.0700
  103loPI    C1 1633   9.690  13.809  10.973  0.1654  0.1498  0.1222
  103loPI    C2 1634  10.044  13.789  11.158  0.1220  0.1739  0.2084
  103loPI    C3 1635   9.760  14.033  11.297  0.0647  0.1402  0.1507
  103loPI   PO4 1636   9.802  13.852  10.670  0.1924  0.0869 -0.1494
  103loPI   GL1 1637   9.532  13.802  10.336  0.1404 -0.0976  0.1924
  103loPI   GL2 1638   9.211  13.908  10.160 -0.0238  0.0228  0.1148
  103loPI   C1A 1639   9.670  13.957   9.993 -0.1287 -0.1776  0.0402
  103loPI   C2A 1640   9.727  13.996   9.543  0.0592  0.1881 -0.0701
  103loPI   C3A 1641   9.735  13.981   9.114  0.1694  0.0058  0.2049
  103loPI   C4A 1642   9.682  14.028   8.634  0.1823  0.1489 -0.0543
  103loPI   C5A 1643   9.683  14.354   8.353  0.1376  0.0802  0.1440
  103loPI   C6A 1644   9.979  14.552   8.140  0.0290  0.2385  0.1924
  103loPI   C1B 1645   9.053  13.913   9.824 -0.2025 -0.0589  0.1275
  103loPI   C2B 1646   9.225  13.943   9.420 -0.1295 -0.1766 -0.2395
  103loPI   C3B 1647   9.266  13.923   8.995 -0.4604 -0.2574  0.1375
  103loPI   C4B 1648   9.145  13.853   8.537  0.2813 -0.3577 -0.1533
  104loPI    C1 1649  15.694  14.139  10.809  0.0521  0.1197  0.3671
  104loPI    C2 1650  15.563  13.761  10.820 -0.1181  0.1551 -0.1608
  104loPI    C3 1651  15.946  13.842  10.900 -0.1459 -0.0885  0.2487
  104loPI   PO4 1652  15.618  14.241  10.621 -0.0656 -0.2337  0.1815
  104loPI   GL1 1653  15.840  14.410  10.222  0.3267 -0.1349  0.2169
  104loPI   GL2 1654  15.702  14.085  10.064 -0.0848  0.0833  0.3358
  104loPI   C1A 1655  15.675  14.592   9.817 -0.0151 -0.2279 -0.0052
  104loPI   C2A 1656  15.806  14.777   9.426 -0.3832  0.1867 -0.4063
  104loPI   C3A 1657  15.841  14.621   8.967  0.1564  0.1022  0.1523
  104loPI   C4A 1658  15.843  14.431   8.509 -0.2290  0.2173  0.1994
  104loPI   C5A 1659  15.590  14.216   8.242 -0.0123 -0.0935 -0.0085
  104loPI   C6A 1660  15.566  14.006   7.875 -0.0691  0.0097 -0.2492
  104loPI   C1B 1661  15.699  13.907   9.676 -0.1004  0.1320 -0.0321
  104loPI   C2B 1662  15.305  13.876   9.393 -0.0308 -0.0558  0.0061
  104loPI   C3B 1663  15.281  13.715   8.986  0.1659  0.2521 -0.0668
  104loPI   C4B 1664  15.452  13.899   8.658 -0.0411  0.1545 -0.0165
  105loPI    C1 1665  16.306   4.729  10.667 -0.1313 -0.2237  0.1877
  105loPI    C2 1666  16.119   4.895  10.979 -0.0757 -0.0165  0.1125
  105loPI    C3 1667  16.460   4.694  11.034  0.0378  0.1863  0.1618
  105loPI   PO4 1668  16.194   4.888  10.364 -0.1743  0.1174  0.1531
  105loPI   GL1 1669  16.276   5.106  10.057  0.0125  0.0545 -0.0782
  105loPI   GL2 1670  16.002   5.030   9.888  0.2660  0.1607 -0.1980
  105loPI   C1A 1671  16.468   5.095   9.584 -0.0029 -0.2580 -0.1101
  105loPI   C2A 1672  16.331   4.947   9.085 -0.1876  0.3520  0.2056
  105loPI   C3A 1673  16.380   4.684   8.721 -0.0384 -0.0985  0.1085
  105loPI   C4A 1674  16.107   4.669   8.319 -0.1095 -0.1571 -0.3152
  105loPI   C5A 1675  15.794   4.856   7.916  0.1095  0.0513 -0.0489
  105loPI   C6A 1676  15.537   4.924   7.616  0.1831 -0.2251 -0.0946
  105loPI   C1B 1677  16.058   4.809   9.477  0.1335 -0.0646 -0.0010
  105loPI   C2B 1678  15.840   4.509   9.112  0.0482 -0.1999 -0.0450
  105loPI   C3B 1679  15.832   4.280   8.783 -0.0818 -0.1126 -0.1281
  105loPI   C4B 1680  16.179   4.250   8.583 -0.0260  0.5973 -0.0652
  106loPI    C1 1681  10.376   8.200  10.989 -0.1036 -0.2680 -0.0441
  106loPI    C2 1682  10.314   7.870  11.208 -0.1067 -0.1840  0.0825
  106loPI    C3 1683  10.571   8.149  11.335 -0.2042 -0.0749  0.0427
  106loPI   PO4 1684  10.298   8.120  10.717 -0.1504 -0.0243  0.2369
  106loPI   GL1 1685  10.396   8.391  10.397 -0.2681 -0.0959  0.0594
  106loPI   GL2 1686  10.115   8.430  10.320 -0.1108  0.0582 -0.0495
  106loPI   C1A 1687  10.627   8.385   9.912 -0.0254  0.1534  0.0475
  106loPI   C2A 1688  10.788   8.513   9.603  0.0053 -0.0920  0.3137
  106loPI   C3A 1689  10.868   8.603   9.168 -0.1584 -0.2989 -0.0753
  106loPI   C4A 1690  10.939   8.646   8.735  0.1852 -0.1278  0.0512
  106loPI   C5A 1691  11.089   8.792   8.348  0.0200  0.0107 -0.0481
  106loPI   C6A 1692  11.403   9.203   8.337 -0.2750  0.4115 -0.1259
  106loPI   C1B 1693  10.109   8.271   9.919  0.0551 -0.3504 -0.1418
  106loPI   C2B 1694  10.303   8.136   9.561  0.0480 -0.2347 -0.0351
  106loPI   C3B 1695  10.175   8.115   9.160  0.0273 -0.2564 -0.0318
  106loPI   C4B 1696  10.161   8.186   8.715  0.2153  0.2409  0.1523
  107loPI    C1 1697  12.235  11.184  10.330 -0.3949  0.0171 -0.0028
  107loPI    C2 1698  11.949  10.985  10.527 -0.0320 -0.4031  0.1150
  107loPI    C3 1699  12.284  11.096  10.717 -0.2370  0.3680  0.0616
  107loPI   PO4 1700  12.196  11.438  10.214  0.2335 -0.0237  0.2084
  107loPI   GL1 1701  11.850  11.531   9.919  0.0203  0.1501  0.2092
  107loPI   GL2 1702  11.888  11.177   9.910  0.1742 -0.1732  0.0334
  107loPI   C1A 1703  11.622  11.771   9.612 -0.0326 -0.2592  0.1587
  107loPI   C2A 1704  11.440  11.834   9.163  0.0750 -0.0180  0.1034
  107loPI   C3A 1705  11.637  11.790   8.762  0.0045  0.0886 -0.1113
  107loPI   C4A 1706  11.649  11.541   8.302  0.0579  0.0662 -0.0814
  107loPI   C5A 1707  11.827  11.284   8.025 -0.0001 -0.0041  0.0028
  107loPI   C6A 1708  11.908  11.002   7.631  0.2159  0.0498 -0.2201
  107loPI   C1B 1709  11.879  11.308   9.523 -0.1934 -0.1089  0.1186
  107loPI   C2B 1710  11.892  11.354   9.055  0.1351  0.2149 -0.0695
  107loPI   C3B 1711  12.041  11.350   8.654  0.0596  0.0596 -0.0106
  107loPI   C4B 1712  12.239  11.304   8.368  0.3544  0.1349  0.1061
  108loPI    C1 1713   2.986   9.545  10.184  0.0037  0.1895  0.0277
  108loPI    C2 1714   3.220   9.550  10.508  0.1749  0.1463 -0.0942
  108loPI    C3 1715   3.196   9.219  10.284 -0.0028  0.1510 -0.0830
  108loPI   PO4 1716   2.966   9.760  10.144  0.3994  0.1846  0.0593
  108loPI   GL1 1717   2.831  10.010   9.822  0.0994 -0.0011 -0.3055
  108loPI   GL2 1718   2.611   9.660   9.799 -0.2100  0.3525 -0.0966
  108loPI   C1A 1719   2.799  10.219   9.465  0.1291  0.1415  0.0075
  108loPI   C2A 1720   2.878  10.275   9.058 -0.1485 -0.0188 -0.1077
  108loPI   C3A 1721   2.965  10.280   8.577  0.2110 -0.2471 -0.1569
  108loPI   C4A 1722   3.351  10.420   8.354  0.0725  0.2958 -0.1859
  108loPI   C5A 1723   3.552  10.804   8.242  0.2895  0.1727  0.2735
  108loPI   C6A 1724   3.346  11.101   7.957  0.1448  0.1085  0.0336
  108loPI   C1B 1725   2.674   9.774   9.369  0.2315 -0.0264 -0.1265
  108loPI   C2B 1726   2.728   9.804   9.022 -0.4984  0.1115  0.0958
  108loPI   C3B 1727   2.629   9.911   8.712 -0.0666  0.1124  0.0178
  108loPI   C4B 1728   2.637   9.884   8.239  0.0915 -0.4143  0.0228
  109loPI    C1 1729   2.140  10.237  10.642  0.0248 -0.1807  0.1593
  109loPI    C2 1730   2.121   9.933  10.901 -0.0721 -0.1940  0.1368
  109loPI    C3 1731   1.951  10.284  10.992 -0.0683 -0.1853  0.1098
  109loPI   PO4 1732   2.100  10.169  10.381 -0.1218 -0.0158 -0.3308
  109loPI   GL1 1733   2.174  10.250   9.922 -0.4057 -0.2298 -0.1982
  109loPI   GL2 1734   2.267  10.066   9.638  0.1555  0.3844  0.0128
  109loPI   C1A 1735   1.950  10.481   9.574  0.0607 -0.3725 -0.0849
  109loPI   C2A 1736   1.892  10.639   9.140  0.1142 -0.3530  0.0374
  109loPI   C3A 1737   1.667  10.873   8.726 -0.1760  0.0914 -0.0546
  109loPI   C4A 1738   1.567  11.068   8.293  0.3145  0.1921  0.0014
  109loPI   C5A 1739   1.592  11.190   7.846 -0.0083  0.0597 -0.0343
  109loPI   C6A 1740   1.897  11.248   7.541 -0.0242  0.1143  0.0854
  109loPI   C1B 1741   2.291  10.268   9.268  0.1693  0.3374  0.0053
  109loPI   C2B 1742   2.335  10.305   8.824 -0.0251  0.2612  0.0813
  109loPI   C3B 1743   2.313  10.311   8.367  0.2032  0.0042  0.0321
  109loPI   C4B 1744   2.393  10.570   7.922 -0.0520 -0.1618 -0.1267
  110loPI    C1 1745   8.078   9.915  11.098  0.1200 -0.1584  0.0834
  110loPI    C2 1746   7.755   9.679  11.112  0.0296 -0.0384  0.0349
  110loPI    C3 1747   7.912   9.824  11.450  0.1539 -0.2597  0.0734
  110loPI   PO4 1748   8.002   9.994  10.784 -0.2271 -0.3458  0.0617
  110loPI   GL1 1749   8.223   9.968  10.466 -0.2250 -0.0827  0.3203
  110loPI   GL2 1750   8.443  10.091  10.308  0.1407  0.0659  0.2347
  110loPI   C1A 1751   7.996   9.915  10.055  0.0339  0.1344  0.0177
  110loPI   C2A 1752   8.013   9.899   9.624  0.3215  0.3461 -0.0261
  110loPI   C3A 1753   8.113   9.900   9.170  0.0113 -0.2249 -0.0424
  110loPI   C4A 1754   8.166   9.919   8.685 -0.0025  0.3214 -0.2462
  110loPI   C5A 1755   8.266   9.728   8.297  0.0211  0.0333 -0.0770
  110loPI   C6A 1756   8.345   9.331   8.057  0.0614  0.0109  0.1167
  110loPI   C1B 1757   8.483  10.047   9.926 -0.1890  0.0913 -0.0989
  110loPI   C2B 1758   8.554  10.020   9.523 -0.1257  0.0627  0.1408
  110loPI   C3B 1759   8.621   9.941   9.173  0.0115  0.0345  0.0919
  110loPI   C4B 1760   8.635   9.884   8.778  0.1484  0.0776  0.0789
  111loPI    C1 1761  14.833   0.243  11.384 -0.1127 -0.0573 -0.0606
  111loPI    C2 1762  15.135  -0.017  11.353 -0.2059 -0.1547 -0.1615
  111loPI    C3 1763  14.904  -0.017  11.680  0.1063  0.1433  0.0668
  111loPI   PO4 1764  14.722   0.323  11.123 -0.0091  0.0391 -0.1409
  111loPI   GL1 1765  14.919   0.294  10.673 -0.2400  0.0882 -0.4570
  111loPI   GL2 1766  14.659   0.157  10.536  0.0649  0.0067  0.0404
  111loPI   C1A 1767  15.009   0.385  10.325 -0.4063  0.1673  0.0366
  111loPI   C2A 1768  14.981   0.391   9.926 -0.2934  0.3346  0.1935
  111loPI   C3A 1769  15.019   0.454   9.554 -0.1328 -0.1657  0.0756
  111loPI   C4A 1770  14.957   0.420   9.089 -0.1167 -0.1636  0.0417
  111loPI   C5A 1771  14.920   0.401   8.637 -0.0382  0.1573 -0.1063
  111loPI   C6A 1772  15.141   0.450   8.275 -0.1268  0.2703 -0.3068
  111loPI   C1B 1773  14.605   0.069  10.202 -0.2741 -0.3289 -0.0065
  111loPI   C2B 1774  14.623   0.085   9.765 -0.0215  0.1699 -0.0035
  111loPI   C3B 1775  14.543   0.125   9.371 -0.2703  0.0858  0.1591
  111loPI   C4B 1776  14.565   0.151   8.962 -0.4201  0.0196  0.2242
  112loPI    C1 1777   5.539  15.493  11.010  0.1195 -0.1133 -0.0224
  112loPI    C2 1778   5.713  15.672  11.323  0.0248 -0.0397 -0.0115
  112loPI    C3 1779   5.730  15.274  11.285 -0.1357 -0.0676  0.1945
  112loPI   PO4 1780   5.609  15.688  10.849  0.2461  0.2098  0.0560
  112loPI   GL1 1781   5.510  15.881  10.488 -0.1298  0.3273 -0.0067
  112loPI   GL2 1782   5.291  16.219  10.405  0.0635 -0.2426  0.1341
  112loPI   C1A 1783   5.470  15.653  10.144 -0.0265 -0.1044  0.1454
  112loPI   C2A 1784   5.306  15.656   9.746  0.3332 -0.0177  0.1747
  112loPI   C3A 1785   5.347  15.617   9.367 -0.1090 -0.1747  0.0912
  112loPI   C4A 1786   5.417  15.574   8.920  0.2573 -0.0168 -0.3278
  112loPI   C5A 1787   5.416  15.774   8.566 -0.1662  0.2536  0.0176
  112loPI   C6A 1788   5.160  15.768   8.158  0.1375 -0.0376  0.1961
  112loPI   C1B 1789   5.293  16.124   9.962  0.0409 -0.1336  0.1219
  112loPI   C2B 1790   5.265  16.131   9.448 -0.0599 -0.1776  0.0773
  112loPI   C3B 1791   5.248  16.060   9.072 -0.1718  0.2947 -0.3700
  112loPI   C4B 1792   5.198  16.188   8.657 -0.0521 -0.1940 -0.1280
  113loPI    C1 1793   4.035  17.167  11.014 -0.1918 -0.0051 -0.1187
  113loPI    C2 1794   4.259  16.836  10.996 -0.2510 -0.0450 -0.1276
  113loPI    C3 1795   4.111  16.959  11.347  0.0392  0.1526 -0.0705
  113loPI   PO4 1796   4.231  17.378  10.934  0.1089 -0.2452  0.2217
  113loPI   GL1 1797   4.480  17.408  10.542 -0.1226  0.0421  0.1729
  113loPI   GL2 1798   4.453  17.044  10.562  0.0385  0.1468  0.0658
  113loPI   C1A 1799   4.583  17.321  10.145 -0.1922  0.1853  0.1643
  113loPI   C2A 1800   4.611  17.224   9.768 -0.2100  0.0943  0.3129
  113loPI   C3A 1801   4.637  17.252   9.263  0.0134 -0.0697 -0.0600
  113loPI   C4A 1802   4.484  17.310   9.024 -0.0870  0.3389  0.0260
  113loPI   C5A 1803   4.506  17.473   8.567 -0.1573  0.1372  0.0378
  113loPI   C6A 1804   4.611  18.000   8.462 -0.1493 -0.0049  0.0232
  113loPI   C1B 1805   4.268  16.937  10.218 -0.0332 -0.1888  0.2072
  113loPI   C2B 1806   4.188  16.918   9.805  0.1896 -0.3546  0.1535
  113loPI   C3B 1807   4.206  16.937   9.353 -0.0460  0.0765  0.1091
  113loPI   C4B 1808   4.138  16.996   8.977 -0.3308 -0.1095  0.1276
  114loPI    C1 1809  13.395   8.460  10.599 -0.1359 -0.0302 -0.0763
  114loPI    C2 1810  13.715   8.462  10.359 -0.0515 -0.0152  0.0354
  114loPI    C3 1811  13.758   8.381  10.748 -0.1704  0.0830  0.0696
  114loPI   PO4 1812  13.241   8.310  10.417  0.0506 -0.1474 -0.2491
  114loPI   GL1 1813  13.338   8.405   9.986 -0.0334 -0.0742  0.0953
  114loPI   GL2 1814  13.356   8.056  10.061  0.0690  0.1289 -0.2079
  114loPI   C1A 1815  13.123   8.634   9.659  0.2967  0.1966  0.3316
  114loPI   C2A 1816  13.105   8.673   9.308  0.2636 -0.1545 -0.1558
  114loPI   C3A 1817  13.017   8.548   8.850  0.2308  0.1451  0.0075
  114loPI   C4A 1818  13.240   8.477   8.404  0.0054 -0.1020 -0.2225
  114loPI   C5A 1819  13.432   8.203   8.127 -0.1048  0.3690 -0.0639
  114loPI   C6A 1820  13.756   8.027   7.711 -0.2358  0.2671 -0.1430
  114loPI   C1B 1821  12.963   8.135   9.812  0.0725 -0.0722 -0.3129
  114loPI   C2B 1822  12.813   8.289   9.451 -0.0114  0.1120  0.1900
  114loPI   C3B 1823  12.827   8.158   9.084 -0.0443  0.0442 -0.2326
  114loPI   C4B 1824  12.814   8.103   8.595  0.1493  0.1165 -0.2734
  115loPI    C1 1825  10.643  10.703  10.974  0.0056  0.0931 -0.0162
  115loPI    C2 1826  10.589  10.332  11.114  0.1938  0.0466 -0.0640
  115loPI    C3 1827  10.540  10.646  11.357 -0.4912  0.0238 -0.1531
  115loPI   PO4 1828  10.834  10.753  10.771  0.0333  0.1247 -0.1230
  115loPI   GL1 1829  10.835  10.435  10.288  0.0992 -0.0151  0.1118
  115loPI   GL2 1830  10.734  10.738  10.262 -0.0101  0.0836 -0.4375
  115loPI   C1A 1831  10.787  10.410   9.873 -0.0772  0.0042 -0.2285
  115loPI   C2A 1832  10.786  10.493   9.355  0.1180  0.0036 -0.3799
  115loPI   C3A 1833  10.978  10.386   8.973  0.1347 -0.0394 -0.3573
  115loPI   C4A 1834  10.875  10.444   8.577  0.2253  0.0086 -0.0374
  115loPI   C5A 1835  10.868  10.499   8.086  0.0800  0.0614 -0.0345
  115loPI   C6A 1836  10.894  10.655   7.660  0.0909 -0.2741  0.1778
  115loPI   C1B 1837  10.531  10.909   9.860 -0.1446 -0.1575 -0.1306
  115loPI   C2B 1838  10.553  10.952   9.448  0.0774  0.0581  0.0865
  115loPI   C3B 1839  10.640  10.841   8.993  0.1732 -0.1726  0.2968
  115loPI   C4B 1840  10.614  10.914   8.519  0.2235 -0.0880 -0.0046
  116loPI    C1 1841  13.187   9.854  10.857  0.1146 -0.0330 -0.0191
  116loPI    C2 1842  13.552   9.840  11.021  0.0631  0.0360  0.1026
  116loPI    C3 1843  13.431  10.170  10.830  0.1142 -0.0358 -0.0555
  116loPI   PO4 1844  13.177   9.598  10.688 -0.0230 -0.2261 -0.0775
  116loPI   GL1 1845  13.209   9.581  10.377 -0.1775  0.0164  0.0057
  116loPI   GL2 1846  13.480   9.347  10.282 -0.0305  0.2011  0.0740
  116loPI   C1A 1847  13.129   9.546   9.937 -0.0776 -0.0814  0.0155
  116loPI   C2A 1848  12.795   9.604   9.690  0.1542  0.0864  0.0297
  116loPI   C3A 1849  12.553   9.604   9.358 -0.0168  0.3798 -0.1068
  116loPI   C4A 1850  12.498   9.639   8.846  0.3113  0.0448 -0.2679
  116loPI   C5A 1851  12.455   9.434   8.477 -0.2217  0.0043 -0.3909
  116loPI   C6A 1852  12.587   9.246   8.196 -0.0137 -0.0118 -0.3786
  116loPI   C1B 1853  13.556   9.191   9.852  0.1312 -0.2115 -0.1016
  116loPI   C2B 1854  13.314   9.085   9.497 -0.0776 -0.3750 -0.0686
  116loPI   C3B 1855  13.143   9.097   8.965  0.0150  0.3190  0.3813
  116loPI   C4B 1856  12.994   8.923   8.524  0.0278  0.1640  0.1431
  117loPI    C1 1857  16.417   9.029  10.398 -0.2518  0.0346  0.0139
  117loPI    C2 1858  16.382   8.964  10.791  0.0134  0.1521  0.0590
  117loPI    C3 1859  16.139   9.224  10.609 -0.2138 -0.0185  0.1141
  117loPI   PO4 1860  16.504   8.827  10.278 -0.1303 -0.0893 -0.0152
  117loPI   GL1 1861  16.697   8.869   9.906  0.0061  0.0645  0.1802
  117loPI   GL2 1862  16.701   9.173   9.926  0.2037 -0.4259 -0.1320
  117loPI   C1A 1863  16.595   8.586   9.603 -0.2907  0.0682  0.0894
  117loPI   C2A 1864  16.543   8.579   9.207  0.1832 -0.1589 -0.0488
  117loPI   C3A 1865  16.465   8.725   8.781 -0.1497 -0.0689 -0.1362
  117loPI   C4A 1866  16.156   8.833   8.506  0.3637  0.1542 -0.1941
  117loPI   C5A 1867  15.913   8.650   8.288  0.0922 -0.0235  0.0118
  117loPI   C6A 1868  15.569   8.630   8.071 -0.0263 -0.0045 -0.2332
  117loPI   C1B 1869  16.661   9.132   9.465  0.2536 -0.0015  0.0553
  117loPI   C2B 1870  16.606   9.195   9.012 -0.0787 -0.0859  0.2486
  117loPI   C3B 1871  16.462   9.219   8.639  0.1959 -0.0441 -0.1616
  117loPI   C4B 1872  16.580   8.919   8.334  0.2840 -0.2524  0.0983
  118loPI    C1 1873   1.047   7.400  10.434  0.0015 -0.1091 -0.0510
  118loPI    C2 1874   1.261   7.275  10.748 -0.0312 -0.0779 -0.0163
  118loPI    C3 1875   0.981   7.557  10.796 -0.0125 -0.0485 -0.0797
  118loPI   PO4 1876   1.177   7.474  10.265  0.1825  0.1189  0.0377
  118loPI   GL1 1877   1.355   7.123   9.986  0.1211 -0.1103 -0.1478
  118loPI   GL2 1878   1.262   6.949  10.227  0.0808 -0.3141 -0.1213
  118loPI   C1A 1879   1.256   7.061   9.505  0.1187  0.1171  0.1334
  118loPI   C2A 1880   1.342   7.033   9.119 -0.1369  0.0193  0.2057
  118loPI   C3A 1881   1.173   6.983   8.632 -0.0659 -0.2465 -0.0992
  118loPI   C4A 1882   1.229   7.063   8.197 -0.3207 -0.1379 -0.0967
  118loPI   C5A 1883   1.418   6.865   7.793  0.0298 -0.1728 -0.0966
  118loPI   C6A 1884   1.423   6.946   7.397 -0.1235  0.1843 -0.1315
  118loPI   C1B 1885   1.090   6.671   9.817 -0.3306 -0.0903  0.2493
  118loPI   C2B 1886   1.161   6.587   9.384  0.0231 -0.0703  0.0097
  118loPI   C3B 1887   1.123   6.591   8.936  0.0068  0.1037 -0.0517
  118loPI   C4B 1888   1.166   6.489   8.474  0.1093 -0.2215 -0.2001
  119loPI    C1 1889  10.072  16.272  10.693  0.2560 -0.0666  0.1064
  119loPI    C2 1890   9.836  16.193  11.006  0.0277 -0.0722 -0.0647
  119loPI    C3 1891  10.043  16.535  10.993 -0.1776  0.0551 -0.0343
  119loPI   PO4 1892   9.887  16.136  10.485  0.0154 -0.0039  0.2679
  119loPI   GL1 1893   9.557  16.053  10.215 -0.0135 -0.1582  0.1069
  119loPI   GL2 1894   9.552  16.380  10.134  0.0756  0.1944 -0.1078
  119loPI   C1A 1895   9.500  15.828   9.820  0.0507 -0.0535  0.1148
  119loPI   C2A 1896   9.602  15.841   9.454 -0.0543  0.1012 -0.0277
  119loPI   C3A 1897   9.729  15.837   9.075  0.2497 -0.0506  0.2532
  119loPI   C4A 1898   9.634  15.770   8.587  0.0740 -0.1269 -0.0454
  119loPI   C5A 1899   9.907  15.933   8.144 -0.1661 -0.0012 -0.0128
  119loPI   C6A 1900  10.160  16.106   7.835  0.3542  0.3232  0.3740
  119loPI   C1B 1901   9.815  16.218   9.802 -0.2170 -0.2965 -0.2559
  119loPI   C2B 1902   9.955  16.277   9.536  0.0583 -0.4460 -0.2345
  119loPI   C3B 1903   9.989  16.287   9.087  0.0561 -0.1786 -0.1994
  119loPI   C4B 1904   9.964  16.189   8.598 -0.3219 -0.0333 -0.0297
  120loPI    C1 1905  17.643   6.541  10.995  0.1196  0.0619 -0.1261
  120loPI    C2 1906  17.984   6.365  10.881  0.0418 -0.3367  0.2278
  120loPI    C3 1907  17.841   6.305  11.250 -0.2974  0.0090  0.1601
  120loPI   PO4 1908  17.507   6.439  10.771 -0.0580  0.1827 -0.2430
  120loPI   GL1 1909  17.363   6.587  10.359  0.1188 -0.1623  0.0450
  120loPI   GL2 1910  17.430   6.360  10.203  0.2352  0.3010  0.1446
  120loPI   C1A 1911  17.021   6.690   9.955  0.0166 -0.1736  0.1784
  120loPI   C2A 1912  17.002   6.613   9.548  0.0530 -0.2359  0.0521
  120loPI   C3A 1913  17.043   6.641   9.095  0.0518 -0.1692  0.3827
  120loPI   C4A 1914  17.220   6.602   8.645  0.1539 -0.2500  0.2202
  120loPI   C5A 1915  17.083   6.506   8.275 -0.0665 -0.2127 -0.0350
  120loPI   C6A 1916  16.997   6.668   7.941 -0.0874 -0.0105  0.0575
  120loPI   C1B 1917  17.463   6.690   9.735  0.1309  0.1170  0.1981
  120loPI   C2B 1918  17.371   6.926   9.286 -0.0463 -0.0865  0.0229
  120loPI   C3B 1919  17.679   6.802   8.877  0.1313  0.1511 -0.0386
  120loPI   C4B 1920  17.687   6.822   8.535  0.3491 -0.0914  0.3193
  121loPI    C1 1921  18.345   7.807  10.585  0.0731  0.0280  0.0217
  121loPI    C2 1922  18.622   8.076  10.692 -0.0528  0.1002  0.1702
  121loPI    C3 1923  18.339   7.965  10.953 -0.1116 -0.0391  0.0487
  121loPI   PO4 1924  18.206   7.960  10.394 -0.0357  0.2576  0.0317
  121loPI   GL1 1925  18.235   8.006   9.888  0.0804  0.0482  0.0068
  121loPI   GL2 1926  18.026   8.123   9.720 -0.0214  0.2897  0.0160
  121loPI   C1A 1927  18.524   7.803   9.522  0.0571  0.0098  0.0954
  121loPI   C2A 1928  18.651   7.792   9.184  0.2104 -0.1733  0.2721
  121loPI   C3A 1929  18.723   8.122   8.841 -0.1072 -0.0712  0.0382
  121loPI   C4A 1930  18.741   8.205   8.378 -0.4114  0.2386 -0.2587
  121loPI   C5A 1931  18.836   8.107   7.993  0.0078 -0.2484  0.0178
  121loPI   C6A 1932  18.911   7.756   7.703  0.2238  0.1053 -0.1083
  121loPI   C1B 1933  18.152   8.130   9.322  0.0503 -0.0914  0.2081
  121loPI   C2B 1934  18.238   8.066   8.904  0.0699  0.1391  0.1482
  121loPI   C3B 1935  18.311   8.019   8.578 -0.2083  0.2120  0.0796
  121loPI   C4B 1936  18.433   7.855   8.250  0.1716  0.0022  0.3369
  122loPI    C1 1937   1.751  13.222  10.592  0.2381 -0.1294 -0.0542
  122loPI    C2 1938   1.810  13.462  10.906 -0.0849 -0.1827  0.0498
  122loPI    C3 1939   2.118  13.359  10.673  0.1894 -0.2730  0.4417
  122loPI   PO4 1940   1.424  13.210  10.374  0.1253  0.4242 -0.1445
  122loPI   GL1 1941   1.291  13.226   9.972 -0.1493 -0.4815  0.0035
  122loPI   GL2 1942   1.003  13.137   9.849  0.4614  0.2344 -0.0232
  122loPI   C1A 1943   1.586  13.104   9.735  0.0848 -0.2791  0.6749
  122loPI   C2A 1944   1.809  13.134   9.375  0.1610 -0.0978  0.2753
  122loPI   C3A 1945   1.679  13.076   9.009 -0.2079 -0.0156  0.1353
  122loPI   C4A 1946   1.585  13.114   8.602 -0.4526 -0.0156 -0.2524
  122loPI   C5A 1947   1.631  13.218   8.143  0.2140  0.3026 -0.2307
  122loPI   C6A 1948   1.553  13.448   7.684  0.3408  0.0278  0.1082
  122loPI   C1B 1949   0.997  13.222   9.538  0.0573  0.2821 -0.0560
  122loPI   C2B 1950   1.157  13.204   9.077  0.0363 -0.2527  0.1629
  122loPI   C3B 1951   1.157  13.358   8.637  0.2719  0.0501 -0.0516
  122loPI   C4B 1952   1.135  13.158   8.195  0.1462  0.2221  0.0106
  123loPI    C1 1953  14.806   1.613  10.933  0.0504  0.0572  0.0939
  123loPI    C2 1954  14.528   1.513  11.202 -0.1608  0.0915 -0.1083
  123loPI    C3 1955  14.755   1.837  11.261  0.3172 -0.3164  0.3992
  123loPI   PO4 1956  14.536   1.582  10.538  0.0139  0.1805  0.0629
  123loPI   GL1 1957  14.480   1.880  10.215  0.0255  0.0169 -0.1373
  123loPI   GL2 1958  14.368   2.217  10.092  0.0598  0.2926  0.1549
  123loPI   C1A 1959  14.398   1.652   9.879  0.2703  0.0816 -0.1248
  123loPI   C2A 1960  14.241   1.638   9.506 -0.1096 -0.0368  0.3280
  123loPI   C3A 1961  14.380   1.638   9.003 -0.0033  0.2283 -0.1201
  123loPI   C4A 1962  14.416   1.597   8.647 -0.2887  0.0531  0.2304
  123loPI   C5A 1963  14.417   1.524   8.202  0.0781  0.0640 -0.0121
  123loPI   C6A 1964  14.614   1.696   7.861 -0.0840 -0.3836 -0.0134
  123loPI   C1B 1965  14.305   2.110   9.688  0.0121  0.2520 -0.0920
  123loPI   C2B 1966  14.309   2.137   9.360 -0.0266  0.2508  0.0466
  123loPI   C3B 1967  14.240   2.144   9.006  0.1651  0.0590  0.0680
  123loPI   C4B 1968  14.374   2.221   8.622 -0.1873  0.1800 -0.1873
  124loPI    C1 1969  11.041  12.793  10.889  0.2696  0.2311 -0.0321
  124loPI    C2 1970  10.724  12.836  11.129  0.0728 -0.0335 -0.2388
  124loPI    C3 1971  11.089  12.793  11.286 -0.0100  0.1317  0.0040
  124loPI   PO4 1972  10.993  12.941  10.691 -0.0015  0.0712 -0.5129
  124loPI   GL1 1973  11.125  13.080  10.365 -0.1419  0.1848 -0.1405
  124loPI   GL2 1974  11.466  12.879  10.184  0.0320  0.0462  0.0608
  124loPI   C1A 1975  11.284  13.184   9.885  0.1408 -0.2076  0.2849
  124loPI   C2A 1976  11.353  13.175   9.400 -0.0210  0.0586  0.2090
  124loPI   C3A 1977  11.388  13.119   8.974  0.1469 -0.1257 -0.1752
  124loPI   C4A 1978  11.471  13.118   8.569  0.0304  0.0236 -0.1751
  124loPI   C5A 1979  11.551  13.023   8.141  0.0158 -0.0579 -0.1394
  124loPI   C6A 1980  11.349  12.961   7.786  0.0272  0.0855  0.0375
  124loPI   C1B 1981  11.545  12.724   9.845  0.2865 -0.0896  0.3532
  124loPI   C2B 1982  11.551  12.714   9.397  0.0570  0.3855  0.0710
  124loPI   C3B 1983  11.616  12.677   8.957 -0.4043 -0.2461 -0.1040
  124loPI   C4B 1984  11.772  12.628   8.497  0.1549  0.4431  0.1829
  125loPI    C1 1985  16.149  10.883  10.481 -0.1263 -0.0808 -0.1291
  125loPI    C2 1986  15.864  10.825  10.756  0.0268 -0.0895  0.0296
  125loPI    C3 1987  16.243  10.729  10.838  0.0655 -0.1445 -0.2060
  125loPI   PO4 1988  16.036  11.050  10.326 -0.0791  0.2584  0.2902
  125loPI   GL1 1989  15.928  11.037   9.926 -0.0625  0.2758 -0.1527
  125loPI   GL2 1990  16.157  11.051   9.807  0.0207  0.1178  0.1348
  125loPI   C1A 1991  15.783  11.383   9.525  0.0394 -0.1096 -0.1862
  125loPI   C2A 1992  15.905  11.599   9.113 -0.0672  0.0618 -0.3197
  125loPI   C3A 1993  15.886  11.498   8.689  0.0596  0.1517  0.1806
  125loPI   C4A 1994  15.782  11.361   8.269 -0.1503 -0.1155 -0.2504
  125loPI   C5A 1995  15.365  11.444   8.020 -0.1750  0.1936  0.1818
  125loPI   C6A 1996  14.966  11.387   7.759  0.2327  0.0297  0.2673
  125loPI   C1B 1997  16.269  11.391   9.617 -0.0648  0.1236  0.0896
  125loPI   C2B 1998  16.357  11.648   9.212  0.2706 -0.0603  0.1480
  125loPI   C3B 1999  16.364  11.727   8.786 -0.0903  0.1677  0.1218
  125loPI   C4B 2000  16.237  12.020   8.451  0.3808 -0.1647  0.1562
  126loPI    C1 2001  11.523   7.553  10.760 -0.1034 -0.2599  0.1595
  126loPI    C2 2002  11.185   7.543  10.974 -0.1259  0.1168  0.1487
  126loPI    C3 2003  11.464   7.818  11.053  0.0730 -0.0379 -0.0022
  126loPI   PO4 2004  11.412   7.344  10.487  0.2017  0.1805  0.0740
  126loPI   GL1 2005  11.580   7.234  10.180 -0.1309 -0.2426  0.2279
  126loPI   GL2 2006  11.725   7.579  10.199  0.0096  0.0459  0.4887
  126loPI   C1A 2007  11.455   7.303   9.823  0.0449  0.0504  0.1047
  126loPI   C2A 2008  11.187   7.616   9.562  0.0839  0.0259  0.3439
  126loPI   C3A 2009  11.021   7.787   9.094  0.1215 -0.0424  0.0802
  126loPI   C4A 2010  10.848   7.648   8.695  0.0428 -0.1002  0.1282
  126loPI   C5A 2011  11.221   7.340   8.598  0.2270 -0.4299 -0.3864
  126loPI   C6A 2012  11.411   7.036   8.762 -0.1784 -0.0995  0.1767
  126loPI   C1B 2013  11.862   7.599   9.835  0.0496  0.3288  0.0227
  126loPI   C2B 2014  11.991   7.816   9.593 -0.1394  0.2138  0.0471
  126loPI   C3B 2015  12.142   7.787   9.177  0.1299 -0.0100  0.0536
  126loPI   C4B 2016  12.033   7.810   8.792 -0.1052  0.0192  0.0578
  127loPI    C1 2017  16.102   0.073  11.022 -0.0476  0.1726 -0.3631
  127loPI    C2 2018  16.288   0.352  10.804  0.0341  0.2811 -0.1581
  127loPI    C3 2019  16.275   0.385  11.202 -0.1493  0.1069 -0.1473
  127loPI   PO4 2020  15.958   0.052  10.945 -0.0171  0.0244  0.0130
  127loPI   GL1 2021  15.830   0.123  10.478 -0.0585 -0.2681  0.1656
  127loPI   GL2 2022  15.528   0.254  10.424 -0.0667 -0.0469  0.0304
  127loPI   C1A 2023  15.959   0.063  10.043  0.0278  0.1882 -0.0849
  127loPI   C2A 2024  15.969   0.118   9.630  0.1103  0.1686  0.0267
  127loPI   C3A 2025  15.973   0.003   9.167  0.0227 -0.1308  0.2868
  127loPI   C4A 2026  15.944   0.020   8.769 -0.5185 -0.1063  0.0627
  127loPI   C5A 2027  16.018   0.003   8.346  0.0580 -0.1387 -0.2399
  127loPI   C6A 2028  16.307   0.285   8.069 -0.1616 -0.2176 -0.0925
  127loPI   C1B 2029  15.500   0.300   9.924  0.1053 -0.2568 -0.0285
  127loPI   C2B 2030  15.491   0.224   9.410 -0.6451 -0.0938  0.2077
  127loPI   C3B 2031  15.542   0.245   8.984  0.2205 -0.1053 -0.1792
  127loPI   C4B 2032  15.593   0.242   8.488 -0.1137 -0.1337 -0.1321
  128loPI    C1 2033  14.232   3.907  10.463  0.1676 -0.0429 -0.0699
  128loPI    C2 2034  14.411   3.946  10.818  0.1477 -0.1119 -0.0522
  128loPI    C3 2035  14.021   4.028  10.781  0.1635 -0.0454 -0.0718
  128loPI   PO4 2036  14.389   3.988  10.319 -0.1273  0.1960  0.1073
  128loPI   GL1 2037  14.592   3.925   9.951 -0.2690 -0.0960 -0.0744
  128loPI   GL2 2038  14.558   3.583  10.098 -0.0408  0.3754 -0.2325
  128loPI   C1A 2039  14.327   3.913   9.529 -0.4103 -0.0879  0.1209
  128loPI   C2A 2040  14.258   4.119   9.233 -0.0647  0.3355  0.2625
  128loPI   C3A 2041  14.512   4.031   8.839  0.0309 -0.2127 -0.1530
  128loPI   C4A 2042  14.528   4.133   8.489  0.0140  0.3054  0.2836
  128loPI   C5A 2043  14.550   4.264   8.018 -0.2312  0.2137  0.0589
  128loPI   C6A 2044  14.395   4.448   7.661  0.0726  0.1093 -0.1326
  128loPI   C1B 2045  14.518   3.483   9.703  0.2909 -0.2099  0.1587
  128loPI   C2B 2046  14.563   3.576   9.308  0.3753 -0.1071 -0.0343
  128loPI   C3B 2047  14.586   3.536   8.791  0.2272 -0.0870 -0.1950
  128loPI   C4B 2048  14.669   3.587   8.398  0.2453 -0.1057  0.0686
  129loPI    C1 2049   9.070  13.126  10.596  0.2831  0.1349  0.0623
  129loPI    C2 2050   9.024  12.951  10.953  0.1582  0.2653  0.1111
  129loPI    C3 2051   8.908  13.330  10.899 -0.1877  0.1255 -0.1735
  129loPI   PO4 2052   8.943  12.950  10.360 -0.0310 -0.0880  0.0781
  129loPI   GL1 2053   8.777  13.184  10.107  0.4243  0.3110  0.3677
  129loPI   GL2 2054   8.592  12.897   9.967  0.1168  0.2853  0.0685
  129loPI   C1A 2055   8.925  13.391   9.748  0.0916 -0.0248  0.1534
  129loPI   C2A 2056   8.934  13.556   9.360 -0.3145 -0.1839  0.0370
  129loPI   C3A 2057   8.950  13.385   8.975 -0.2034  0.2284  0.1373
  129loPI   C4A 2058   8.946  13.177   8.614  0.0927 -0.1265 -0.3229
  129loPI   C5A 2059   8.803  12.882   8.280  0.0774 -0.0414 -0.2093
  129loPI   C6A 2060   8.658  12.815   7.845  0.0851  0.0183 -0.0501
  129loPI   C1B 2061   8.450  12.595   9.845 -0.2825  0.3176 -0.0873
  129loPI   C2B 2062   8.243  12.333   9.549 -0.0069  0.1825 -0.1090
  129loPI   C3B 2063   8.169  12.089   9.225  0.1752  0.2274  0.2042
  129loPI   C4B 2064   8.128  12.049   8.758  0.0800 -0.0229 -0.0997
  130loPI    C1 2065   5.163   7.358  10.826 -0.1325 -0.0759  0.0215
  130loPI    C2 2066   5.426   7.070  10.916 -0.1853 -0.1517 -0.0646
  130loPI    C3 2067   5.426   7.413  11.122 -0.1337 -0.2200  0.0501
  130loPI   PO4 2068   5.137   7.461  10.575 -0.2110  0.0412  0.2736
  130loPI   GL1 2069   5.052   7.692  10.307 -0.1403  0.1959 -0.2686
  130loPI   GL2 2070   5.383   7.773  10.305  0.0777  0.2162  0.0625
  130loPI   C1A 2071   5.173   7.641   9.870  0.3246  0.2917  0.2707
  130loPI   C2A 2072   5.128   7.531   9.459 -0.1957  0.0086 -0.1704
  130loPI   C3A 2073   5.217   7.582   9.088  0.1037 -0.0452  0.2931
  130loPI   C4A 2074   5.339   7.581   8.657 -0.4077 -0.0375 -0.0216
  130loPI   C5A 2075   5.438   7.636   8.192  0.2554 -0.0118 -0.1147
  130loPI   C6A 2076   5.475   7.882   7.852  0.0946  0.3173  0.1324
  130loPI   C1B 2077   5.718   7.713  10.031 -0.0525 -0.0278 -0.0684
  130loPI   C2B 2078   5.664   7.659   9.509 -0.1259 -0.2492  0.1945
  130loPI   C3B 2079   5.692   7.652   9.096  0.0812  0.0102  0.0913
  130loPI   C4B 2080   5.823   7.582   8.672 -0.3271 -0.0206 -0.0089
  131loPI    C1 2081   3.794   6.447  10.839  0.0232 -0.1943  0.0537
  131loPI    C2 2082   3.677   6.382  11.216 -0.1908 -0.3304 -0.0341
  131loPI    C3 2083   3.439   6.583  10.965  0.2117  0.3056  0.0690
  131loPI   PO4 2084   3.882   6.204  10.756 -0.2362 -0.0290  0.3604
  131loPI   GL1 2085   4.017   6.071  10.346  0.0328  0.1566  0.3176
  131loPI   GL2 2086   3.802   6.066  10.117  0.2582 -0.0685  0.0828
  131loPI   C1A 2087   4.132   6.354  10.052  0.2302 -0.2425 -0.2695
  131loPI   C2A 2088   4.444   6.248   9.672  0.0594 -0.0156 -0.0256
  131loPI   C3A 2089   4.400   6.240   9.196 -0.0165 -0.0252  0.1859
  131loPI   C4A 2090   4.537   6.233   8.757 -0.0494  0.2141 -0.3218
  131loPI   C5A 2091   4.616   6.152   8.406  0.0566  0.0449  0.2272
  131loPI   C6A 2092   4.658   6.028   8.058  0.1459  0.0236  0.1591
  131loPI   C1B 2093   4.151   5.902   9.888 -0.1070  0.1505  0.0402
  131loPI   C2B 2094   4.143   5.794   9.494 -0.0803  0.1456  0.0662
  131loPI   C3B 2095   4.233   5.766   9.059  0.2551 -0.0990 -0.1786
  131loPI   C4B 2096   4.219   5.699   8.602  0.0042  0.2916  0.0787
  132loPI    C1 2097  18.253  14.194  10.929 -0.0934  0.0383  0.0071
  132loPI    C2 2098  18.526  13.903  10.897  0.1216  0.2303  0.0677
  132loPI    C3 2099  18.379  14.001  11.256  0.1883  0.3207  0.0709
  132loPI   PO4 2100  18.406  14.366  10.723  0.0077  0.1084 -0.0099
  132loPI   GL1 2101  18.365  14.381  10.321  0.2581  0.0188 -0.1286
  132loPI   GL2 2102  18.572  14.543  10.158  0.2169  0.2546  0.0639
  132loPI   C1A 2103  18.385  14.204   9.889  0.1725  0.0632  0.3099
  132loPI   C2A 2104  18.291  14.340   9.461 -0.1594 -0.0981 -0.0129
  132loPI   C3A 2105  18.133  14.524   9.001  0.1135 -0.0386  0.0589
  132loPI   C4A 2106  18.083  14.567   8.565 -0.2151  0.1287  0.3176
  132loPI   C5A 2107  17.898  14.644   8.106  0.0072 -0.2040 -0.0540
  132loPI   C6A 2108  17.647  14.573   7.845  0.0352 -0.1008 -0.0633
  132loPI   C1B 2109  18.529  14.677   9.783  0.2117 -0.1531 -0.0022
  132loPI   C2B 2110  18.453  14.803   9.382  0.2046  0.0076  0.0887
  132loPI   C3B 2111  18.520  14.811   9.066 -0.1486  0.0371 -0.0504
  132loPI   C4B 2112  18.552  14.859   8.638 -0.0028  0.0693 -0.0012
  133loPI    C1 2113  14.407  12.353  10.565 -0.0489  0.0693 -0.1022
  133loPI    C2 2114  14.697  12.611  10.661 -0.1799  0.2004 -0.0542
  133loPI    C3 2115  14.569  12.345  10.931  0.1750 -0.1312 -0.2030
  133loPI   PO4 2116  14.215  12.474  10.469 -0.2252 -0.0253 -0.0685
  133loPI   GL1 2117  14.271  12.725  10.105 -0.1313 -0.0231 -0.1953
  133loPI   GL2 2118  14.618  12.787  10.188  0.2158  0.2881  0.1209
  133loPI   C1A 2119  14.172  12.800   9.714 -0.0351  0.0242 -0.0184
  133loPI   C2A 2120  14.325  12.547   9.323  0.3274  0.2988  0.0092
  133loPI   C3A 2121  14.379  12.652   8.934  0.0736 -0.2480  0.2345
  133loPI   C4A 2122  14.430  12.643   8.489  0.0888 -0.2376 -0.2320
  133loPI   C5A 2123  14.743  12.849   8.231 -0.0809  0.2727  0.0481
  133loPI   C6A 2124  15.129  12.927   7.965  0.2556  0.0090  0.0691
  133loPI   C1B 2125  14.699  12.696   9.774  0.0494 -0.2167  0.1805
  133loPI   C2B 2126  14.689  12.881   9.303  0.0640 -0.2508 -0.0230
  133loPI   C3B 2127  14.452  13.254   8.963 -0.0711  0.0245  0.0886
  133loPI   C4B 2128  14.452  13.183   8.650 -0.2066  0.0547  0.1193
  134loPI    C1 2129  12.221  10.474  10.594  0.0722 -0.1220  0.1522
  134loPI    C2 2130  12.312  10.632  10.950  0.0295 -0.0108  0.1139
  134loPI    C3 2131  12.184  10.254  10.926 -0.1124  0.0286  0.2330
  134loPI   PO4 2132  12.316  10.650  10.430 -0.1876  0.1722 -0.3015
  134loPI   GL1 2133  12.229  10.791  10.050 -0.3878 -0.0435  0.2144
  134loPI   GL2 2134  12.586  10.785   9.939 -0.0037  0.2369  0.1408
  134loPI   C1A 2135  12.108  10.847   9.582 -0.1099 -0.0902  0.0264
  134loPI   C2A 2136  12.165  10.961   9.147 -0.1835  0.4051 -0.1946
  134loPI   C3A 2137  12.324  10.935   8.660  0.1426  0.3712 -0.0142
  134loPI   C4A 2138  12.663  11.016   8.200 -0.0572  0.2514 -0.4211
  134loPI   C5A 2139  12.901  11.331   8.107  0.2675  0.0543 -0.0658
  134loPI   C6A 2140  13.296  11.618   7.885 -0.2182 -0.1716  0.0621
  134loPI   C1B 2141  12.599  10.917   9.482 -0.2350  0.0330  0.1413
  134loPI   C2B 2142  12.708  10.953   9.121  0.0940  0.3282 -0.1356
  134loPI   C3B 2143  12.834  10.860   8.770 -0.0858  0.1127  0.1902
  134loPI   C4B 2144  13.146  10.948   8.387  0.3356  0.1091  0.1576
  135loPI    C1 2145  15.536   2.582  10.592  0.0415 -0.0966 -0.1747
  135loPI    C2 2146  15.879   2.739  10.725  0.2438 -0.2676 -0.4821
  135loPI    C3 2147  15.604   2.611  10.985  0.3360  0.0306 -0.2322
  135loPI   PO4 2148  15.643   2.425  10.414  0.0841  0.0503 -0.0646
  135loPI   GL1 2149  15.615   2.523  10.016  0.0716 -0.1781  0.1332
  135loPI   GL2 2150  15.976   2.373   9.923 -0.1785  0.0400  0.3890
  135loPI   C1A 2151  15.501   2.630   9.666  0.3457  0.0846 -0.1955
  135loPI   C2A 2152  15.566   2.693   9.307  0.0992  0.0645 -0.0808
  135loPI   C3A 2153  15.547   2.627   8.891  0.1822 -0.0012  0.1515
  135loPI   C4A 2154  15.483   2.623   8.465  0.0850  0.0277 -0.1326
  135loPI   C5A 2155  15.204   2.504   8.223  0.4374 -0.0245  0.0100
  135loPI   C6A 2156  14.934   2.728   7.904  0.3736  0.3306  0.0188
  135loPI   C1B 2157  16.008   2.445   9.476  0.1766  0.1919 -0.1467
  135loPI   C2B 2158  16.324   2.435   9.157  0.0861 -0.1881 -0.0047
  135loPI   C3B 2159  16.742   2.321   9.033 -0.2059 -0.1500  0.0447
  135loPI   C4B 2160  16.981   2.042   9.093  0.0259  0.2219 -0.0867
  136loPI    C1 2161   0.645  11.326  10.781  0.4140 -0.2647  0.1290
  136loPI    C2 2162   0.669  11.606  11.064  0.2475 -0.0673 -0.0485
  136loPI    C3 2163   0.425  11.294  11.113  0.1726 -0.0017 -0.0008
  136loPI   PO4 2164   0.631  11.405  10.593 -0.2768 -0.1866 -0.0420
  136loPI   GL1 2165   0.835  11.419  10.278 -0.0218 -0.3527  0.0599
  136loPI   GL2 2166   0.698  11.146  10.146 -0.0621  0.3062  0.0458
  136loPI   C1A 2167   0.685  11.540   9.862 -0.1031 -0.3026  0.0966
  136loPI   C2A 2168   0.752  11.407   9.439 -0.0616 -0.3227  0.0585
  136loPI   C3A 2169   0.643  11.443   8.975  0.2958 -0.2715 -0.1009
  136loPI   C4A 2170   0.424  11.659   8.741  0.0464 -0.0563 -0.1905
  136loPI   C5A 2171   0.088  11.755   8.588  0.1902 -0.0960 -0.0465
  136loPI   C6A 2172   0.025  12.030   8.284  0.1838 -0.0217 -0.0538
  136loPI   C1B 2173   0.712  10.978   9.732  0.2292 -0.2698  0.0078
  136loPI   C2B 2174   0.518  10.891   9.322 -0.1195  0.1177 -0.0308
  136loPI   C3B 2175   0.368  10.928   8.883 -0.1917  0.1551 -0.2057
  136loPI   C4B 2176   0.587  11.136   8.569  0.2667  0.0521  0.1567
  137loPI    C1 2177  13.626  14.973  10.770  0.1713  0.1563  0.2321
  137loPI    C2 2178  13.333  14.732  10.898  0.1661  0.0946  0.1065
  137loPI    C3 2179  13.698  14.708  11.061  0.1334  0.0873  0.1792
  137loPI   PO4 2180  13.653  14.933  10.535  0.1780  0.2368 -0.0267
  137loPI   GL1 2181  13.636  15.038  10.091 -0.1323  0.2251 -0.2902
  137loPI   GL2 2182  13.292  15.075  10.187 -0.0443 -0.0616 -0.0626
  137loPI   C1A 2183  13.735  14.755   9.783  0.0837  0.2442  0.1525
  137loPI   C2A 2184  13.669  14.582   9.447 -0.1755  0.0895  0.0059
  137loPI   C3A 2185  13.635  14.584   8.978  0.2266 -0.0189  0.1613
  137loPI   C4A 2186  13.558  14.633   8.492  0.2898 -0.0474  0.2263
  137loPI   C5A 2187  13.500  14.427   8.106  0.1622  0.0009  0.0938
  137loPI   C6A 2188  13.317  14.176   7.796 -0.1239 -0.1306  0.1129
  137loPI   C1B 2189  13.318  15.044   9.717 -0.0591 -0.2530 -0.0652
  137loPI   C2B 2190  13.409  15.004   9.304  0.3471  0.0188 -0.2845
  137loPI   C3B 2191  13.326  15.040   8.826 -0.2343 -0.2936  0.0653
  137loPI   C4B 2192  13.290  15.044   8.373 -0.2502 -0.1943  0.2438
  138loPI    C1 2193   8.844  17.181  10.912 -0.0540 -0.0874  0.2436
  138loPI    C2 2194   9.128  17.041  11.155  0.0338 -0.0640  0.1550
  138loPI    C3 2195   8.860  17.304  11.292  0.1175 -0.0077  0.2111
  138loPI   PO4 2196   8.857  16.967  10.642 -0.1098  0.1572 -0.1263
  138loPI   GL1 2197   8.815  17.002  10.225  0.2527  0.0609  0.0021
  138loPI   GL2 2198   9.179  17.050  10.083 -0.0304  0.1198 -0.5063
  138loPI   C1A 2199   8.715  16.983   9.748 -0.2067 -0.0155 -0.2247
  138loPI   C2A 2200   8.871  17.072   9.331 -0.1950 -0.2242  0.1162
  138loPI   C3A 2201   8.842  16.967   8.890 -0.1185 -0.0265  0.1289
  138loPI   C4A 2202   8.929  17.077   8.487 -0.0791  0.0615 -0.0937
  138loPI   C5A 2203   8.723  17.078   8.070 -0.2136  0.2717  0.0450
  138loPI   C6A 2204   8.757  16.851   7.716 -0.0068 -0.0179 -0.2842
  138loPI   C1B 2205   9.174  16.843   9.681  0.1088  0.1983  0.0380
  138loPI   C2B 2206   9.023  16.536   9.301  0.0847  0.0101 -0.3772
  138loPI   C3B 2207   9.148  16.589   9.004 -0.1207 -0.1359  0.0216
  138loPI   C4B 2208   9.068  16.499   8.620  0.1116 -0.0911  0.0731
  139loPI    C1 2209   2.214   0.913  10.549  0.1104  0.1049 -0.1030
  139loPI    C2 2210   2.195   0.983  10.943 -0.0839 -0.0644 -0.0804
  139loPI    C3 2211   2.173   1.288  10.684  0.0598  0.0490  0.0386
  139loPI   PO4 2212   2.035   0.689  10.582  0.1768  0.0015  0.2186
  139loPI   GL1 2213   2.097   0.496  10.211 -0.0117  0.0701 -0.5658
  139loPI   GL2 2214   1.778   0.439  10.181  0.0784 -0.0917 -0.0137
  139loPI   C1A 2215   2.225   0.313   9.871 -0.1429  0.2488 -0.5001
  139loPI   C2A 2216   2.182   0.376   9.401 -0.0595 -0.1236  0.1472
  139loPI   C3A 2217   2.112   0.357   9.051  0.0582  0.1830  0.0188
  139loPI   C4A 2218   2.161   0.358   8.616  0.0202  0.0426  0.0275
  139loPI   C5A 2219   2.292   0.464   8.153 -0.0151  0.0026 -0.1642
  139loPI   C6A 2220   2.171   0.628   7.752 -0.1230 -0.0073  0.3851
  139loPI   C1B 2221   1.685   0.439   9.818  0.0859 -0.3396 -0.3577
  139loPI   C2B 2222   1.649   0.437   9.454 -0.0884  0.2244  0.1465
  139loPI   C3B 2223   1.655   0.485   9.027  0.0989  0.2175 -0.0799
  139loPI   C4B 2224   1.643   0.644   8.687  0.3335  0.1434 -0.1183
  140loPI    C1 2225   0.710  12.218  10.754 -0.0735 -0.0750 -0.0935
  140loPI    C2 2226   1.003  12.150  10.490 -0.0438  0.0557 -0.0950
  140loPI    C3 2227   1.018  12.473  10.726 -0.1217 -0.0065 -0.0045
  140loPI   PO4 2228   0.603  11.959  10.728  0.1435 -0.0034  0.0200
  140loPI   GL1 2229   0.600  11.862  10.341  0.1145 -0.0252  0.2723
  140loPI   GL2 2230   0.292  11.930  10.258 -0.0872 -0.1392 -0.0508
  140loPI   C1A 2231   0.975  11.828  10.059  0.1196 -0.2032  0.1428
  140loPI   C2A 2232   1.058  11.757   9.645  0.0722 -0.1105  0.2403
  140loPI   C3A 2233   1.192  11.646   9.206  0.2109  0.0543 -0.1991
  140loPI   C4A 2234   1.100  11.492   8.784 -0.0235  0.1582 -0.1335
  140loPI   C5A 2235   1.208  11.415   8.307 -0.0033  0.1788  0.3727
  140loPI   C6A 2236   1.137  11.343   7.831 -0.3031 -0.2655  0.2991
  140loPI   C1B 2237   0.366  12.084   9.846  0.2096 -0.0664  0.1786
  140loPI   C2B 2238   0.424  12.335   9.513  0.0804  0.1012 -0.0926
  140loPI   C3B 2239   0.537  12.488   9.117 -0.2077  0.0742 -0.1209
  140loPI   C4B 2240   0.483  12.712   8.685 -0.1100  0.2143  0.1123
  141loPI    C1 2241  14.237  15.800  10.785  0.1096  0.0253 -0.0807
  141loPI    C2 2242  13.939  15.704  11.034  0.1180  0.3498  0.0595
  141loPI    C3 2243  14.282  15.499  11.044 -0.0698  0.0221 -0.0517
  141loPI   PO4 2244  14.156  15.767  10.539 -0.3060  0.0067 -0.0601
  141loPI   GL1 2245  13.861  15.853  10.140  0.0594 -0.2512  0.2611
  141loPI   GL2 2246  13.621  15.638   9.954 -0.0746 -0.2676 -0.0418
  141loPI   C1A 2247  13.677  16.119   9.788  0.0988 -0.0800  0.1927
  141loPI   C2A 2248  13.670  16.012   9.365  0.1435  0.0991 -0.2397
  141loPI   C3A 2249  13.739  16.027   9.040 -0.1739 -0.2640  0.0534
  141loPI   C4A 2250  13.956  15.789   8.818  0.4087  0.0126  0.2238
  141loPI   C5A 2251  14.090  15.447   8.640 -0.1540  0.1067  0.0385
  141loPI   C6A 2252  13.968  15.235   8.159 -0.1082  0.0325 -0.0352
  141loPI   C1B 2253  13.544  15.517   9.457  0.0958 -0.1279 -0.0816
  141loPI   C2B 2254  13.629  15.396   9.010  0.3056  0.0234 -0.0480
  141loPI   C3B 2255  13.609  15.406   8.521  0.2359 -0.1750 -0.1811
  141loPI   C4B 2256  13.627  15.573   8.039 -0.0974  0.0987 -0.2522
  142loPI    C1 2257   3.407  10.698  10.482  0.0225 -0.0598 -0.2281
  142loPI    C2 2258   3.530  10.660  10.861  0.0900  0.1438 -0.2285
  142loPI    C3 2259   3.229  10.908  10.772 -0.1409 -0.1439 -0.2664
  142loPI   PO4 2260   3.529  10.490  10.311  0.0791 -0.0962  0.2326
  142loPI   GL1 2261   3.367  10.386   9.904  0.3014 -0.3155 -0.2798
  142loPI   GL2 2262   3.241  10.214   9.849  0.1894  0.0896  0.3136
  142loPI   C1A 2263   3.300  10.415   9.373 -0.0549 -0.1853  0.1616
  142loPI   C2A 2264   3.325  10.688   8.878  0.0847 -0.0584 -0.1559
  142loPI   C3A 2265   3.134  10.820   8.605  0.0143 -0.1987 -0.0114
  142loPI   C4A 2266   2.989  11.126   8.391  0.0073 -0.2396 -0.1877
  142loPI   C5A 2267   3.068  11.464   8.131 -0.0433  0.2918  0.0426
  142loPI   C6A 2268   3.441  11.655   8.128 -0.2994 -0.1981  0.3114
  142loPI   C1B 2269   3.246   9.945   9.515  0.2823  0.2158 -0.0867
  142loPI   C2B 2270   3.232   9.921   9.148 -0.2474  0.1823 -0.2033
  142loPI   C3B 2271   3.386  10.101   8.727  0.1572 -0.2823  0.1930
  142loPI   C4B 2272   3.613   9.995   8.275  0.3688 -0.1529 -0.0849
  143loPI    C1 2273  13.145  15.624  11.039  0.0725  0.0517 -0.0480
  143loPI    C2 2274  13.203  15.256  11.186  0.1078  0.0244 -0.1294
  143loPI    C3 2275  13.079  15.551  11.426 -0.1316 -0.0915 -0.1079
  143loPI   PO4 2276  13.077  15.614  10.832  0.1367  0.2170  0.0029
  143loPI   GL1 2277  13.174  15.590  10.340  0.2954 -0.1669  0.3313
  143loPI   GL2 2278  12.922  15.660  10.311 -0.1872 -0.0726 -0.0600
  143loPI   C1A 2279  13.164  15.475   9.874 -0.1367  0.0800 -0.1178
  143loPI   C2A 2280  12.976  15.514   9.499  0.2271 -0.2625 -0.3149
  143loPI   C3A 2281  13.039  15.409   9.061  0.1488  0.2518 -0.0407
  143loPI   C4A 2282  13.085  15.395   8.610  0.1292  0.1705 -0.1577
  143loPI   C5A 2283  13.079  15.538   8.233 -0.1645 -0.0032  0.0914
  143loPI   C6A 2284  12.969  15.669   7.868  0.1269 -0.0542  0.1237
  143loPI   C1B 2285  12.742  15.763   9.922  0.1581 -0.1155 -0.2257
  143loPI   C2B 2286  12.476  15.477   9.688  0.1081 -0.1007 -0.1804
  143loPI   C3B 2287  12.546  15.431   9.290 -0.2584 -0.1299 -0.2506
  143loPI   C4B 2288  12.598  15.366   8.867 -0.1029  0.0486  0.2363
  144loPI    C1 2289  13.095   9.093  10.923 -0.1280 -0.0869  0.1102
  144loPI    C2 2290  13.219   8.865  11.227 -0.2218 -0.0745  0.1582
  144loPI    C3 2291  13.371   9.232  11.177  0.0563 -0.2111 -0.0201
  144loPI   PO4 2292  13.156   8.967  10.708 -0.0679 -0.1243  0.1188
  144loPI   GL1 2293  12.987   8.770  10.399 -0.0321  0.0922  0.3249
  144loPI   GL2 2294  13.232   8.831  10.217  0.1452  0.2194 -0.1399
  144loPI   C1A 2295  12.731   8.594  10.069 -0.2335 -0.0720 -0.0154
  144loPI   C2A 2296  12.625   8.675   9.657 -0.1352 -0.2496 -0.0811
  144loPI   C3A 2297  12.599   8.676   9.262  0.1356 -0.0949  0.3864
  144loPI   C4A 2298  12.510   8.695   8.776 -0.0589 -0.1257  0.0150
  144loPI   C5A 2299  12.542   8.541   8.380 -0.0012  0.0369  0.0110
  144loPI   C6A 2300  12.580   8.724   7.936 -0.5401 -0.1576  0.1067
  144loPI   C1B 2301  12.932   9.049   9.866  0.0207  0.1317 -0.1199
  144loPI   C2B 2302  12.838   9.117   9.391 -0.0180 -0.0683 -0.3345
  144loPI   C3B 2303  12.659   9.187   8.957 -0.2755 -0.1971  0.0102
  144loPI   C4B 2304  12.225   9.096   8.762 -0.1123  0.0880 -0.1907
  145loPI    C1 2305   8.132   7.574  11.238  0.2854 -0.0735 -0.1498
  145loPI    C2 2306   8.310   7.495  11.587  0.1873  0.2368 -0.0262
  145loPI    C3 2307   7.914   7.551  11.572  0.1973  0.2721 -0.1798
  145loPI   PO4 2308   8.233   7.360  11.025  0.1147  0.0717  0.0234
  145loPI   GL1 2309   8.358   7.542  10.537  0.1314  0.3286  0.2603
  145loPI   GL2 2310   8.466   7.267  10.556 -0.0538 -0.1807  0.1651
  145loPI   C1A 2311   8.089   7.371  10.255  0.2128 -0.1618  0.3151
  145loPI   C2A 2312   8.065   7.166   9.899  0.2593  0.1412 -0.2695
  145loPI   C3A 2313   8.105   7.176   9.463 -0.0315 -0.2504  0.0317
  145loPI   C4A 2314   8.077   7.273   9.077 -0.3421 -0.0735  0.1534
  145loPI   C5A 2315   8.122   7.270   8.738  0.0553  0.0505 -0.0575
  145loPI   C6A 2316   8.234   7.284   8.301 -0.0337 -0.1978  0.0694
  145loPI   C1B 2317   8.534   7.280  10.105  0.0144 -0.1073 -0.0307
  145loPI   C2B 2318   8.645   7.316   9.808 -0.2403  0.1963 -0.2687
  145loPI   C3B 2319   8.625   7.250   9.362 -0.0482 -0.0068 -0.0540
  145loPI   C4B 2320   8.555   7.366   8.982 -0.2412 -0.2148  0.3031
  146loPI    C1 2321  10.289   3.666  10.981 -0.0468 -0.4247  0.1342
  146loPI    C2 2322  10.155   3.969  11.206  0.2051  0.0652 -0.3534
  146loPI    C3 2323  10.223   3.612  11.372 -0.1706  0.2467  0.2186
  146loPI   PO4 2324  10.365   3.845  10.683  0.0570 -0.0033  0.0145
  146loPI   GL1 2325  10.663   3.899  10.494  0.1253  0.2253 -0.1614
  146loPI   GL2 2326  10.876   4.126  10.256 -0.1319  0.1006 -0.1558
  146loPI   C1A 2327  10.491   3.914  10.039  0.1448 -0.3590 -0.2836
  146loPI   C2A 2328  10.463   3.952   9.622  0.0238  0.0600 -0.3351
  146loPI   C3A 2329  10.319   3.935   9.191 -0.2136 -0.0035  0.1868
  146loPI   C4A 2330  10.338   3.850   8.830 -0.3705  0.2323  0.1811
  146loPI   C5A 2331  10.383   3.778   8.356  0.2217 -0.0203  0.3912
  146loPI   C6A 2332  10.264   4.203   8.123  0.1356  0.0242 -0.0080
  146loPI   C1B 2333  10.936   4.229   9.792  0.2027 -0.0874 -0.0252
  146loPI   C2B 2334  10.834   4.199   9.394 -0.0246  0.0838 -0.2124
  146loPI   C3B 2335  10.847   4.226   9.054 -0.0281  0.1770  0.3649
  146loPI   C4B 2336  10.733   4.238   8.614 -0.0335  0.1641  0.0881
  147loPI    C1 2337   1.123   4.798  10.394 -0.0310  0.0528  0.0381
  147loPI    C2 2338   0.748   4.662  10.380  0.0275 -0.0875 -0.2295
  147loPI    C3 2339   0.880   4.912  10.097  0.0758  0.1241 -0.0229
  147loPI   PO4 2340   1.306   4.650  10.356  0.3363 -0.0370 -0.0006
  147loPI   GL1 2341   1.507   4.403  10.117  0.1370  0.0979  0.1997
  147loPI   GL2 2342   1.609   4.098  10.098 -0.2370  0.0598 -0.0304
  147loPI   C1A 2343   1.469   4.316   9.564  0.3113 -0.0363 -0.1195
  147loPI   C2A 2344   1.485   4.230   9.104  0.0520  0.1327 -0.0073
  147loPI   C3A 2345   1.210   4.228   8.694  0.1927 -0.1586 -0.1620
  147loPI   C4A 2346   0.906   4.394   8.433  0.0481 -0.1947  0.2111
  147loPI   C5A 2347   0.799   4.558   8.049  0.0853  0.1426  0.0663
  147loPI   C6A 2348   0.845   4.795   7.556 -0.0241 -0.1073  0.1092
  147loPI   C1B 2349   1.480   3.875   9.801 -0.0965 -0.0153 -0.3281
  147loPI   C2B 2350   1.387   3.705   9.378  0.2912  0.3909  0.1089
  147loPI   C3B 2351   1.475   3.659   8.858  0.0836 -0.0478 -0.4370
  147loPI   C4B 2352   1.634   3.663   8.483  0.1143  0.2690  0.0403
  148loPI    C1 2353   4.879   2.857  11.039 -0.0504  0.0900 -0.0964
  148loPI    C2 2354   5.175   2.717  11.269 -0.1772  0.2508  0.1701
  148loPI    C3 2355   4.876   2.475  11.159  0.0395  0.0926 -0.0849
  148loPI   PO4 2356   4.985   3.050  10.830 -0.1237 -0.1804 -0.0444
  148loPI   GL1 2357   4.837   2.967  10.458  0.0425 -0.0267 -0.1076
  148loPI   GL2 2358   4.606   2.725  10.352  0.3744 -0.0900  0.2044
  148loPI   C1A 2359   4.804   3.040  10.020  0.0519 -0.2750  0.3022
  148loPI   C2A 2360   4.756   3.104   9.626  0.0456  0.0785  0.1281
  148loPI   C3A 2361   4.607   2.965   9.206  0.1599 -0.4121  0.1006
  148loPI   C4A 2362   4.523   3.055   8.745  0.1436 -0.0353  0.2001
  148loPI   C5A 2363   4.391   3.262   8.318  0.0330 -0.3750  0.1845
  148loPI   C6A 2364   4.573   3.423   7.982  0.1845 -0.0131  0.2748
  148loPI   C1B 2365   4.606   2.577   9.970  0.0114  0.2506  0.0474
  148loPI   C2B 2366   4.617   2.559   9.479  0.0020  0.1398  0.0413
  148loPI   C3B 2367   4.434   2.486   8.968  0.2350  0.0127 -0.0988
  148loPI   C4B 2368   4.540   2.540   8.471  0.1003 -0.3111 -0.1002
  149loPI    C1 2369   3.869   5.334  10.841 -0.1069  0.1220 -0.1216
  149loPI    C2 2370   3.758   4.973  10.971 -0.1130  0.0902 -0.2141
  149loPI    C3 2371   4.129   5.106  11.043 -0.1351  0.0980 -0.1125
  149loPI   PO4 2372   3.782   5.344  10.582  0.0294  0.1565  0.3612
  149loPI   GL1 2373   3.884   5.534  10.178  0.0450 -0.1553 -0.2936
  149loPI   GL2 2374   4.020   5.246  10.063 -0.3771 -0.0858  0.1959
  149loPI   C1A 2375   3.700   5.694   9.805 -0.3192 -0.0886 -0.3409
  149loPI   C2A 2376   3.630   5.681   9.287 -0.0870  0.0246 -0.0636
  149loPI   C3A 2377   3.729   5.604   8.836 -0.0642 -0.0104 -0.0396
  149loPI   C4A 2378   3.640   5.326   8.518 -0.0427 -0.1065 -0.1253
  149loPI   C5A 2379   3.742   4.881   8.344 -0.1390 -0.2491 -0.0556
  149loPI   C6A 2380   4.153   4.751   8.065 -0.0655  0.1976  0.2589
  149loPI   C1B 2381   3.894   5.266   9.575  0.0531  0.1129  0.0329
  149loPI   C2B 2382   3.852   5.252   9.133 -0.0227 -0.0436  0.2194
  149loPI   C3B 2383   4.147   5.280   8.825 -0.0738 -0.1253 -0.0850
  149loPI   C4B 2384   4.357   5.223   8.412 -0.0437 -0.0029  0.1381
  150loPI    C1 2385  16.934   7.109  11.036 -0.0427 -0.0534  0.2182
  150loPI    C2 2386  16.840   7.450  11.223  0.0402 -0.0071  0.1762
  150loPI    C3 2387  16.639   7.114  11.306 -0.4023  0.1618 -0.1671
  150loPI   PO4 2388  16.926   7.162  10.764 -0.1836 -0.0157  0.1042
  150loPI   GL1 2389  17.015   6.968  10.416  0.3598  0.2296  0.2599
  150loPI   GL2 2390  16.770   7.263  10.295  0.0736  0.3735 -0.1513
  150loPI   C1A 2391  17.107   7.174   9.997 -0.1182  0.0252  0.0611
  150loPI   C2A 2392  17.032   7.229   9.576  0.1251 -0.0381  0.1171
  150loPI   C3A 2393  16.825   7.060   9.324 -0.1554 -0.0499 -0.1101
  150loPI   C4A 2394  16.905   6.981   8.761  0.0581  0.2782  0.0599
  150loPI   C5A 2395  16.849   6.993   8.354 -0.1232 -0.1258 -0.1253
  150loPI   C6A 2396  16.872   7.200   7.884  0.0947 -0.1802 -0.0190
  150loPI   C1B 2397  16.886   7.642   9.950  0.2156  0.2167  0.0439
  150loPI   C2B 2398  17.040   7.789   9.557  0.2314 -0.2579 -0.0812
  150loPI   C3B 2399  16.999   7.702   9.179  0.0982 -0.1720  0.5202
  150loPI   C4B 2400  17.018   7.712   8.783  0.1564 -0.1866 -0.2042
  151loPI    C1 2401  13.509  17.732  11.028 -0.1857 -0.1010 -0.0338
  151loPI    C2 2402  13.206  17.752  11.289 -0.1342 -0.2675  0.0400
  151loPI    C3 2403  13.519  17.514  11.363  0.1421  0.1046  0.0945
  151loPI   PO4 2404  13.534  17.996  10.909  0.2901  0.1533 -0.0625
  151loPI   GL1 2405  13.654  17.973  10.426  0.0840  0.1510  0.1491
  151loPI   GL2 2406  13.351  17.892  10.408 -0.0443 -0.2129  0.1354
  151loPI   C1A 2407  13.603  17.774   9.988 -0.0096  0.1085  0.1516
  151loPI   C2A 2408  13.720  17.791   9.638  0.0093  0.0242 -0.4343
  151loPI   C3A 2409  13.697  17.909   9.276  0.2731  0.2232 -0.1589
  151loPI   C4A 2410  13.819  17.803   8.892  0.0841  0.4480 -0.0532
  151loPI   C5A 2411  13.904  17.902   8.488 -0.1248 -0.0571 -0.2710
  151loPI   C6A 2412  13.826  18.053   8.066 -0.3352  0.0911  0.1057
  151loPI   C1B 2413  13.368  18.225  10.080  0.1004 -0.1297  0.0081
  151loPI   C2B 2414  13.174  18.542   9.722  0.0061 -0.0093  0.4113
  151loPI   C3B 2415  13.169  18.683   9.339  0.1745 -0.2575  0.0144
  151loPI   C4B 2416  13.337  18.578   8.837 -0.3632  0.0332 -0.0990
  152loPI    C1 2417   4.698  15.097  11.435 -0.2019  0.2886  0.0571
  152loPI    C2 2418   4.883  15.275  11.742 -0.1360 -0.0959  0.2466
  152loPI    C3 2419   4.540  15.078  11.802 -0.0334 -0.3205  0.1086
  152loPI   PO4 2420   4.649  15.186  11.273  0.2586  0.2040 -0.1031
  152loPI   GL1 2421   4.551  15.198  10.891 -0.1648 -0.1429 -0.1650
  152loPI   GL2 2422   4.528  14.995  10.712 -0.1410  0.0317  0.1683
  152loPI   C1A 2423   4.586  15.330  10.359  0.2595 -0.0088 -0.0158
  152loPI   C2A 2424   4.612  15.475   9.895  0.4482  0.2043  0.2300
  152loPI   C3A 2425   4.528  15.396   9.479 -0.2080 -0.0508 -0.0432
  152loPI   C4A 2426   4.487  15.419   9.020 -0.1234  0.4256  0.2743
  152loPI   C5A 2427   4.471  15.329   8.446  0.0503 -0.2820  0.1119
  152loPI   C6A 2428   4.563  15.011   8.146 -0.0049  0.0464 -0.1208
  152loPI   C1B 2429   4.370  14.790  10.332 -0.0387  0.2184 -0.4746
  152loPI   C2B 2430   4.333  14.579   9.868  0.1857  0.1510  0.3091
  152loPI   C3B 2431   4.198  14.564   9.366  0.2300  0.2848 -0.3351
  152loPI   C4B 2432   4.208  14.563   8.938  0.0321 -0.2609  0.2087
  153loPI    C1 2433   3.083   5.920  10.727 -0.1576  0.0874  0.0577
  153loPI    C2 2434   3.067   6.295  10.865 -0.0053  0.0734  0.1148
  153loPI    C3 2435   3.385   6.066  10.945 -0.0870 -0.0601  0.0596
  153loPI   PO4 2436   3.069   5.963  10.444  0.1476  0.2880  0.1129
  153loPI   GL1 2437   3.241   5.986  10.028 -0.2454 -0.1179 -0.3945
  153loPI   GL2 2438   3.047   6.271   9.972  0.0817 -0.0771  0.0586
  153loPI   C1A 2439   3.408   6.053   9.621  0.1397  0.2245 -0.0023
  153loPI   C2A 2440   3.358   6.177   9.221 -0.2995 -0.2125  0.0337
  153loPI   C3A 2441   3.459   6.053   8.824 -0.1671  0.0320 -0.1611
  153loPI   C4A 2442   3.562   5.991   8.359 -0.1332  0.0146 -0.2166
  153loPI   C5A 2443   3.873   5.664   8.244 -0.0589 -0.1022  0.3705
  153loPI   C6A 2444   3.940   5.281   8.098 -0.0070 -0.0791 -0.0121
  153loPI   C1B 2445   2.959   6.298   9.444  0.1168 -0.0474 -0.2254
  153loPI   C2B 2446   2.866   6.099   9.028  0.1506 -0.0251  0.2240
  153loPI   C3B 2447   2.930   6.119   8.495  0.1973 -0.0216  0.1928
  153loPI   C4B 2448   2.958   6.531   8.107 -0.0534  0.3795 -0.0449
  154loPI    C1 2449   4.223  16.017  11.450  0.1332  0.0886  0.1940
  154loPI    C2 2450   4.183  15.701  11.691  0.1066 -0.1366 -0.0996
  154loPI    C3 2451   4.482  15.960  11.750 -0.0220 -0.0708  0.2995
  154loPI   PO4 2452   4.137  15.912  11.195  0.2281 -0.0320 -0.1532
  154loPI   GL1 2453   4.114  15.940  10.673  0.0899 -0.1722  0.2554
  154loPI   GL2 2454   4.192  15.587  10.669  0.3675  0.0389 -0.2239
  154loPI   C1A 2455   3.954  16.030  10.373  0.0988  0.0999  0.5173
  154loPI   C2A 2456   3.982  16.119   9.952 -0.2944 -0.0514  0.0386
  154loPI   C3A 2457   3.960  16.099   9.518 -0.0180 -0.1735 -0.0581
  154loPI   C4A 2458   3.954  16.160   9.101 -0.0387 -0.1288 -0.0447
  154loPI   C5A 2459   3.935  16.082   8.662 -0.1457 -0.1668 -0.3175
  154loPI   C6A 2460   3.951  15.625   8.523  0.1116 -0.1460 -0.1169
  154loPI   C1B 2461   4.115  15.538  10.207  0.0490 -0.0006 -0.0343
  154loPI   C2B 2462   4.062  15.569   9.847  0.0436  0.1634  0.0765
  154loPI   C3B 2463   3.999  15.508   9.348 -0.0397 -0.1564  0.1241
  154loPI   C4B 2464   3.924  15.693   9.019 -0.1512  0.2655  0.0191
  155loPI    C1 2465   0.658   6.615  10.583  0.1270  0.1296  0.3519
  155loPI    C2 2466   0.920   6.916  10.601  0.4190 -0.1039  0.1165
  155loPI    C3 2467   0.885   6.662  10.908  0.1771  0.1609  0.3125
  155loPI   PO4 2468   0.426   6.754  10.429 -0.1825  0.0854  0.1786
  155loPI   GL1 2469   0.505   6.956  10.104 -0.3610 -0.2561 -0.2989
  155loPI   GL2 2470   0.779   6.942  10.134 -0.1758  0.1879  0.0208
  155loPI   C1A 2471   0.384   6.924   9.726  0.1622  0.1295 -0.1218
  155loPI   C2A 2472   0.279   7.021   9.307  0.1123 -0.0074 -0.1068
  155loPI   C3A 2473   0.275   7.087   8.844 -0.1502  0.1248 -0.3697
  155loPI   C4A 2474   0.242   6.879   8.497  0.1525 -0.1518 -0.1993
  155loPI   C5A 2475   0.660   6.819   8.196  0.0148 -0.0474 -0.1535
  155loPI   C6A 2476   0.985   6.659   7.991  0.3165 -0.0294 -0.1438
  155loPI   C1B 2477   0.847   7.089   9.801  0.0551  0.0371  0.3104
  155loPI   C2B 2478   0.754   7.045   9.388 -0.0282  0.0385  0.2213
  155loPI   C3B 2479   0.798   7.037   8.966 -0.1554 -0.1264  0.0761
  155loPI   C4B 2480   0.689   7.210   8.540  0.1369 -0.2217 -0.0965
  156loPI    C1 2481   8.882  11.078  10.713  0.0602 -0.1225  0.0769
  156loPI    C2 2482   9.065  11.013  11.063  0.1692  0.0147  0.0465
  156loPI    C3 2483   8.868  11.356  11.002  0.1443 -0.0120 -0.0242
  156loPI   PO4 2484   9.128  10.936  10.522 -0.0332  0.3465 -0.0771
  156loPI   GL1 2485   9.256  10.883  10.070  0.1401 -0.0193  0.1362
  156loPI   GL2 2486   9.539  10.829  10.003 -0.0851 -0.2302  0.0344
  156loPI   C1A 2487   8.963  10.857   9.770 -0.1697  0.0978  0.0559
  156loPI   C2A 2488   8.978  10.877   9.322 -0.0946 -0.1369 -0.0127
  156loPI   C3A 2489   9.077  10.794   8.846  0.3961  0.2914 -0.0894
  156loPI   C4A 2490   9.091  10.828   8.403 -0.3278  0.2049 -0.2522
  156loPI   C5A 2491   9.259  10.737   7.962 -0.0551 -0.2147 -0.2591
  156loPI   C6A 2492   9.420  11.020   7.567  0.3098  0.0381  0.0993
  156loPI   C1B 2493   9.485  10.912   9.554 -0.0471  0.2330  0.1115
  156loPI   C2B 2494   9.497  10.901   9.128  0.3920  0.0709 -0.1872
  156loPI   C3B 2495   9.603  10.864   8.708  0.0308  0.5641  0.0641
  156loPI   C4B 2496   9.665  10.815   8.228 -0.0252  0.1140 -0.1510
  157loPI    C1 2497   4.988   7.863  10.965  0.4615 -0.1326 -0.3132
  157loPI    C2 2498   5.277   7.874  11.242 -0.0583 -0.0637  0.2482
  157loPI    C3 2499   4.989   7.598  11.265 -0.0660 -0.1107 -0.2834
  157loPI   PO4 2500   5.059   8.027  10.777  0.0332 -0.1585  0.0148
  157loPI   GL1 2501   4.801   8.240  10.460  0.1554 -0.1672  0.0485
  157loPI   GL2 2502   4.706   7.995  10.221 -0.0237  0.2908  0.0707
  157loPI   C1A 2503   5.217   8.209  10.162 -0.1122 -0.2183 -0.0874
  157loPI   C2A 2504   5.361   8.096   9.698  0.2018 -0.0023 -0.0386
  157loPI   C3A 2505   5.404   8.031   9.262 -0.1130  0.2088 -0.0224
  157loPI   C4A 2506   5.435   8.059   8.849  0.0074 -0.3295  0.0564
  157loPI   C5A 2507   5.611   8.061   8.514  0.1319 -0.3269 -0.0635
  157loPI   C6A 2508   5.872   8.125   8.173  0.0659  0.2020 -0.1831
  157loPI   C1B 2509   4.820   8.026   9.778  0.1357 -0.1703  0.0619
  157loPI   C2B 2510   4.928   7.982   9.254 -0.0110 -0.1316  0.3693
  157loPI   C3B 2511   4.940   8.044   8.838 -0.0789  0.0809  0.3298
  157loPI   C4B 2512   5.109   8.001   8.419 -0.1127  0.0449 -0.0730
  158loPI    C1 2513  12.243  16.275  10.646  0.2657  0.0387  0.1117
  158loPI    C2 2514  12.293  16.116  11.010  0.0092  0.1649  0.2041
  158loPI    C3 2515  12.007  16.389  10.948 -0.0663  0.0144 -0.1337
  158loPI   PO4 2516  12.522  16.347  10.642 -0.0582  0.1509 -0.0255
  158loPI   GL1 2517  12.811  16.256  10.232  0.0128 -0.0540 -0.0112
  158loPI   GL2 2518  12.637  16.088  10.272  0.2340  0.0213  0.2317
  158loPI   C1A 2519  12.637  16.315   9.811  0.1820 -0.1499  0.0103
  158loPI   C2A 2520  12.676  16.019   9.439 -0.2264 -0.0850 -0.1927
  158loPI   C3A 2521  12.749  15.849   9.075  0.1634 -0.1413  0.3848
  158loPI   C4A 2522  12.844  15.955   8.626  0.2071  0.1491  0.2143
  158loPI   C5A 2523  12.818  16.029   8.194 -0.0748  0.1500  0.0772
  158loPI   C6A 2524  12.624  16.062   7.810  0.1096 -0.1973  0.0556
  158loPI   C1B 2525  12.291  15.931  10.012 -0.1013 -0.1629 -0.1677
  158loPI   C2B 2526  12.223  15.848   9.537  0.1730 -0.1347 -0.0464
  158loPI   C3B 2527  12.243  15.853   9.069 -0.0167  0.0107  0.0710
  158loPI   C4B 2528  12.334  15.807   8.749  0.1244  0.1939 -0.1141
  159loPI    C1 2529   7.270   7.120  11.295  0.0721 -0.1904  0.1206
  159loPI    C2 2530   7.562   7.171  11.563  0.0191  0.1096  0.1244
  159loPI    C3 2531   7.228   6.976  11.666  0.0957  0.0202  0.2062
  159loPI   PO4 2532   7.388   7.119  10.993 -0.1095  0.0969  0.2191
  159loPI   GL1 2533   7.274   7.089  10.601  0.3343 -0.3001 -0.3887
  159loPI   GL2 2534   7.149   6.811  10.449  0.0668  0.0488 -0.0815
  159loPI   C1A 2535   7.539   7.096  10.271 -0.0210 -0.1147  0.0176
  159loPI   C2A 2536   7.464   7.220   9.856  0.0107  0.0009 -0.2893
  159loPI   C3A 2537   7.563   7.254   9.491  0.0480  0.1344  0.2090
  159loPI   C4A 2538   7.580   7.257   9.127 -0.1415  0.0143  0.2622
  159loPI   C5A 2539   7.606   7.308   8.629  0.0203 -0.2483  0.1144
  159loPI   C6A 2540   7.717   7.004   8.337 -0.4168 -0.0055  0.1854
  159loPI   C1B 2541   7.190   6.812  10.019  0.0925 -0.0911  0.0183
  159loPI   C2B 2542   7.259   6.831   9.560 -0.6141 -0.0366 -0.1570
  159loPI   C3B 2543   7.312   6.795   9.116 -0.0824  0.0933 -0.0200
  159loPI   C4B 2544   7.289   6.834   8.635  0.3096  0.0909 -0.0564
  160loPI    C1 2545   1.337  15.340  10.917  0.1677 -0.0768 -0.0369
  160loPI    C2 2546   1.557  15.029  11.040 -0.0275 -0.1726  0.0742
  160loPI    C3 2547   1.392  15.276  11.308 -0.0584 -0.1033 -0.0081
  160loPI   PO4 2548   1.294  15.272  10.657 -0.2097 -0.3473 -0.1914
  160loPI   GL1 2549   1.212  15.061  10.299  0.1334 -0.3608  0.2369
  160loPI   GL2 2550   1.438  15.184  10.188 -0.1039 -0.3352 -0.2174
  160loPI   C1A 2551   0.959  15.212   9.916 -0.1669 -0.1066  0.3305
  160loPI   C2A 2552   0.900  15.221   9.510 -0.3012 -0.0351  0.0064
  160loPI   C3A 2553   0.888  15.413   9.164  0.1619 -0.3842 -0.1554
  160loPI   C4A 2554   0.904  15.396   8.740 -0.0687 -0.0200 -0.0416
  160loPI   C5A 2555   0.781  15.656   8.307  0.1286  0.2652  0.0363
  160loPI   C6A 2556   0.808  15.613   7.925  0.0417 -0.0328  0.0764
  160loPI   C1B 2557   1.420  14.952   9.853 -0.0420 -0.0114  0.0495
  160loPI   C2B 2558   1.418  15.167   9.362  0.0886  0.0927  0.1711
  160loPI   C3B 2559   1.352  15.117   8.940 -0.0735 -0.3367 -0.2467
  160loPI   C4B 2560   1.295  15.216   8.501 -0.1675  0.1075  0.1017
  161loPI    C1 2561   0.247  10.381  10.705  0.2396  0.1479  0.1070
  161loPI    C2 2562   0.023  10.317  11.030  0.1696 -0.0867  0.0147
  161loPI    C3 2563   0.422  10.328  11.061  0.1546  0.1551  0.1500
  161loPI   PO4 2564   0.183  10.602  10.608 -0.1754  0.1505 -0.0886
  161loPI   GL1 2565   0.117  10.695  10.175  0.1119  0.0785 -0.0509
  161loPI   GL2 2566   0.362  10.745  10.107 -0.0154  0.0343  0.0303
  161loPI   C1A 2567  -0.277  10.756   9.960 -0.2648  0.0111 -0.2328
  161loPI   C2A 2568  -0.398  11.039   9.655  0.0457 -0.0848 -0.3620
  161loPI   C3A 2569  -0.381  11.135   9.257  0.1777  0.1698 -0.1580
  161loPI   C4A 2570  -0.523  11.094   8.808  0.1669  0.0568  0.0388
  161loPI   C5A 2571  -0.346  11.168   8.314  0.1704  0.0525 -0.2005
  161loPI   C6A 2572  -0.449  10.906   8.036  0.1537  0.1865  0.1376
  161loPI   C1B 2573   0.109  10.660   9.693 -0.0672  0.1294 -0.0239
  161loPI   C2B 2574   0.064  10.704   9.280  0.0029 -0.1288  0.1481
  161loPI   C3B 2575  -0.158  10.816   8.920  0.1513 -0.0456  0.0085
  161loPI   C4B 2576  -0.235  10.760   8.521 -0.2865 -0.0708 -0.2167
  162loPI    C1 2577   8.846   8.833  10.829  0.1458 -0.1179  0.0028
  162loPI    C2 2578   9.218   8.958  10.755  0.2207 -0.1120  0.3709
  162loPI    C3 2579   9.002   9.133  11.042 -0.1012 -0.0558  0.1001
  162loPI   PO4 2580   8.810   8.736  10.506 -0.4505  0.0300  0.1522
  162loPI   GL1 2581   8.915   8.681  10.097  0.1522 -0.2069  0.1160
  162loPI   GL2 2582   9.165   9.074  10.198 -0.0455 -0.1166  0.1861
  162loPI   C1A 2583   8.851   8.684   9.621  0.1199 -0.1567  0.0926
  162loPI   C2A 2584   8.903   8.575   9.174 -0.1076  0.0173 -0.4432
  162loPI   C3A 2585   8.876   8.589   8.808  0.0738 -0.0010  0.2189
  162loPI   C4A 2586   8.825   8.498   8.468 -0.0863  0.2459 -0.1382
  162loPI   C5A 2587   8.712   8.164   8.228 -0.0300  0.0002  0.2514
  162loPI   C6A 2588   8.397   7.813   8.250 -0.2301  0.1518  0.0192
  162loPI   C1B 2589   9.101   9.095   9.731  0.1227  0.0674 -0.2347
  162loPI   C2B 2590   9.108   9.033   9.277  0.0597 -0.0331  0.0583
  162loPI   C3B 2591   9.088   9.003   8.847 -0.2662 -0.0709 -0.0485
  162loPI   C4B 2592   9.058   8.940   8.376 -0.1909 -0.1942 -0.0076
  163loPI    C1 2593  13.234   3.606  10.540  0.1605  0.0471 -0.0658
  163loPI    C2 2594  13.163   3.568  10.148  0.0547 -0.0274 -0.0400
  163loPI    C3 2595  13.390   3.298  10.337  0.1657  0.0484 -0.0640
  163loPI   PO4 2596  13.009   3.608  10.631 -0.1852  0.0816 -0.0593
  163loPI   GL1 2597  12.718   3.612  10.319  0.0495 -0.0081 -0.2472
  163loPI   GL2 2598  12.636   3.770  10.284 -0.1948 -0.1745  0.0696
  163loPI   C1A 2599  12.701   3.343   9.937 -0.0431  0.0665  0.1590
  163loPI   C2A 2600  12.747   3.233   9.462  0.2054 -0.0537  0.0768
  163loPI   C3A 2601  12.805   3.262   9.038  0.0592 -0.1658  0.0795
  163loPI   C4A 2602  12.909   3.164   8.650  0.0499 -0.5245 -0.1983
  163loPI   C5A 2603  13.210   2.999   8.275  0.1309 -0.0770 -0.4419
  163loPI   C6A 2604  13.643   3.123   8.236 -0.2200 -0.1353 -0.0462
  163loPI   C1B 2605  12.641   3.775   9.771 -0.0167 -0.3419  0.0661
  163loPI   C2B 2606  12.682   3.724   9.322  0.1679  0.0421 -0.1648
  163loPI   C3B 2607  12.776   3.757   8.902 -0.1590 -0.2536  0.0801
  163loPI   C4B 2608  12.709   3.634   8.485  0.0606 -0.0147  0.3067
  164loPI    C1 2609  13.732   5.892  10.582  0.0645  0.0748 -0.1794
  164loPI    C2 2610  14.080   6.078  10.645 -0.0162  0.1937 -0.0808
  164loPI    C3 2611  13.824   6.023  10.948  0.1072 -0.2896 -0.0547
  164loPI   PO4 2612  13.772   5.789  10.355 -0.2554 -0.0732  0.1779
  164loPI   GL1 2613  13.804   5.759   9.900  0.0570  0.1022  0.3097
  164loPI   GL2 2614  13.562   5.619   9.893  0.1733  0.1507  0.2683
  164loPI   C1A 2615  13.888   5.978   9.591 -0.1112  0.2118 -0.0868
  164loPI   C2A 2616  13.822   5.837   9.121 -0.0407  0.0310 -0.1863
  164loPI   C3A 2617  13.915   5.701   8.713  0.1352  0.0876  0.1080
  164loPI   C4A 2618  14.072   5.439   8.301  0.1576  0.1428 -0.0618
  164loPI   C5A 2619  14.334   5.268   7.877  0.4397 -0.1140 -0.0662
  164loPI   C6A 2620  14.293   5.282   7.484 -0.1070  0.3950  0.0714
  164loPI   C1B 2621  13.555   5.433   9.479  0.0701  0.2223 -0.2441
  164loPI   C2B 2622  13.613   5.373   8.979 -0.2938 -0.0635 -0.3061
  164loPI   C3B 2623  13.745   5.153   8.581  0.1528  0.1992  0.1959
  164loPI   C4B 2624  13.814   4.906   8.222 -0.2216 -0.1133  0.0384
  165loPI    C1 2625   2.243   0.348  10.893  0.0102 -0.0127 -0.1389
  165loPI    C2 2626   2.343   0.087  11.179  0.0053 -0.1538 -0.2648
  165loPI    C3 2627   1.967   0.222  11.154  0.0685  0.0728 -0.0350
  165loPI   PO4 2628   2.324   0.241  10.652 -0.2146  0.1938  0.1229
  165loPI   GL1 2629   2.516   0.016  10.375 -0.1034 -0.2035  0.3745
  165loPI   GL2 2630   2.812  -0.208  10.223  0.0662  0.1055  0.1279
  165loPI   C1A 2631   2.396  -0.120  10.040  0.2730 -0.0669  0.1022
  165loPI   C2A 2632   2.300  -0.083   9.574  0.2257  0.1768 -0.1827
  165loPI   C3A 2633   2.203  -0.214   9.061 -0.2453  0.1422 -0.2187
  165loPI   C4A 2634   2.181  -0.148   8.642  0.1492 -0.2174 -0.2664
  165loPI   C5A 2635   2.055  -0.119   8.197  0.3339 -0.2328 -0.0348
  165loPI   C6A 2636   1.828   0.005   7.940  0.1221 -0.2777  0.0972
  165loPI   C1B 2637   2.802  -0.233   9.731  0.0813 -0.1323 -0.2379
  165loPI   C2B 2638   2.637  -0.399   9.403 -0.2040  0.0970 -0.0838
  165loPI   C3B 2639   2.687  -0.398   8.974  0.2239  0.2379 -0.1833
  165loPI   C4B 2640   2.660  -0.427   8.449 -0.2009  0.1527 -0.3143
  166loPI    C1 2641   8.194  15.375  10.707  0.0412 -0.2293 -0.0934
  166loPI    C2 2642   8.303  15.433  11.088 -0.0777  0.1030 -0.1070
  166loPI    C3 2643   7.922  15.348  10.999 -0.0799  0.1701 -0.1630
  166loPI   PO4 2644   8.281  15.578  10.535  0.1077  0.2916 -0.3190
  166loPI   GL1 2645   8.465  15.545  10.173  0.0271  0.1289 -0.2848
  166loPI   GL2 2646   8.810  15.569  10.256  0.1784 -0.2948 -0.0872
  166loPI   C1A 2647   8.498  15.609   9.727  0.2065 -0.1251  0.0701
  166loPI   C2A 2648   8.597  15.684   9.356  0.0552  0.1330 -0.0172
  166loPI   C3A 2649   8.636  15.636   8.878 -0.1895 -0.0138  0.0561
  166loPI   C4A 2650   8.552  15.505   8.451 -0.0361  0.0559  0.4038
  166loPI   C5A 2651   8.608  15.137   8.229  0.0997  0.1482  0.2521
  166loPI   C6A 2652   8.194  14.927   8.061  0.1028  0.0539  0.2117
  166loPI   C1B 2653   8.771  15.238   9.950 -0.0059 -0.0565  0.2119
  166loPI   C2B 2654   8.846  15.257   9.459  0.2522  0.1695 -0.1927
  166loPI   C3B 2655   8.892  15.270   9.099 -0.2444 -0.0439  0.1728
  166loPI   C4B 2656   8.934  15.262   8.671 -0.3893  0.1816  0.3045
  167loPI    C1 2657  11.153   9.279  10.751  0.0276 -0.0012 -0.1145
  167loPI    C2 2658  10.986   8.972  10.946  0.0962 -0.0735 -0.1688
  167loPI    C3 2659  10.924   9.346  11.072  0.0347 -0.1113 -0.0860
  167loPI   PO4 2660  11.080   9.338  10.531 -0.0963  0.2610  0.2521
  167loPI   GL1 2661  10.960   9.369  10.071 -0.0320 -0.3068 -0.0994
  167loPI   GL2 2662  10.651   9.454  10.258 -0.0127 -0.2377 -0.1258
  167loPI   C1A 2663  10.982   9.377   9.653  0.0554  0.2141 -0.0532
  167loPI   C2A 2664  10.918   9.516   9.200 -0.3443  0.2552  0.1145
  167loPI   C3A 2665  10.905   9.523   8.820  0.0468 -0.0893 -0.1370
  167loPI   C4A 2666  11.128   9.639   8.432 -0.0160 -0.0537  0.1556
  167loPI   C5A 2667  11.481   9.714   8.234 -0.3198 -0.1370  0.2981
  167loPI   C6A 2668  11.804   9.845   8.012 -0.0698  0.0458 -0.3189
  167loPI   C1B 2669  10.491   9.597   9.893  0.0711 -0.0655  0.0633
  167loPI   C2B 2670  10.469   9.531   9.482  0.3316 -0.2418  0.0259
  167loPI   C3B 2671  10.386   9.555   9.059 -0.1051  0.2785 -0.0132
  167loPI   C4B 2672  10.395   9.457   8.695 -0.0126 -0.3652  0.0406
  168loPI    C1 2673   7.912   0.952  10.470  0.1834 -0.1783  0.0868
  168loPI    C2 2674   8.158   0.875  10.776  0.1164 -0.0004  0.1871
  168loPI    C3 2675   7.807   1.055  10.842  0.0515 -0.0627  0.0185
  168loPI   PO4 2676   7.838   0.740  10.385 -0.0207  0.0188  0.2169
  168loPI   GL1 2677   7.761   0.715   9.934  0.1446 -0.0013 -0.1611
  168loPI   GL2 2678   7.951   0.395   9.990  0.3472  0.4858 -0.2049
  168loPI   C1A 2679   7.798   0.513   9.555  0.1347  0.1318  0.0681
  168loPI   C2A 2680   7.565   0.606   9.124 -0.1749 -0.4692 -0.1155
  168loPI   C3A 2681   7.589   0.851   8.780 -0.0084 -0.3355  0.3044
  168loPI   C4A 2682   7.685   0.989   8.436  0.0704  0.1076  0.0756
  168loPI   C5A 2683   7.813   0.758   8.022 -0.0730  0.1416  0.1024
  168loPI   C6A 2684   7.710   0.485   7.709 -0.0667 -0.2998 -0.0121
  168loPI   C1B 2685   8.237   0.704   9.820  0.1741  0.0189  0.2718
  168loPI   C2B 2686   8.302   0.667   9.438 -0.0988  0.0479 -0.3344
  168loPI   C3B 2687   8.515   0.688   9.084  0.1042  0.2880 -0.0901
  168loPI   C4B 2688   8.622   1.014   8.770 -0.1945 -0.0409  0.1290
  169loPI    C1 2689   3.288  11.382  10.599 -0.1908 -0.2492  0.1505
  169loPI    C2 2690   3.050  11.574  10.856 -0.1248  0.0057  0.0249
  169loPI    C3 2691   3.444  11.561  10.921 -0.1272 -0.0744  0.0244
  169loPI   PO4 2692   3.303  11.490  10.407 -0.3957  0.0506 -0.1324
  169loPI   GL1 2693   3.119  11.215  10.056  0.1646  0.1225  0.1943
  169loPI   GL2 2694   3.385  11.036  10.127 -0.2679  0.1606  0.1913
  169loPI   C1A 2695   3.229  11.277   9.640 -0.0252 -0.3004 -0.0642
  169loPI   C2A 2696   3.233  11.184   9.297  0.2907 -0.0356  0.0623
  169loPI   C3A 2697   2.999  11.293   8.848  0.3169 -0.2510  0.0958
  169loPI   C4A 2698   2.715  11.563   8.607  0.0699  0.3555 -0.2941
  169loPI   C5A 2699   2.706  11.918   8.308 -0.2849 -0.0385  0.0377
  169loPI   C6A 2700   3.083  12.146   8.203  0.1330 -0.3030  0.2201
  169loPI   C1B 2701   3.427  10.821   9.633 -0.4994  0.2691 -0.1606
  169loPI   C2B 2702   3.612  10.878   9.270 -0.1183 -0.3158  0.1431
  169loPI   C3B 2703   3.525  11.094   8.842  0.0425 -0.0004 -0.3653
  169loPI   C4B 2704   3.442  11.236   8.510  0.1964 -0.2191 -0.1479
  170loPI    C1 2705   0.811  18.389  10.538  0.0887  0.0667  0.0790
  170loPI    C2 2706   0.653  18.667  10.779  0.0023  0.1788 -0.1040
  170loPI    C3 2707   1.017  18.519  10.855 -0.0000  0.2555  0.0608
  170loPI   PO4 2708   0.669  18.190  10.557  0.3151 -0.0539 -0.1532
  170loPI   GL1 2709   0.684  17.922  10.205  0.0632  0.1326 -0.0112
  170loPI   GL2 2710   0.965  17.962  10.090 -0.1416  0.3032 -0.0667
  170loPI   C1A 2711   0.724  17.803   9.693 -0.0951 -0.1005 -0.1665
  170loPI   C2A 2712   0.573  17.954   9.309 -0.1115  0.0264  0.2474
  170loPI   C3A 2713   0.468  17.943   8.747 -0.1831  0.0336 -0.1004
  170loPI   C4A 2714   0.518  18.023   8.383  0.2048 -0.0769 -0.2413
  170loPI   C5A 2715   0.442  17.685   8.009  0.0139  0.0562  0.0652
  170loPI   C6A 2716   0.285  17.508   7.635  0.0481  0.4261  0.0027
  170loPI   C1B 2717   1.231  18.001   9.761  0.2243  0.2171  0.1963
  170loPI   C2B 2718   1.250  18.095   9.237  0.0091 -0.2565 -0.1427
  170loPI   C3B 2719   1.427  18.170   8.941 -0.1715  0.0156 -0.0007
  170loPI   C4B 2720   1.413  18.207   8.503 -0.0682  0.2740 -0.1718
  171loPI    C1 2721  12.718   9.723  10.606 -0.1265  0.1595  0.1247
  171loPI    C2 2722  12.439   9.440  10.555 -0.0441  0.0400  0.3273
  171loPI    C3 2723  12.673   9.435  10.880  0.1683  0.1623  0.1787
  171loPI   PO4 2724  12.703   9.806  10.346  0.0483  0.2127 -0.1693
  171loPI   GL1 2725  12.807  10.034   9.916 -0.1276 -0.0942  0.0658
  171loPI   GL2 2726  12.668  10.249  10.049 -0.0495 -0.0025  0.1796
  171loPI   C1A 2727  12.757  10.089   9.405 -0.5037 -0.0732 -0.0937
  171loPI   C2A 2728  12.717  10.025   9.113  0.5317 -0.0011  0.0442
  171loPI   C3A 2729  12.834  10.017   8.693  0.1350 -0.2042  0.0812
  171loPI   C4A 2730  12.777   9.935   8.281 -0.0605  0.1448 -0.2108
  171loPI   C5A 2731  12.823  10.146   8.000 -0.2040  0.1636  0.0096
  171loPI   C6A 2732  12.566  10.138   7.705  0.0533  0.0048 -0.0626
  171loPI   C1B 2733  12.493  10.429   9.608 -0.3197  0.0551  0.1986
  171loPI   C2B 2734  12.466  10.503   9.203 -0.0602  0.0025  0.3237
  171loPI   C3B 2735  12.565  10.433   8.772 -0.1226 -0.0113 -0.0480
  171loPI   C4B 2736  12.670  10.470   8.403  0.1359 -0.0675 -0.0857
  172loPI    C1 2737   6.884   6.893  10.894 -0.2241  0.0785 -0.0026
  172loPI    C2 2738   6.603   6.648  11.041 -0.1212 -0.1299 -0.1491
  172loPI    C3 2739   6.934   6.723  11.253 -0.2875  0.1225  0.0275
  172loPI   PO4 2740   6.705   7.027  10.714 -0.0600  0.1758 -0.0900
  172loPI   GL1 2741   6.667   7.016  10.324 -0.0995  0.0914  0.0327
  172loPI   GL2 2742   6.626   6.820  10.098  0.0235  0.4322  0.4550
  172loPI   C1A 2743   6.507   7.227   9.883  0.0296  0.2351 -0.2500
  172loPI   C2A 2744   6.518   7.306   9.415  0.1109 -0.0689 -0.2503
  172loPI   C3A 2745   6.583   7.198   8.988  0.1461  0.0962 -0.0127
  172loPI   C4A 2746   6.628   7.132   8.594 -0.3030  0.1499  0.0266
  172loPI   C5A 2747   7.027   7.173   8.271  0.2094 -0.1305  0.1041
  172loPI   C6A 2748   7.393   7.229   7.979  0.2119  0.0720  0.3514
  172loPI   C1B 2749   6.785   6.861   9.656  0.2009  0.0262 -0.0847
  172loPI   C2B 2750   6.731   6.861   9.301  0.2434  0.3734 -0.1447
  172loPI   C3B 2751   6.840   6.811   8.944 -0.1299  0.3566 -0.2081
  172loPI   C4B 2752   6.826   6.679   8.481  0.1050 -0.1779 -0.1672
  173loPI    C1 2753  12.865  14.877  11.145 -0.1104 -0.0839  0.2473
  173loPI    C2 2754  12.732  15.254  11.144 -0.1809 -0.1052 -0.1470
  173loPI    C3 2755  12.569  14.985  11.391  0.0194  0.1684  0.2957
  173loPI   PO4 2756  12.864  14.847  10.839 -0.1431 -0.1545  0.0795
  173loPI   GL1 2757  12.875  14.852  10.400  0.1619 -0.0527 -0.0325
  173loPI   GL2 2758  12.819  15.175  10.200 -0.2729 -0.1162  0.1888
  173loPI   C1A 2759  12.630  14.720  10.083 -0.1739 -0.1749  0.0412
  173loPI   C2A 2760  12.666  14.516   9.743  0.0838  0.3789 -0.0371
  173loPI   C3A 2761  12.636  14.406   9.310  0.2312  0.2272  0.1542
  173loPI   C4A 2762  12.622  14.489   8.930  0.0241 -0.0962  0.0876
  173loPI   C5A 2763  12.698  14.454   8.436 -0.2136  0.3073 -0.2395
  173loPI   C6A 2764  12.998  14.666   8.159 -0.0430 -0.1442  0.0857
  173loPI   C1B 2765  12.735  15.034   9.719  0.1608  0.2884 -0.2839
  173loPI   C2B 2766  12.825  14.856   9.327 -0.2154 -0.1198  0.0668
  173loPI   C3B 2767  12.860  14.980   8.956  0.0734 -0.1503  0.1992
  173loPI   C4B 2768  12.684  14.918   8.572 -0.0442 -0.2224  0.0288
  174loPI    C1 2769   0.500   7.654  10.602  0.0132 -0.0192 -0.1504
  174loPI    C2 2770   0.272   7.414  10.378 -0.3489 -0.0758  0.2647
  174loPI    C3 2771   0.537   7.256  10.633  0.4451 -0.0121 -0.4727
  174loPI   PO4 2772   0.704   7.748  10.408  0.0077  0.1070 -0.0463
  174loPI   GL1 2773   0.712   7.518  10.099  0.2469  0.2818 -0.0594
  174loPI   GL2 2774   0.416   7.402   9.909  0.0555  0.2795 -0.2083
  174loPI   C1A 2775   0.948   7.567   9.617 -0.0790 -0.0112 -0.1428
  174loPI   C2A 2776   0.976   7.471   9.253  0.0663  0.3043  0.2266
  174loPI   C3A 2777   1.081   7.450   8.806  0.0668  0.0123 -0.4062
  174loPI   C4A 2778   1.005   7.570   8.331  0.1344  0.4252 -0.1942
  174loPI   C5A 2779   0.917   7.748   7.953  0.0619 -0.0819  0.0263
  174loPI   C6A 2780   0.878   8.056   7.654  0.0981 -0.0150  0.2940
  174loPI   C1B 2781   0.488   7.487   9.487 -0.1340  0.0372  0.1841
  174loPI   C2B 2782   0.562   7.433   8.995  0.3430 -0.3324  0.0262
  174loPI   C3B 2783   0.514   7.686   8.629  0.1737 -0.2958 -0.3575
  174loPI   C4B 2784   0.497   7.682   8.233 -0.0945 -0.2696 -0.1420
  175loPI    C1 2785   6.320   8.630  11.310  0.1663  0.1147  0.1329
  175loPI    C2 2786   6.156   8.983  11.405  0.0148  0.0757  0.0218
  175loPI    C3 2787   6.550   8.956  11.340 -0.0256  0.3037 -0.3423
  175loPI   PO4 2788   6.206   8.439  11.042  0.1196 -0.1059 -0.0216
  175loPI   GL1 2789   6.055   8.361  10.630 -0.0575  0.3821 -0.0070
  175loPI   GL2 2790   6.276   8.167  10.395 -0.0803 -0.2343 -0.3285
  175loPI   C1A 2791   5.794   8.192  10.194  0.1443  0.4508 -0.1349
  175loPI   C2A 2792   5.906   8.077   9.757 -0.3588 -0.0575 -0.1406
  175loPI   C3A 2793   5.888   8.052   9.260 -0.1550 -0.1998  0.3199
  175loPI   C4A 2794   5.988   8.070   8.911  0.0079 -0.0578  0.0390
  175loPI   C5A 2795   6.195   8.008   8.527  0.1028 -0.1062 -0.2985
  175loPI   C6A 2796   6.608   8.138   8.269 -0.0273  0.2188  0.0991
  175loPI   C1B 2797   6.348   8.165  10.023  0.1913 -0.1944  0.0391
  175loPI   C2B 2798   6.455   8.081   9.633 -0.0631  0.0297 -0.2205
  175loPI   C3B 2799   6.407   8.096   9.196  0.0847  0.3382 -0.1601
  175loPI   C4B 2800   6.562   8.124   8.869 -0.2155 -0.3165 -0.3595
  176loPI    C1 2801   3.189  12.040  10.802  0.0086  0.0113  0.1668
  176loPI    C2 2802   2.955  12.362  10.758 -0.0599 -0.0872 -0.2298
  176loPI    C3 2803   2.806  12.027  10.917 -0.0164  0.0397  0.0875
  176loPI   PO4 2804   3.375  11.963  10.606  0.1862 -0.1994  0.0626
  176loPI   GL1 2805   3.392  11.939  10.185  0.0791  0.0451  0.1749
  176loPI   GL2 2806   3.197  11.721   9.993 -0.0871  0.2227 -0.1529
  176loPI   C1A 2807   3.378  12.124   9.744 -0.0765  0.1160 -0.2748
  176loPI   C2A 2808   3.304  12.431   9.387 -0.0927  0.1353  0.3681
  176loPI   C3A 2809   3.212  12.652   8.946 -0.0847 -0.0223 -0.0759
  176loPI   C4A 2810   3.129  12.722   8.565  0.1350 -0.2925 -0.0950
  176loPI   C5A 2811   2.967  12.633   8.068  0.0304 -0.0284  0.0484
  176loPI   C6A 2812   2.780  12.668   7.698 -0.1448  0.1305 -0.0538
  176loPI   C1B 2813   3.003  11.787   9.567  0.3527  0.1096  0.0496
  176loPI   C2B 2814   2.909  12.189   9.267  0.1335 -0.0676  0.0461
  176loPI   C3B 2815   2.761  12.247   8.874 -0.0468 -0.1059 -0.1474
  176loPI   C4B 2816   2.765  12.424   8.493  0.0198  0.0371 -0.0047
  177loPI    C1 2817  14.511   5.434  10.497  0.1268 -0.2257  0.0770
  177loPI    C2 2818  14.228   5.215  10.675 -0.0590 -0.0393  0.0154
  177loPI    C3 2819  14.199   5.614  10.670  0.2553 -0.0126  0.0910
  177loPI   PO4 2820  14.566   5.367  10.212  0.0226  0.0987 -0.2375
  177loPI   GL1 2821  14.463   5.401   9.875 -0.0113  0.1196  0.0538
  177loPI   GL2 2822  14.163   5.231   9.720 -0.1983  0.0965 -0.0461
  177loPI   C1A 2823  14.341   5.718   9.598  0.2265 -0.2996 -0.0950
  177loPI   C2A 2824  14.357   6.096   9.665  0.1753  0.1390 -0.1342
  177loPI   C3A 2825  14.218   6.499   9.586  0.0658  0.2036  0.2952
  177loPI   C4A 2826  13.922   6.839   9.457 -0.4926  0.2057 -0.1272
  177loPI   C5A 2827  13.486   6.753   9.349  0.0106 -0.0635 -0.0611
  177loPI   C6A 2828  13.164   6.549   9.137 -0.2700  0.2644 -0.1405
  177loPI   C1B 2829  14.059   5.345   9.297  0.0777 -0.0860 -0.5202
  177loPI   C2B 2830  14.192   5.275   8.848 -0.1602  0.3008 -0.1020
  177loPI   C3B 2831  14.267   4.891   8.510  0.2464  0.0644 -0.4349
  177loPI   C4B 2832  14.253   4.700   8.102  0.0316 -0.0952  0.0611
  178loPI    C1 2833   6.621   4.187  10.596  0.0649 -0.3641  0.1236
  178loPI    C2 2834   6.541   4.384  10.934  0.3721  0.1355 -0.0841
  178loPI    C3 2835   6.712   4.023  10.949 -0.0075 -0.0371  0.2971
  178loPI   PO4 2836   6.800   4.306  10.422  0.4407 -0.2816  0.1351
  178loPI   GL1 2837   7.102   4.246   9.996  0.0143 -0.0300 -0.1400
  178loPI   GL2 2838   7.019   4.538  10.005 -0.0985  0.0422 -0.2957
  178loPI   C1A 2839   7.263   4.131   9.605 -0.1171 -0.3115  0.1548
  178loPI   C2A 2840   7.219   4.478   9.367  0.2342 -0.0777  0.0995
  178loPI   C3A 2841   6.928   4.578   9.037  0.2268 -0.1561 -0.2815
  178loPI   C4A 2842   6.768   4.347   8.587 -0.3212  0.1959  0.4194
  178loPI   C5A 2843   6.661   4.467   8.146 -0.2936  0.0270 -0.0924
  178loPI   C6A 2844   6.730   4.191   7.923  0.1189 -0.0869  0.1061
  178loPI   C1B 2845   6.928   4.823   9.594  0.4873 -0.1649 -0.3156
  178loPI   C2B 2846   6.907   5.063   9.225 -0.0778 -0.0471  0.0258
  178loPI   C3B 2847   6.980   5.010   8.807 -0.1345 -0.0045  0.0332
  178loPI   C4B 2848   6.977   4.856   8.371  0.0505  0.0328  0.1268
  179loPI    C1 2849  15.472   2.072  10.802  0.4965 -0.2520  0.0303
  179loPI    C2 2850  15.210   1.872  11.028  0.0428  0.0714 -0.1944
  179loPI    C3 2851  15.407   2.185  11.180  0.1174 -0.0213 -0.0988
  179loPI   PO4 2852  15.332   2.015  10.551  0.1625  0.0482  0.0741
  179loPI   GL1 2853  15.361   1.894  10.084  0.3001 -0.2199 -0.0089
  179loPI   GL2 2854  15.607   2.021  10.083 -0.3588 -0.2598 -0.0611
  179loPI   C1A 2855  15.186   1.815   9.696  0.0197 -0.2666 -0.2934
  179loPI   C2A 2856  15.283   1.812   9.230 -0.2814 -0.2353  0.0655
  179loPI   C3A 2857  15.224   1.774   8.825  0.0025  0.2065  0.2188
  179loPI   C4A 2858  15.286   1.780   8.398  0.1826 -0.0912  0.3270
  179loPI   C5A 2859  15.659   1.915   8.062  0.2859  0.2544 -0.2378
  179loPI   C6A 2860  15.828   1.955   7.681  0.2848 -0.0643 -0.0445
  179loPI   C1B 2861  15.593   2.118   9.656  0.1118 -0.0468  0.0499
  179loPI   C2B 2862  15.593   2.196   9.178 -0.1268  0.2319  0.1174
  179loPI   C3B 2863  15.627   2.156   8.732  0.0874 -0.3104  0.3863
  179loPI   C4B 2864  15.822   2.312   8.264 -0.0460 -0.0690 -0.4901
  180loPI    C1 2865   8.974   8.072  11.093  0.0693 -0.0025  0.0984
  180loPI    C2 2866   8.681   8.321  10.983  0.0762 -0.0330  0.0103
  180loPI    C3 2867   8.764   8.269  11.371 -0.1474 -0.1534  0.0440
  180loPI   PO4 2868   8.949   7.926  10.844 -0.1096  0.2201 -0.2287
  180loPI   GL1 2869   8.749   7.914  10.487  0.0726  0.0439  0.0089
  180loPI   GL2 2870   8.690   8.233  10.478 -0.0135  0.1060  0.1289
  180loPI   C1A 2871   8.852   7.716  10.103  0.1856 -0.0788  0.2060
  180loPI   C2A 2872   8.869   7.763   9.646  0.1110  0.1584  0.1727
  180loPI   C3A 2873   8.928   7.750   9.168  0.0523 -0.0887  0.0668
  180loPI   C4A 2874   8.883   7.702   8.761  0.3600  0.0263 -0.3178
  180loPI   C5A 2875   8.725   7.455   8.445  0.2750 -0.3119  0.0866
  180loPI   C6A 2876   8.664   7.439   7.961 -0.1229  0.3314  0.0732
  180loPI   C1B 2877   8.613   8.290  10.000 -0.3098 -0.0867 -0.2062
  180loPI   C2B 2878   8.644   8.193   9.547 -0.0891 -0.1159 -0.1218
  180loPI   C3B 2879   8.613   8.103   9.092 -0.1673 -0.2199  0.0655
  180loPI   C4B 2880   8.561   8.096   8.694  0.0725 -0.0525 -0.0096
  181loPI    C1 2881  18.308  16.077  10.860  0.0748  0.1882  0.1630
  181loPI    C2 2882  18.383  16.043  11.251 -0.2594 -0.0485  0.2105
  181loPI    C3 2883  18.559  15.794  10.991  0.0607  0.1898  0.1933
  181loPI   PO4 2884  18.290  16.258  10.805  0.0932 -0.0463  0.0806
  181loPI   GL1 2885  18.091  16.304  10.432 -0.1882  0.0234 -0.0269
  181loPI   GL2 2886  18.268  16.124  10.271  0.3277  0.1100 -0.0936
  181loPI   C1A 2887  18.012  16.500  10.044 -0.0732 -0.0805  0.0206
  181loPI   C2A 2888  17.840  16.503   9.660 -0.0368 -0.0153 -0.2105
  181loPI   C3A 2889  17.790  16.451   9.233 -0.0586  0.1729 -0.0461
  181loPI   C4A 2890  17.661  16.409   8.761 -0.3187 -0.1098 -0.3372
  181loPI   C5A 2891  17.635  16.494   8.394 -0.3611 -0.1072  0.0858
  181loPI   C6A 2892  17.875  16.459   8.107  0.2243 -0.2671 -0.1842
  181loPI   C1B 2893  18.379  16.143   9.852 -0.0847  0.0819 -0.0838
  181loPI   C2B 2894  18.351  16.253   9.468 -0.0409  0.2059 -0.0872
  181loPI   C3B 2895  18.234  16.314   9.061  0.1403  0.0363  0.0154
  181loPI   C4B 2896  18.307  16.295   8.674  0.1149 -0.3860  0.0976
  182loPI    C1 2897  17.475  11.638  10.789  0.0145  0.2125  0.1486
  182loPI    C2 2898  17.186  11.824  10.994 -0.1518 -0.2347  0.3327
  182loPI    C3 2899  17.555  11.799  11.146 -0.1275 -0.0578  0.3055
  182loPI   PO4 2900  17.534  11.690  10.489 -0.1607  0.0600  0.0211
  182loPI   GL1 2901  17.398  11.619  10.084 -0.0103 -0.1219  0.1128
  182loPI   GL2 2902  17.236  11.412  10.222 -0.0845  0.0198 -0.0084
  182loPI   C1A 2903  17.274  11.769   9.636 -0.2880 -0.0512  0.0009
  182loPI   C2A 2904  17.168  11.814   9.296  0.1397  0.1672  0.1707
  182loPI   C3A 2905  17.145  11.919   8.918  0.1656  0.0921 -0.0776
  182loPI   C4A 2906  17.005  12.275   8.767  0.0002  0.0497  0.2451
  182loPI   C5A 2907  16.856  12.290   8.367  0.0238  0.0326 -0.0738
  182loPI   C6A 2908  16.589  12.246   8.074  0.2306 -0.0996 -0.0740
  182loPI   C1B 2909  17.130  11.287   9.822  0.1716 -0.1826  0.2266
  182loPI   C2B 2910  17.083  11.146   9.434 -0.0356  0.3264 -0.1128
  182loPI   C3B 2911  16.965  10.703   9.366  0.0885  0.0311  0.0283
  182loPI   C4B 2912  16.887  10.475   8.958 -0.0677  0.1388  0.2283
  183loPI    C1 2913  17.528   3.414  10.344  0.1846  0.1418  0.0698
  183loPI    C2 2914  17.530   3.023  10.425  0.0301  0.1592  0.1613
  183loPI    C3 2915  17.336   3.276  10.666 -0.1998  0.2455 -0.1092
  183loPI   PO4 2916  17.481   3.423  10.140  0.2061  0.0196  0.1097
  183loPI   GL1 2917  17.582   3.284   9.773 -0.0512 -0.0950 -0.0296
  183loPI   GL2 2918  17.640   2.937   9.834  0.0618 -0.3764 -0.1097
  183loPI   C1A 2919  17.458   3.308   9.345  0.1009  0.0296 -0.1861
  183loPI   C2A 2920  17.410   3.211   8.865  0.0049  0.1952  0.1632
  183loPI   C3A 2921  17.431   2.866   8.660 -0.0185  0.4015 -0.0360
  183loPI   C4A 2922  17.214   2.622   8.333 -0.0604  0.1699  0.0859
  183loPI   C5A 2923  16.730   2.544   8.235  0.1396  0.1383 -0.0666
  183loPI   C6A 2924  16.240   2.554   8.232  0.1226 -0.4548 -0.1189
  183loPI   C1B 2925  17.859   2.868   9.548  0.1106  0.1619 -0.1798
  183loPI   C2B 2926  17.684   2.647   9.159  0.1240  0.1120 -0.0387
  183loPI   C3B 2927  17.334   2.389   8.909  0.0071  0.0081  0.1888
  183loPI   C4B 2928  16.972   2.183   8.624 -0.0772 -0.1083 -0.1311
  184loPI    C1 2929   0.544   8.863  10.410 -0.1309  0.0579  0.0782
  184loPI    C2 2930   0.366   9.190  10.265 -0.0656 -0.0208 -0.1858
  184loPI    C3 2931   0.489   9.181  10.646 -0.2366  0.1909 -0.1234
  184loPI   PO4 2932   0.654   8.763  10.172  0.2037  0.0737 -0.2549
  184loPI   GL1 2933   0.745   8.408   9.888 -0.0915 -0.0355 -0.0814
  184loPI   GL2 2934   1.021   8.391   9.763 -0.2751 -0.4707 -0.1472
  184loPI   C1A 2935   0.565   8.678   9.535  0.1045  0.0669  0.1198
  184loPI   C2A 2936   0.273   8.906   9.367 -0.0345 -0.1863 -0.0745
  184loPI   C3A 2937   0.196   8.967   8.904 -0.1683 -0.0798 -0.1704
  184loPI   C4A 2938   0.095   8.980   8.510 -0.1219  0.2194 -0.0523
  184loPI   C5A 2939  -0.075   8.895   8.086 -0.0835  0.1678 -0.2298
  184loPI   C6A 2940   0.133   9.072   7.709  0.1205 -0.0754  0.1230
  184loPI   C1B 2941   1.047   8.475   9.369  0.3069 -0.3425  0.1689
  184loPI   C2B 2942   1.071   8.529   8.916  0.1906  0.2167 -0.1855
  184loPI   C3B 2943   1.084   8.551   8.456 -0.0893  0.1125 -0.0732
  184loPI   C4B 2944   0.916   8.857   8.283 -0.1825 -0.1863 -0.3609
  185loPI    C1 2945   6.130  10.583  10.682  0.2284 -0.1103  0.0636
  185loPI    C2 2946   6.423  10.493  10.940 -0.1403 -0.3728  0.4034
  185loPI    C3 2947   6.079  10.647  11.074 -0.0652  0.1964 -0.0204
  185loPI   PO4 2948   6.048  10.398  10.549 -0.0705  0.1037 -0.3549
  185loPI   GL1 2949   6.057  10.214  10.161  0.0393  0.2242 -0.0547
  185loPI   GL2 2950   5.760  10.064  10.045  0.1745  0.0826 -0.0688
  185loPI   C1A 2951   6.251  10.064   9.778  0.2562  0.0953 -0.0341
  185loPI   C2A 2952   6.457  10.033   9.375  0.2161 -0.1383  0.1669
  185loPI   C3A 2953   6.604   9.878   9.015  0.0238  0.1763  0.1154
  185loPI   C4A 2954   6.426   9.882   8.541  0.0927 -0.0497  0.2006
  185loPI   C5A 2955   6.519   9.746   8.090 -0.1843  0.1899  0.1508
  185loPI   C6A 2956   6.832   9.689   7.851 -0.1455  0.0599  0.4667
  185loPI   C1B 2957   5.858   9.839   9.525 -0.2934  0.0592 -0.1584
  185loPI   C2B 2958   6.001   9.843   9.150  0.0323 -0.1169 -0.0759
  185loPI   C3B 2959   5.988   9.817   8.808  0.0954 -0.0616  0.3144
  185loPI   C4B 2960   5.994  10.250   8.588 -0.0535  0.1526 -0.0583
  186loPI    C1 2961  15.591   3.153  10.611  0.0497  0.0276 -0.0612
  186loPI    C2 2962  15.353   3.128  10.932  0.0679  0.0032 -0.0495
  186loPI    C3 2963  15.563   3.462  10.864  0.0308  0.0246 -0.0595
  186loPI   PO4 2964  15.584   3.004  10.320  0.0379  0.0794  0.0203
  186loPI   GL1 2965  15.619   3.009   9.995 -0.2606 -0.1426 -0.1567
  186loPI   GL2 2966  15.385   3.103   9.772  0.0171 -0.0068  0.1333
  186loPI   C1A 2967  15.895   2.949   9.627  0.0982 -0.0051  0.2137
  186loPI   C2A 2968  15.958   2.945   9.191  0.1717 -0.2473 -0.3549
  186loPI   C3A 2969  16.059   2.637   8.769  0.2176  0.1090 -0.0075
  186loPI   C4A 2970  16.456   2.320   8.640 -0.2770 -0.1892  0.3337
  186loPI   C5A 2971  16.630   1.969   8.387  0.0641  0.1510  0.1812
  186loPI   C6A 2972  16.690   1.625   8.158  0.3925 -0.1694 -0.1345
  186loPI   C1B 2973  15.147   2.919   9.543  0.1058 -0.1666 -0.2839
  186loPI   C2B 2974  15.025   2.826   9.156 -0.0326 -0.1701 -0.0854
  186loPI   C3B 2975  15.093   2.831   8.771 -0.3744 -0.1035  0.3432
  186loPI   C4B 2976  15.142   2.983   8.287 -0.0059 -0.0936 -0.1546
  187loPI    C1 2977  11.689   4.179  10.635  0.0286 -0.3033  0.1833
  187loPI    C2 2978  11.426   4.427  10.807 -0.1184 -0.2881 -0.0579
  187loPI    C3 2979  11.746   4.300  11.011  0.0247  0.1963  0.0300
  187loPI   PO4 2980  11.808   4.189  10.449  0.2038 -0.4226 -0.1464
  187loPI   GL1 2981  11.964   4.367  10.195 -0.0061 -0.3261  0.1487
  187loPI   GL2 2982  12.074   4.624   9.996  0.3475  0.2810 -0.1054
  187loPI   C1A 2983  11.815   4.225   9.768 -0.0095 -0.1935 -0.0857
  187loPI   C2A 2984  11.836   4.218   9.313 -0.0664  0.0607  0.0872
  187loPI   C3A 2985  11.705   4.237   8.879  0.3232 -0.2090 -0.3162
  187loPI   C4A 2986  11.762   4.335   8.431  0.2115  0.1850 -0.0744
  187loPI   C5A 2987  11.928   4.735   8.160 -0.4423  0.3597  0.0322
  187loPI   C6A 2988  12.149   4.929   7.900 -0.1928 -0.1722 -0.0843
  187loPI   C1B 2989  12.041   4.652   9.511  0.1610 -0.2704 -0.0477
  187loPI   C2B 2990  12.083   4.574   9.073 -0.0185 -0.1488 -0.1551
  187loPI   C3B 2991  12.177   4.598   8.564 -0.1776  0.2602  0.0263
  187loPI   C4B 2992  12.334   4.478   8.200 -0.0914 -0.0190 -0.4423
  188loPI    C1 2993   9.530   2.476  11.014  0.0879  0.0505 -0.0982
  188loPI    C2 2994   9.849   2.252  10.924 -0.1334 -0.2709 -0.0960
  188loPI    C3 2995   9.733   2.290  11.304  0.1430  0.1840 -0.0503
  188loPI   PO4 2996   9.381   2.434  10.782 -0.1950  0.0520  0.3076
  188loPI   GL1 2997   9.323   2.535  10.366  0.2562 -0.2147 -0.3183
  188loPI   GL2 2998   9.148   2.243  10.352 -0.2160  0.1756 -0.0283
  188loPI   C1A 2999   9.515   2.810  10.195 -0.0724 -0.0041 -0.0437
  188loPI   C2A 3000   9.555   2.858   9.645 -0.1727 -0.0734 -0.0026
  188loPI   C3A 3001   9.621   2.821   9.171 -0.1533  0.1375 -0.1174
  188loPI   C4A 3002   9.728   2.580   8.814  0.0174  0.2180  0.1656
  188loPI   C5A 3003   9.835   2.586   8.379 -0.0501  0.2115  0.0065
  188loPI   C6A 3004  10.059   2.346   8.095 -0.4210  0.0614 -0.0192
  188loPI   C1B 3005   9.238   2.312   9.964 -0.2253  0.0739  0.0335
  188loPI   C2B 3006   9.150   2.497   9.685 -0.1305  0.3475  0.3684
  188loPI   C3B 3007   9.172   2.423   9.254 -0.2901  0.0964  0.2949
  188loPI   C4B 3008   9.337   2.339   8.908  0.2119 -0.1420  0.2214
  189loPI    C1 3009  13.428   6.535  10.695  0.0930  0.2398 -0.0019
  189loPI    C2 3010  13.691   6.500  10.995  0.0824  0.0538 -0.0130
  189loPI    C3 3011  13.298   6.501  11.072  0.0774 -0.0990 -0.0352
  189loPI   PO4 3012  13.643   6.364  10.496  0.0700 -0.0251 -0.3852
  189loPI   GL1 3013  13.529   6.176  10.079  0.1607  0.0774  0.1274
  189loPI   GL2 3014  13.360   6.485  10.167  0.0983 -0.2545 -0.0776
  189loPI   C1A 3015  13.380   6.029   9.716  0.2331  0.0653 -0.1220
  189loPI   C2A 3016  13.309   6.161   9.397 -0.2163 -0.0564 -0.3569
  189loPI   C3A 3017  13.409   6.090   9.012 -0.1489  0.1189  0.2086
  189loPI   C4A 3018  13.389   5.692   8.761  0.3819  0.0606  0.0049
  189loPI   C5A 3019  13.089   5.463   8.373  0.0496 -0.0407 -0.3093
  189loPI   C6A 3020  12.942   5.557   7.975  0.1688  0.1854  0.0109
  189loPI   C1B 3021  13.217   6.490   9.835 -0.1891  0.2880 -0.0057
  189loPI   C2B 3022  12.811   6.668   9.626 -0.0773 -0.4346 -0.0377
  189loPI   C3B 3023  12.717   6.699   9.101  0.2396  0.1291 -0.1363
  189loPI   C4B 3024  12.422   6.843   8.751 -0.0865 -0.1581  0.0538
  190loPI    C1 3025   3.925   3.184  10.858 -0.0948 -0.0391  0.0740
  190loPI    C2 3026   3.682   2.915  11.026 -0.1285 -0.0651 -0.0160
  190loPI    C3 3027   3.839   3.208  11.248 -0.1477 -0.1174  0.0674
  190loPI   PO4 3028   3.794   3.189  10.584  0.2086  0.2751  0.0035
  190loPI   GL1 3029   3.836   3.011  10.283  0.0019  0.2714  0.1618
  190loPI   GL2 3030   4.268   3.021  10.270  0.1230 -0.1388  0.4986
  190loPI   C1A 3031   3.849   2.927   9.860 -0.2882 -0.0385 -0.0925
  190loPI   C2A 3032   3.539   3.097   9.540 -0.1857  0.0610 -0.0556
  190loPI   C3A 3033   3.680   3.146   9.108 -0.4206  0.0771 -0.3309
  190loPI   C4A 3034   3.729   3.175   8.654 -0.0431  0.0339 -0.0933
  190loPI   C5A 3035   3.790   2.926   8.242 -0.2211  0.0488 -0.1261
  190loPI   C6A 3036   4.256   2.774   8.112  0.2116  0.0904 -0.1046
  190loPI   C1B 3037   4.319   2.992   9.879  0.2122  0.0015 -0.1484
  190loPI   C2B 3038   4.130   2.909   9.450 -0.0355  0.3793 -0.3724
  190loPI   C3B 3039   4.135   2.914   9.046 -0.3977 -0.0197 -0.0611
  190loPI   C4B 3040   4.145   2.797   8.629  0.1087 -0.2105  0.2837
  191loPI    C1 3041  15.063  11.331  10.332  0.2281 -0.1545  0.0976
  191loPI    C2 3042  14.900  11.165  10.657  0.1803 -0.2218  0.0396
  191loPI    C3 3043  14.860  11.557  10.591 -0.0711 -0.2595 -0.0415
  191loPI   PO4 3044  14.950  11.174  10.127 -0.1803  0.5191 -0.0097
  191loPI   GL1 3045  14.956  11.108   9.703  0.1551  0.0144 -0.2050
  191loPI   GL2 3046  14.794  11.073   9.479  0.0267 -0.1884 -0.4366
  191loPI   C1A 3047  15.325  11.232   9.357  0.2447 -0.1652 -0.3187
  191loPI   C2A 3048  15.586  11.202   9.022 -0.1203 -0.0511 -0.0635
  191loPI   C3A 3049  15.899  11.034   8.654 -0.2710 -0.0126  0.1778
  191loPI   C4A 3050  16.044  10.718   8.305 -0.1278  0.0811 -0.3344
  191loPI   C5A 3051  16.096  10.696   7.949  0.0128  0.0108  0.0949
  191loPI   C6A 3052  16.245  10.644   7.555  0.1045  0.0521  0.0218
  191loPI   C1B 3053  14.965  10.935   9.163 -0.1271  0.2951  0.0035
  191loPI   C2B 3054  15.310  10.797   9.110  0.1819 -0.0034 -0.1032
  191loPI   C3B 3055  15.741  10.672   9.027  0.0721  0.1606 -0.1643
  191loPI   C4B 3056  16.099  10.584   8.737 -0.0282 -0.2205 -0.3380
  192loPI    C1 3057   7.939  11.913  10.694 -0.0662 -0.0358  0.0336
  192loPI    C2 3058   7.573  12.061  10.631 -0.0103  0.1220  0.0766
  192loPI    C3 3059   7.643  11.829  10.949 -0.0991 -0.0015  0.0067
  192loPI   PO4 3060   7.977  11.840  10.375 -0.1935  0.0087  0.1436
  192loPI   GL1 3061   8.096  11.640  10.063  0.1334  0.1151 -0.1040
  192loPI   GL2 3062   7.756  11.540   9.939 -0.3326 -0.0678 -0.1061
  192loPI   C1A 3063   8.241  11.320   9.776  0.1799  0.2359  0.3401
  192loPI   C2A 3064   8.217  11.340   9.394  0.1801  0.0247  0.1677
  192loPI   C3A 3065   8.299  11.254   8.973  0.0487 -0.0307  0.0804
  192loPI   C4A 3066   8.342  11.160   8.659 -0.0263 -0.1765 -0.1130
  192loPI   C5A 3067   8.484  11.302   8.305 -0.0861 -0.3986 -0.0011
  192loPI   C6A 3068   8.697  11.656   8.160 -0.1088 -0.0441  0.1239
  192loPI   C1B 3069   7.852  11.662   9.547  0.0794 -0.2174  0.1741
  192loPI   C2B 3070   7.963  11.662   9.018  0.0418  0.1701  0.0075
  192loPI   C3B 3071   8.010  11.457   8.585 -0.0543 -0.1143 -0.2059
  192loPI   C4B 3072   8.048  11.358   8.144  0.1242 -0.0767  0.0135
  193loPI    C1 3073   6.421  14.788  10.910 -0.0582  0.1040  0.0423
  193loPI    C2 3074   6.344  14.560  11.230 -0.2174  0.0261 -0.0508
  193loPI    C3 3075   6.584  14.878  11.265 -0.0841 -0.0901  0.1043
  193loPI   PO4 3076   6.470  14.677  10.735  0.2934 -0.1726  0.0552
  193loPI   GL1 3077   6.507  14.898  10.421  0.5084  0.0975 -0.0140
  193loPI   GL2 3078   6.250  15.128  10.303 -0.3686  0.0219 -0.3047
  193loPI   C1A 3079   6.537  14.804  10.013  0.0466  0.2883 -0.3368
  193loPI   C2A 3080   6.490  15.197   9.704 -0.1562  0.0487  0.0755
  193loPI   C3A 3081   6.640  15.259   9.235 -0.2773 -0.0216  0.2124
  193loPI   C4A 3082   6.797  15.302   8.816 -0.1384 -0.1914  0.2263
  193loPI   C5A 3083   6.946  15.549   8.447  0.0225  0.0816 -0.3197
  193loPI   C6A 3084   7.165  15.360   8.040 -0.0401  0.0509  0.4072
  193loPI   C1B 3085   6.101  14.937   9.917  0.2890  0.1674 -0.0741
  193loPI   C2B 3086   6.048  14.904   9.441 -0.1104  0.0447 -0.1976
  193loPI   C3B 3087   5.801  14.853   9.209  0.0189  0.0028  0.0633
  193loPI   C4B 3088   5.588  14.619   8.914 -0.1514 -0.0477 -0.0703
  194loPI    C1 3089   8.275  16.453  10.821  0.2287  0.1094 -0.0578
  194loPI    C2 3090   8.568  16.285  11.035 -0.1474 -0.0111  0.3785
  194loPI    C3 3091   8.547  16.683  11.003  0.3155 -0.0098 -0.0356
  194loPI   PO4 3092   8.252  16.326  10.622 -0.1226 -0.1977  0.1170
  194loPI   GL1 3093   7.990  16.425  10.358  0.2008 -0.0583  0.2302
  194loPI   GL2 3094   7.597  16.222  10.300 -0.1455 -0.2203 -0.0697
  194loPI   C1A 3095   8.013  16.430   9.885  0.3934 -0.0659 -0.1590
  194loPI   C2A 3096   8.090  16.514   9.484 -0.4167 -0.1347 -0.1831
  194loPI   C3A 3097   8.098  16.570   8.956 -0.0645  0.0598  0.0075
  194loPI   C4A 3098   8.094  16.632   8.538 -0.2518  0.2345 -0.0579
  194loPI   C5A 3099   7.935  16.367   8.222 -0.0791  0.1483 -0.0937
  194loPI   C6A 3100   7.990  15.977   7.931 -0.0167 -0.6295 -0.1884
  194loPI   C1B 3101   7.559  16.492   9.994 -0.0104  0.1673  0.0900
  194loPI   C2B 3102   7.588  16.597   9.621 -0.0634  0.2985  0.0126
  194loPI   C3B 3103   7.567  16.795   9.103 -0.2046  0.0023 -0.0532
  194loPI   C4B 3104   7.459  16.852   8.729  0.0595 -0.2665 -0.4492
  195loPI    C1 3105  17.922   9.329  10.568  0.1062 -0.0328  0.0205
  195loPI    C2 3106  18.127   9.648  10.694  0.1651 -0.0762  0.0352
  195loPI    C3 3107  17.956   9.404  10.960 -0.0631  0.0625  0.0181
  195loPI   PO4 3108  18.098   9.256  10.439  0.0704 -0.2108 -0.1604
  195loPI   GL1 3109  18.003   9.188   9.990 -0.2397 -0.0783 -0.1199
  195loPI   GL2 3110  18.250   9.212   9.943 -0.2899  0.2457 -0.0304
  195loPI   C1A 3111  17.848   9.477   9.530 -0.2525 -0.1900  0.1285
  195loPI   C2A 3112  17.866   9.582   9.026  0.0136 -0.1819 -0.0197
  195loPI   C3A 3113  17.809   9.544   8.591 -0.0940  0.3556 -0.0455
  195loPI   C4A 3114  17.650   9.507   8.134 -0.0423  0.0987  0.0047
  195loPI   C5A 3115  17.632   9.440   7.642 -0.2980 -0.1281  0.5795
  195loPI   C6A 3116  17.747   9.332   7.232  0.1451  0.1006 -0.0933
  195loPI   C1B 3117  18.314   9.074   9.583 -0.1646  0.0611 -0.1500
  195loPI   C2B 3118  18.246   9.238   9.143  0.1991  0.1508 -0.0769
  195loPI   C3B 3119  18.171   9.245   8.734  0.3015  0.2226  0.0415
  195loPI   C4B 3120  18.095   9.246   8.319 -0.0655 -0.0307  0.2509
  196loPI    C1 3121   5.292  10.108  10.235  0.1715 -0.0662 -0.1780
  196loPI    C2 3122   5.452   9.809  10.447 -0.1340  0.0825  0.2776
  196loPI    C3 3123   5.578  10.185  10.503  0.0589  0.0786 -0.0975
  196loPI   PO4 3124   5.265   9.948   9.996  0.2001  0.0068  0.1022
  196loPI   GL1 3125   5.351  10.005   9.556 -0.0253 -0.1573 -0.0730
  196loPI   GL2 3126   5.157  10.193   9.589  0.2106 -0.3921  0.2853
  196loPI   C1A 3127   5.442   9.930   9.173  0.0878 -0.0883 -0.0488
  196loPI   C2A 3128   5.567  10.063   8.843  0.3443  0.1601  0.2509
  196loPI   C3A 3129   5.579   9.876   8.436  0.0710  0.1822 -0.4071
  196loPI   C4A 3130   5.333   9.532   8.116  0.0771 -0.1367  0.1168
  196loPI   C5A 3131   4.948   9.304   8.155 -0.0851  0.0223 -0.0273
  196loPI   C6A 3132   4.793   8.995   7.839  0.0276 -0.2852  0.0023
  196loPI   C1B 3133   5.110  10.352   9.247  0.0312  0.0717 -0.2554
  196loPI   C2B 3134   5.147  10.292   8.897 -0.4465 -0.2871  0.2332
  196loPI   C3B 3135   5.064  10.264   8.501 -0.3558  0.1529 -0.1094
  196loPI   C4B 3136   5.005  10.294   7.970 -0.0326  0.0876  0.2993
  197loPI    C1 3137  18.219   1.177  11.051 -0.0795 -0.2274  0.0082
  197loPI    C2 3138  18.387   1.191  11.414  0.2033  0.1682 -0.1299
  197loPI    C3 3139  18.188   1.508  11.274 -0.2818 -0.1361 -0.1529
  197loPI   PO4 3140  18.410   0.973  10.933 -0.1981 -0.1441  0.1251
  197loPI   GL1 3141  18.475   1.010  10.365 -0.1487  0.0614  0.3261
  197loPI   GL2 3142  18.404   1.303  10.534 -0.0382  0.1323 -0.0398
  197loPI   C1A 3143  18.519   1.114   9.847 -0.0137  0.2353 -0.1267
  197loPI   C2A 3144  18.521   1.081   9.393  0.0633 -0.1687  0.0340
  197loPI   C3A 3145  18.615   1.129   9.042  0.1421  0.0296 -0.1973
  197loPI   C4A 3146  18.631   1.111   8.627 -0.0558  0.3729  0.0741
  197loPI   C5A 3147  18.541   1.282   8.323 -0.0645 -0.1651  0.0822
  197loPI   C6A 3148  18.471   1.202   7.903 -0.2605  0.2463  0.1242
  197loPI   C1B 3149  18.398   1.535  10.179  0.1759  0.2097  0.2310
  197loPI   C2B 3150  18.356   1.559   9.720 -0.1937  0.0011  0.3032
  197loPI   C3B 3151  18.312   1.551   9.268  0.0198  0.3096  0.0115
  197loPI   C4B 3152  18.592   1.609   8.925  0.0594 -0.2135 -0.1141
  198loPI    C1 3153   1.485  12.716  10.883  0.0707  0.0652  0.0613
  198loPI    C2 3154   1.474  13.086  11.033 -0.1031  0.0476  0.0933
  198loPI    C3 3155   1.238  12.802  11.185  0.0419 -0.0810  0.0800
  198loPI   PO4 3156   1.596  12.712  10.599 -0.0549  0.4224 -0.1490
  198loPI   GL1 3157   1.432  12.515  10.242  0.1573 -0.0847 -0.0640
  198loPI   GL2 3158   1.269  12.785  10.250  0.1728 -0.1588  0.1371
  198loPI   C1A 3159   1.685  12.617   9.843  0.1467 -0.0643 -0.2675
  198loPI   C2A 3160   1.741  12.676   9.437 -0.0680  0.2083  0.1195
  198loPI   C3A 3161   1.951  12.589   9.064  0.0760 -0.2209 -0.2393
  198loPI   C4A 3162   1.706  12.526   8.739  0.0277  0.0863 -0.0255
  198loPI   C5A 3163   1.403  12.448   8.447  0.0989  0.2467  0.1058
  198loPI   C6A 3164   0.974  12.398   8.461  0.0299 -0.0754  0.2008
  198loPI   C1B 3165   1.109  12.618   9.898 -0.0563  0.1209  0.1179
  198loPI   C2B 3166   1.261  12.758   9.472 -0.1960  0.0343  0.0274
  198loPI   C3B 3167   1.244  12.677   9.092  0.1345  0.1047 -0.2321
  198loPI   C4B 3168   1.193  12.859   8.662 -0.2788 -0.2311  0.0601
  199loPI    C1 3169   3.013  14.325  10.781 -0.1539 -0.0629  0.0220
  199loPI    C2 3170   2.847  14.403  11.137 -0.1338  0.0115  0.0150
  199loPI    C3 3171   2.955  14.029  11.045  0.1700  0.0446  0.2202
  199loPI   PO4 3172   3.147  14.495  10.700  0.1541 -0.2054 -0.1004
  199loPI   GL1 3173   3.091  14.647  10.345 -0.2918  0.0457 -0.1995
  199loPI   GL2 3174   2.864  14.466  10.309  0.1741  0.1582 -0.1518
  199loPI   C1A 3175   3.335  14.844  10.051  0.1765 -0.2088  0.0091
  199loPI   C2A 3176   3.315  14.847   9.666  0.0573  0.2174 -0.1710
  199loPI   C3A 3177   3.279  14.898   9.214 -0.2511  0.2657 -0.0532
  199loPI   C4A 3178   3.166  14.903   8.835  0.2806  0.0364 -0.1974
  199loPI   C5A 3179   3.172  14.889   8.400 -0.0440  0.1013  0.2578
  199loPI   C6A 3180   3.407  14.478   8.215 -0.4228  0.2430 -0.2995
  199loPI   C1B 3181   2.886  14.543   9.899 -0.3814  0.0482 -0.1051
  199loPI   C2B 3182   2.887  14.630   9.431 -0.1957 -0.0244  0.1275
  199loPI   C3B 3183   2.780  14.644   8.998  0.0243  0.1367 -0.0700
  199loPI   C4B 3184   2.708  14.643   8.565 -0.1449  0.0764  0.0900
  200loPI    C1 3185  16.657   0.046  11.207 -0.1725 -0.2134 -0.1707
  200loPI    C2 3186  17.029   0.127  11.327 -0.1489 -0.2443 -0.2221
  200loPI    C3 3187  16.724   0.351  11.456 -0.1113 -0.2107 -0.1905
  200loPI   PO4 3188  16.673   0.042  10.918  0.2637 -0.1712  0.2703
  200loPI   GL1 3189  16.703   0.197  10.428  0.0304 -0.3713 -0.1141
  200loPI   GL2 3190  16.954   0.398  10.389 -0.1516 -0.2409 -0.3092
  200loPI   C1A 3191  16.527  -0.067  10.127 -0.3439  0.1409  0.1560
  200loPI   C2A 3192  16.384  -0.077   9.793 -0.1021  0.2332  0.0304
  200loPI   C3A 3193  16.394  -0.044   9.360  0.0728 -0.0619  0.2946
  200loPI   C4A 3194  16.390  -0.190   8.981 -0.1274 -0.0427  0.0795
  200loPI   C5A 3195  16.391  -0.237   8.567 -0.1479 -0.1866  0.2355
  200loPI   C6A 3196  16.673  -0.001   8.262 -0.1406 -0.2309  0.1462
  200loPI   C1B 3197  16.837   0.297   9.939 -0.1736  0.0304 -0.1843
  200loPI   C2B 3198  16.759   0.239   9.512 -0.3795  0.1704  0.2032
  200loPI   C3B 3199  16.808   0.170   9.090 -0.0821  0.1468  0.3212
  200loPI   C4B 3200  16.975   0.230   8.641 -0.0255  0.0571 -0.0652
  201loPI    C1 3201   8.514  12.342  10.694  0.1103  0.0526  0.1223
  201loPI    C2 3202   8.487  12.652  10.442 -0.3043 -0.0570  0.0241
  201loPI    C3 3203   8.619  12.709  10.816  0.1198  0.1421 -0.1490
  201loPI   PO4 3204   8.367  12.180  10.626 -0.0785 -0.1489 -0.1038
  201loPI   GL1 3205   8.287  12.132  10.185 -0.0867 -0.1209 -0.2628
  201loPI   GL2 3206   8.428  12.047   9.987  0.0793  0.2305 -0.1827
  201loPI   C1A 3207   7.920  12.079   9.802 -0.0379  0.3577 -0.2135
  201loPI   C2A 3208   7.602  12.102   9.513  0.0644 -0.0444 -0.1114
  201loPI   C3A 3209   7.655  12.093   9.014 -0.0445  0.1519  0.2099
  201loPI   C4A 3210   7.690  12.477   8.777  0.0531  0.3981 -0.0570
  201loPI   C5A 3211   7.759  12.844   8.648  0.0208  0.0375 -0.2331
  201loPI   C6A 3212   7.776  13.047   8.282  0.1831  0.2391 -0.0526
  201loPI   C1B 3213   8.369  11.770   9.646 -0.0525 -0.1131 -0.1995
  201loPI   C2B 3214   8.483  11.758   9.236 -0.0576 -0.3952  0.1142
  201loPI   C3B 3215   8.559  11.694   8.727  0.0990 -0.0838 -0.1238
  201loPI   C4B 3216   8.266  11.800   8.385 -0.0310  0.0769  0.1386
  202loPI    C1 3217   1.077  14.742  11.175  0.0581  0.3397  0.0524
  202loPI    C2 3218   1.410  14.703  11.394  0.0747  0.0948 -0.0126
  202loPI    C3 3219   1.106  14.927  11.528  0.0709 -0.0789  0.2780
  202loPI   PO4 3220   1.120  14.807  10.938 -0.0987 -0.1567  0.0425
  202loPI   GL1 3221   1.088  14.573  10.489 -0.0811  0.0563 -0.3764
  202loPI   GL2 3222   0.903  14.460  10.372 -0.0774  0.2153 -0.3506
  202loPI   C1A 3223   1.436  14.578  10.194 -0.0785  0.0332  0.0861
  202loPI   C2A 3224   1.604  14.484   9.872 -0.1773  0.1610 -0.1553
  202loPI   C3A 3225   1.470  14.564   9.482 -0.2050 -0.0927 -0.0759
  202loPI   C4A 3226   1.389  14.560   9.045 -0.1587  0.0519 -0.1061
  202loPI   C5A 3227   1.438  14.718   8.613 -0.1674 -0.0593 -0.3092
  202loPI   C6A 3228   1.343  14.780   8.111 -0.1696  0.1925 -0.5619
  202loPI   C1B 3229   1.023  14.659   9.958  0.1406  0.0479 -0.0043
  202loPI   C2B 3230   1.061  14.756   9.575  0.1302  0.1161  0.3039
  202loPI   C3B 3231   0.958  14.879   9.086  0.3660 -0.1398  0.0772
  202loPI   C4B 3232   0.941  14.911   8.669  0.2651  0.0771  0.3169
  203loPI    C1 3233   2.726   1.022  10.681 -0.1711 -0.0339 -0.1055
  203loPI    C2 3234   2.594   1.300  10.936 -0.0449  0.0371 -0.1164
  203loPI    C3 3235   2.967   1.160  10.969 -0.0732 -0.0534 -0.1775
  203loPI   PO4 3236   2.636   1.144  10.489 -0.1999 -0.1655 -0.0235
  203loPI   GL1 3237   2.404   1.058  10.104 -0.0854 -0.0760 -0.2966
  203loPI   GL2 3238   2.603   0.753  10.020 -0.2375  0.0272 -0.0401
  203loPI   C1A 3239   2.396   1.172   9.642  0.3837  0.0887 -0.1918
  203loPI   C2A 3240   2.398   1.095   9.234  0.1067 -0.0961  0.1054
  203loPI   C3A 3241   2.556   1.131   8.741 -0.0792 -0.1328 -0.0994
  203loPI   C4A 3242   2.490   1.290   8.308  0.1691  0.0868 -0.1739
  203loPI   C5A 3243   2.312   1.112   7.965 -0.1543  0.0096 -0.2996
  203loPI   C6A 3244   2.011   1.142   7.630  0.0680  0.4960 -0.2564
  203loPI   C1B 3245   2.506   0.668   9.532  0.1666 -0.1600  0.3157
  203loPI   C2B 3246   2.519   0.661   8.997  0.1045 -0.1523 -0.0726
  203loPI   C3B 3247   2.528   0.679   8.526 -0.0732  0.1352  0.1252
  203loPI   C4B 3248   2.681   0.827   8.112 -0.2576 -0.1481  0.3131
  204loPI    C1 3249   3.177   0.549  10.993 -0.1343  0.0561  0.2551
  204loPI    C2 3250   3.397   0.236  10.875 -0.1408  0.0760  0.1897
  204loPI    C3 3251   3.539   0.489  11.150  0.0371  0.2478 -0.0565
  204loPI   PO4 3252   3.085   0.660  10.679 -0.0071  0.3496  0.0237
  204loPI   GL1 3253   3.043   0.617  10.279 -0.1166 -0.0728  0.1073
  204loPI   GL2 3254   3.125   0.641   9.993  0.1057 -0.1732  0.2904
  204loPI   C1A 3255   2.864   0.239   9.988 -0.1183 -0.2057 -0.2045
  204loPI   C2A 3256   2.673   0.256   9.644  0.1297  0.3380  0.2113
  204loPI   C3A 3257   2.568   0.121   9.213  0.2192 -0.1042 -0.1000
  204loPI   C4A 3258   2.538   0.085   8.846 -0.0447 -0.3545  0.3229
  204loPI   C5A 3259   2.565   0.050   8.354 -0.0076 -0.1890 -0.3540
  204loPI   C6A 3260   2.508   0.036   7.964  0.0133 -0.0707 -0.2600
  204loPI   C1B 3261   3.055   0.532   9.536  0.4597 -0.1879  0.1466
  204loPI   C2B 3262   2.962   0.481   9.143  0.1015  0.1353 -0.0367
  204loPI   C3B 3263   2.916   0.427   8.715  0.0937  0.1075  0.2570
  204loPI   C4B 3264   2.920   0.408   8.288 -0.0045  0.0765 -0.0293
  205loPI    C1 3265   3.659   9.826  10.714 -0.0600 -0.1968 -0.0879
  205loPI    C2 3266   3.768  10.178  10.559 -0.0496 -0.1552  0.0129
  205loPI    C3 3267   3.448  10.155  10.798 -0.0242 -0.2063  0.0422
  205loPI   PO4 3268   3.737   9.663  10.448 -0.2488  0.0999 -0.1724
  205loPI   GL1 3269   3.668   9.771  10.001  0.2640  0.0425  0.1206
  205loPI   GL2 3270   3.487   9.489  10.030  0.2119 -0.1064  0.3465
  205loPI   C1A 3271   3.888   9.978   9.654  0.0547 -0.0464  0.0166
  205loPI   C2A 3272   3.771   9.905   9.250 -0.0807 -0.0073  0.0515
  205loPI   C3A 3273   3.779   9.840   8.841  0.0825 -0.0639 -0.0507
  205loPI   C4A 3274   3.634   9.489   8.678 -0.1285 -0.2743  0.0908
  205loPI   C5A 3275   3.532   9.485   8.119 -0.3457 -0.1977  0.3156
  205loPI   C6A 3276   3.539   9.797   7.775  0.1880  0.1144  0.0018
  205loPI   C1B 3277   3.583   9.450   9.624  0.0487  0.2222 -0.0166
  205loPI   C2B 3278   3.661   9.405   9.172  0.0115  0.1001  0.2555
  205loPI   C3B 3279   4.085   9.492   9.046  0.1933  0.2575  0.1645
  205loPI   C4B 3280   4.322   9.680   8.838 -0.0699 -0.3945 -0.0526
  206loPI    C1 3281   6.132   4.089  10.885 -0.0397  0.0829  0.1691
  206loPI    C2 3282   6.306   3.789  10.686  0.1259  0.3745 -0.1342
  206loPI    C3 3283   6.305   3.789  11.086  0.2306  0.0323 -0.1311
  206loPI   PO4 3284   6.099   4.298  10.685 -0.0770  0.0529  0.0633
  206loPI   GL1 3285   6.218   4.176  10.257 -0.1253 -0.0654 -0.2414
  206loPI   GL2 3286   6.157   3.952  10.124  0.4268 -0.1077 -0.3916
  206loPI   C1A 3287   6.019   4.438   9.798 -0.0006  0.0686 -0.1952
  206loPI   C2A 3288   6.087   4.461   9.357 -0.2193  0.0684 -0.1984
  206loPI   C3A 3289   5.980   4.250   8.986 -0.0589  0.2230  0.1341
  206loPI   C4A 3290   5.753   4.388   8.709 -0.1492 -0.3108  0.2005
  206loPI   C5A 3291   5.784   4.223   8.320 -0.3858 -0.0424  0.2897
  206loPI   C6A 3292   5.760   4.177   7.945  0.4251  0.3153  0.2101
  206loPI   C1B 3293   6.287   3.997   9.753 -0.1495  0.1784  0.0438
  206loPI   C2B 3294   6.243   3.995   9.354 -0.0625 -0.1474 -0.4343
  206loPI   C3B 3295   6.410   3.973   8.819 -0.0508  0.0990  0.2314
  206loPI   C4B 3296   6.720   3.809   8.560  0.2995  0.1134  0.1339
  207loPI    C1 3297  15.293   4.202  10.420  0.1595  0.1807  0.2481
  207loPI    C2 3298  15.464   3.911  10.635 -0.0441 -0.0907  0.0494
  207loPI    C3 3299  15.126   4.082  10.762 -0.1486 -0.2306 -0.0375
  207loPI   PO4 3300  15.480   4.398  10.363 -0.1926 -0.4460  0.2709
  207loPI   GL1 3301  15.373   4.595  10.004 -0.1328 -0.1277  0.0067
  207loPI   GL2 3302  15.729   4.496   9.881  0.2063  0.0800  0.0801
  207loPI   C1A 3303  15.347   4.442   9.600  0.1953  0.1491 -0.1397
  207loPI   C2A 3304  15.150   4.294   9.249 -0.1258 -0.1287  0.0668
  207loPI   C3A 3305  15.400   4.186   8.902  0.0215 -0.1152  0.0573
  207loPI   C4A 3306  15.472   4.128   8.465  0.2097  0.3611  0.2386
  207loPI   C5A 3307  15.804   4.091   8.268  0.0288  0.1979  0.0880
  207loPI   C6A 3308  16.172   3.786   8.017 -0.1645 -0.1321 -0.4644
  207loPI   C1B 3309  16.041   4.259   9.511 -0.0982 -0.1607  0.0503
  207loPI   C2B 3310  15.914   3.891   9.179  0.0438  0.0913 -0.0606
  207loPI   C3B 3311  15.944   3.419   9.006 -0.1041  0.0023 -0.0310
  207loPI   C4B 3312  16.095   3.156   8.564  0.2063  0.5461 -0.0134
  208loPI    C1 3313   1.128  13.876  10.838 -0.1589 -0.1897 -0.1709
  208loPI    C2 3314   1.166  13.513  10.674 -0.1111 -0.2245 -0.0832
  208loPI    C3 3315   1.317  13.585  11.037  0.1422 -0.0337 -0.2229
  208loPI   PO4 3316   1.249  14.090  10.624  0.0508 -0.1495  0.0047
  208loPI   GL1 3317   1.235  14.043  10.190  0.0603 -0.0021 -0.1101
  208loPI   GL2 3318   1.230  13.665  10.179 -0.0922  0.1641 -0.1643
  208loPI   C1A 3319   1.085  14.184   9.809  0.0373 -0.0455 -0.0947
  208loPI   C2A 3320   1.034  14.265   9.313  0.1917 -0.1657 -0.0394
  208loPI   C3A 3321   0.972  14.302   8.905 -0.3684 -0.0817  0.2043
  208loPI   C4A 3322   1.063  14.476   8.498 -0.2723 -0.2881  0.2956
  208loPI   C5A 3323   1.031  14.324   8.056 -0.0460 -0.0130 -0.2393
  208loPI   C6A 3324   1.001  14.094   7.750  0.0484  0.1315 -0.0229
  208loPI   C1B 3325   1.237  13.704   9.797 -0.3535  0.1247  0.0653
  208loPI   C2B 3326   1.207  13.635   9.418 -0.2680 -0.4061  0.1638
  208loPI   C3B 3327   1.098  13.796   8.985  0.0115 -0.2697  0.0246
  208loPI   C4B 3328   1.083  13.944   8.457 -0.1872 -0.2470  0.1954
  209loPI    C1 3329  10.544   0.052  11.022 -0.1410  0.0797 -0.0728
  209loPI    C2 3330  10.495   0.064  11.418 -0.0290  0.1796 -0.0614
  209loPI    C3 3331  10.203  -0.078  11.185  0.0155 -0.1498  0.0783
  209loPI   PO4 3332  10.561   0.252  10.941  0.0042  0.2084 -0.0107
  209loPI   GL1 3333  10.602   0.355  10.503  0.0338  0.1097  0.0418
  209loPI   GL2 3334  10.871   0.466  10.371  0.1277  0.1575 -0.1535
  209loPI   C1A 3335  10.485   0.119  10.198 -0.0508  0.1211  0.0489
  209loPI   C2A 3336  10.350   0.199   9.773 -0.3000 -0.0019  0.4219
  209loPI   C3A 3337  10.376   0.461   9.387 -0.3163  0.2370 -0.0828
  209loPI   C4A 3338  10.430   0.402   9.037 -0.3464  0.0855  0.1737
  209loPI   C5A 3339  10.415   0.105   8.770 -0.1386  0.0219 -0.0917
  209loPI   C6A 3340  10.349  -0.294   8.564 -0.1699  0.2663  0.1025
  209loPI   C1B 3341  11.169   0.569  10.037  0.0079 -0.1118  0.2868
  209loPI   C2B 3342  11.262   0.516   9.642 -0.0931 -0.4254 -0.0078
  209loPI   C3B 3343  11.243   0.514   9.253  0.2909 -0.0097  0.0110
  209loPI   C4B 3344  11.281   0.460   8.820  0.1571 -0.0164  0.2358
  210loPI    C1 3345   9.514   9.501  10.874 -0.1091  0.1591 -0.3096
  210loPI    C2 3346   9.705   9.159  10.797 -0.3101 -0.0426  0.0593
  210loPI    C3 3347   9.908   9.503  10.810 -0.0903 -0.1581 -0.2175
  210loPI   PO4 3348   9.330   9.455  10.768 -0.3443  0.0334  0.0172
  210loPI   GL1 3349   9.222   9.560  10.293 -0.4369  0.1341 -0.0751
  210loPI   GL2 3350   9.202   9.975  10.251  0.0677  0.0543 -0.1091
  210loPI   C1A 3351   9.235   9.527   9.874 -0.1399  0.0279  0.2192
  210loPI   C2A 3352   9.335   9.478   9.414  0.1927  0.1706  0.0151
  210loPI   C3A 3353   9.340   9.532   8.887 -0.1482 -0.1271  0.0552
  210loPI   C4A 3354   9.206   9.394   8.532  0.0743  0.0845  0.0253
  210loPI   C5A 3355   9.285   9.628   8.088 -0.4725 -0.1839  0.1206
  210loPI   C6A 3356   9.252   9.664   7.646  0.1769  0.2029 -0.2487
  210loPI   C1B 3357   9.027  10.009   9.827  0.1676 -0.3471 -0.0672
  210loPI   C2B 3358   9.082   9.914   9.400 -0.0731  0.2929  0.0807
  210loPI   C3B 3359   9.110  10.000   9.042  0.0397 -0.3186 -0.2492
  210loPI   C4B 3360   9.151   9.967   8.559 -0.0147  0.2029  0.3662
  211loPI    C1 3361   3.291  18.128  11.010  0.2281 -0.1670  0.2688
  211loPI    C2 3362   2.926  18.219  11.146  0.0462 -0.0391 -0.2813
  211loPI    C3 3363   3.200  18.069  11.395 -0.1624  0.4923  0.2926
  211loPI   PO4 3364   3.242  18.142  10.748  0.3099 -0.0607  0.0871
  211loPI   GL1 3365   3.420  18.152  10.312 -0.3614 -0.0781  0.0486
  211loPI   GL2 3366   3.252  17.859  10.297  0.0561 -0.2548 -0.2051
  211loPI   C1A 3367   3.235  18.326   9.913 -0.3839 -0.1953  0.4128
  211loPI   C2A 3368   3.133  18.384   9.445 -0.0898  0.0541 -0.2562
  211loPI   C3A 3369   3.007  18.384   9.009  0.0279 -0.0704  0.0457
  211loPI   C4A 3370   3.036  18.327   8.480  0.3182 -0.2366 -0.1958
  211loPI   C5A 3371   3.020  18.300   7.977  0.3508 -0.1386  0.1119
  211loPI   C6A 3372   3.361  18.103   7.759  0.0786 -0.0846 -0.1799
  211loPI   C1B 3373   3.281  17.825   9.911 -0.1190  0.3081  0.1079
  211loPI   C2B 3374   3.103  17.809   9.429  0.1649 -0.1062 -0.2630
  211loPI   C3B 3375   3.148  17.869   9.073 -0.1841 -0.1337  0.0817
  211loPI   C4B 3376   3.018  17.788   8.693  0.0390 -0.0241 -0.2487
  212loPI    C1 3377   9.497   3.257  10.910 -0.0761  0.1359 -0.0992
  212loPI    C2 3378   9.440   2.931  10.686  0.4121 -0.0493  0.0322
  212loPI    C3 3379   9.299   2.943  11.060  0.1658 -0.0011 -0.0603
  212loPI   PO4 3380   9.438   3.415  10.752  0.0963 -0.0995  0.1357
  212loPI   GL1 3381   9.157   3.362  10.341  0.2725 -0.1890  0.0633
  212loPI   GL2 3382   9.020   2.960  10.309  0.1017 -0.1264 -0.1589
  212loPI   C1A 3383   9.239   3.396   9.926  0.0991  0.3385 -0.3333
  212loPI   C2A 3384   9.448   3.351   9.568  0.1726  0.0859  0.1224
  212loPI   C3A 3385   9.538   3.273   9.131 -0.2375 -0.3788  0.2803
  212loPI   C4A 3386   9.514   3.192   8.803  0.1351 -0.0105 -0.1632
  212loPI   C5A 3387   9.691   3.094   8.379  0.4452 -0.0162  0.4107
  212loPI   C6A 3388   9.861   2.944   8.037 -0.0523  0.0800 -0.3173
  212loPI   C1B 3389   9.097   2.952   9.906 -0.0120  0.0535 -0.0088
  212loPI   C2B 3390   9.078   2.903   9.378 -0.2320 -0.0302  0.1721
  212loPI   C3B 3391   9.137   2.810   8.918 -0.2407 -0.1177 -0.0562
  212loPI   C4B 3392   9.310   2.680   8.457  0.1231  0.0751 -0.0965
  213loPI    C1 3393  17.091   7.926  10.718  0.1972  0.1124 -0.0726
  213loPI    C2 3394  17.066   7.906  11.116  0.1074  0.0858 -0.0793
  213loPI    C3 3395  16.759   8.050  10.903  0.1249  0.0278 -0.1441
  213loPI   PO4 3396  17.309   7.987  10.653 -0.3530  0.0957  0.3278
  213loPI   GL1 3397  17.309   7.964  10.187 -0.3052 -0.0297 -0.0624
  213loPI   GL2 3398  17.340   8.123   9.976  0.0450 -0.1095 -0.1843
  213loPI   C1A 3399  17.396   7.582   9.885  0.3977  0.0875 -0.2505
  213loPI   C2A 3400  17.433   7.474   9.449  0.2963  0.0493 -0.2135
  213loPI   C3A 3401  17.371   7.418   8.993 -0.0698 -0.1269 -0.1155
  213loPI   C4A 3402  17.377   7.194   8.622 -0.1802 -0.0142  0.2072
  213loPI   C5A 3403  17.285   6.985   8.167 -0.1066  0.2971  0.2658
  213loPI   C6A 3404  17.326   7.053   7.636  0.0447  0.0071 -0.0708
  213loPI   C1B 3405  17.605   7.960   9.666  0.0275  0.0888 -0.2989
  213loPI   C2B 3406  17.492   7.956   9.266 -0.0387 -0.2209 -0.0158
  213loPI   C3B 3407  17.422   8.042   8.843 -0.3093  0.0916  0.0104
  213loPI   C4B 3408  17.177   8.057   8.449  0.2983 -0.1365  0.3997
  214loPI    C1 3409  13.983   8.883  10.713 -0.1872 -0.0860 -0.0627
  214loPI    C2 3410  13.657   8.913  10.484 -0.2716  0.2353  0.0933
  214loPI    C3 3411  13.620   8.877  10.880 -0.1173  0.3261  0.1167
  214loPI   PO4 3412  14.110   8.736  10.593 -0.0208 -0.0386 -0.1811
  214loPI   GL1 3413  14.172   8.782  10.150 -0.3296 -0.1440 -0.0660
  214loPI   GL2 3414  14.017   9.048  10.068  0.0319  0.0745 -0.3789
  214loPI   C1A 3415  14.145   8.779   9.684 -0.0376 -0.3662 -0.1955
  214loPI   C2A 3416  14.067   8.754   9.230 -0.2404  0.0286  0.1824
  214loPI   C3A 3417  14.042   8.565   8.784  0.1535  0.0373 -0.0791
  214loPI   C4A 3418  13.893   8.559   8.338 -0.2105  0.0408  0.0973
  214loPI   C5A 3419  13.637   8.822   8.127  0.2263 -0.0659  0.0560
  214loPI   C6A 3420  13.718   9.336   8.107  0.0573  0.1266  0.0891
  214loPI   C1B 3421  13.676   8.683   9.841  0.0586  0.0550  0.2250
  214loPI   C2B 3422  13.597   8.684   9.443 -0.2776  0.1901  0.2037
  214loPI   C3B 3423  13.529   8.586   9.024  0.1537 -0.1265  0.0278
  214loPI   C4B 3424  13.424   8.785   8.693 -0.0937 -0.3193 -0.2304
  215loPI    C1 3425   8.307  17.837  10.634  0.1484  0.1036 -0.0496
  215loPI    C2 3426   8.227  18.066  10.952 -0.2555 -0.3654  0.2004
  215loPI    C3 3427   7.954  18.024  10.662  0.0523 -0.0611 -0.1437
  215loPI   PO4 3428   8.562  17.944  10.518  0.2989 -0.0507 -0.0402
  215loPI   GL1 3429   8.763  18.240  10.240 -0.0127  0.0557 -0.1548
  215loPI   GL2 3430   8.672  18.057  10.008  0.1864 -0.2143  0.1068
  215loPI   C1A 3431   9.056  18.370   9.940 -0.0772 -0.0829  0.0516
  215loPI   C2A 3432   9.251  18.469   9.590  0.1322 -0.3256  0.1575
  215loPI   C3A 3433   9.380  18.768   9.454  0.2155  0.0179 -0.2849
  215loPI   C4A 3434   9.557  18.737   9.063 -0.4594  0.0290 -0.2657
  215loPI   C5A 3435   9.490  18.514   8.659  0.0310  0.0105 -0.3904
  215loPI   C6A 3436   9.615  18.482   8.238 -0.0722 -0.0930  0.0794
  215loPI   C1B 3437   8.683  18.276   9.643  0.1721 -0.2517 -0.0835
  215loPI   C2B 3438   8.900  18.384   9.264  0.1597  0.4122 -0.2191
  215loPI   C3B 3439   8.822  18.467   8.879 -0.1743  0.0561  0.2248
  215loPI   C4B 3440   9.032  18.556   8.540  0.4501  0.1608 -0.1947
  216loPI    C1 3441  11.551  13.454  11.027 -0.0857  0.1832 -0.0265
  216loPI    C2 3442  11.274  13.433  10.739 -0.0564  0.0752 -0.0472
  216loPI    C3 3443  11.220  13.236  11.083  0.0042  0.0372 -0.0593
  216loPI   PO4 3444  11.770  13.516  10.869  0.0856 -0.3002 -0.0003
  216loPI   GL1 3445  11.741  13.546  10.420  0.0959  0.1819  0.3435
  216loPI   GL2 3446  11.441  13.528  10.203 -0.0426 -0.1927 -0.0667
  216loPI   C1A 3447  11.817  13.248  10.201 -0.1602 -0.1444  0.0886
  216loPI   C2A 3448  11.826  13.125   9.712  0.0028 -0.3564  0.0704
  216loPI   C3A 3449  11.812  13.207   9.239  0.0439 -0.1371 -0.1443
  216loPI   C4A 3450  11.904  13.106   8.858  0.0827  0.0173  0.0258
  216loPI   C5A 3451  12.016  13.036   8.444 -0.0674 -0.0727 -0.2890
  216loPI   C6A 3452  12.049  12.878   8.011 -0.1645  0.1264 -0.0180
  216loPI   C1B 3453  11.530  13.636   9.735  0.0948 -0.0045  0.0646
  216loPI   C2B 3454  11.530  13.607   9.292 -0.1282  0.1508 -0.1153
  216loPI   C3B 3455  11.604  13.542   8.834 -0.2112  0.0158 -0.0576
  216loPI   C4B 3456  11.656  13.503   8.357  0.3565  0.2313  0.0486
  217loPI    C1 3457  17.987  16.746  10.929  0.1309  0.3482 -0.3204
  217loPI    C2 3458  17.906  16.665  11.312  0.0809  0.1948 -0.3626
  217loPI    C3 3459  18.103  16.999  11.216  0.0879  0.2371 -0.2040
  217loPI   PO4 3460  17.800  16.577  10.808  0.1347  0.0190  0.1425
  217loPI   GL1 3461  17.634  16.576  10.394 -0.0350  0.0130 -0.0189
  217loPI   GL2 3462  17.612  16.233  10.312 -0.0363  0.0306 -0.0793
  217loPI   C1A 3463  17.544  16.889  10.074  0.1002  0.1436 -0.1027
  217loPI   C2A 3464  17.551  16.969   9.559 -0.1228 -0.0879 -0.1503
  217loPI   C3A 3465  17.753  16.953   9.179 -0.3227  0.1410 -0.1434
  217loPI   C4A 3466  17.623  16.905   8.776  0.3038  0.0298  0.1612
  217loPI   C5A 3467  17.418  16.927   8.321 -0.1065  0.1761  0.2532
  217loPI   C6A 3468  17.146  16.869   7.945 -0.2201 -0.2925 -0.0522
  217loPI   C1B 3469  17.428  16.151   9.931  0.1048  0.1814  0.0414
  217loPI   C2B 3470  17.442  16.129   9.435 -0.0530  0.2694  0.0005
  217loPI   C3B 3471  17.289  16.115   9.087  0.1528  0.1523  0.3335
  217loPI   C4B 3472  17.400  15.984   8.683  0.0100  0.0725  0.0690
  218loPI    C1 3473   0.513   4.173  10.528  0.2782  0.0994  0.2322
  218loPI    C2 3474   0.425   4.278  10.152  0.1122 -0.1730  0.1923
  218loPI    C3 3475   0.185   4.390  10.453  0.1395 -0.1200  0.1945
  218loPI   PO4 3476   0.719   4.030  10.470  0.4375  0.1284  0.0469
  218loPI   GL1 3477   0.616   3.775  10.093 -0.0625  0.0384 -0.1325
  218loPI   GL2 3478   0.951   3.875  10.046 -0.0381 -0.0282  0.0055
  218loPI   C1A 3479   0.507   4.173   9.715 -0.2072  0.1084  0.0586
  218loPI   C2A 3480   0.588   4.311   9.260 -0.0651 -0.0211  0.0990
  218loPI   C3A 3481   0.627   4.368   8.785  0.0105  0.0561 -0.2942
  218loPI   C4A 3482   0.401   4.394   8.400 -0.2093  0.0226  0.1174
  218loPI   C5A 3483   0.335   4.305   7.998  0.1728  0.4542  0.0349
  218loPI   C6A 3484   0.344   3.858   7.848  0.3917  0.2862 -0.4339
  218loPI   C1B 3485   0.977   3.960   9.615  0.0149 -0.1226  0.1701
  218loPI   C2B 3486   0.988   3.941   9.184 -0.2338  0.1655 -0.0568
  218loPI   C3B 3487   0.738   3.935   8.916 -0.1819 -0.2636  0.2239
  218loPI   C4B 3488   0.668   3.970   8.488  0.1544 -0.1954 -0.0303
  219loPI    C1 3489   2.571  13.399  10.933  0.1145  0.1834 -0.1112
  219loPI    C2 3490   2.653  13.154  10.628  0.3128  0.0310  0.0616
  219loPI    C3 3491   2.439  13.022  10.939  0.2685  0.1309  0.0738
  219loPI   PO4 3492   2.674  13.604  10.861  0.1080 -0.1414  0.1264
  219loPI   GL1 3493   2.480  13.604  10.435  0.2748  0.0329 -0.2066
  219loPI   GL2 3494   2.494  13.516  10.160  0.1971  0.1659  0.0165
  219loPI   C1A 3495   2.513  14.126  10.213 -0.0685  0.0419 -0.1437
  219loPI   C2A 3496   2.507  14.244   9.726 -0.2494  0.2940 -0.1170
  219loPI   C3A 3497   2.476  14.266   9.364  0.1428 -0.2489  0.0299
  219loPI   C4A 3498   2.356  14.285   8.857  0.3098 -0.0605 -0.0341
  219loPI   C5A 3499   2.361  14.345   8.424 -0.0295  0.2077 -0.0185
  219loPI   C6A 3500   2.338  14.451   8.040  0.1266  0.3592 -0.1703
  219loPI   C1B 3501   2.672  13.687   9.867 -0.1610 -0.1625  0.0771
  219loPI   C2B 3502   2.564  13.785   9.394  0.0018  0.0934 -0.1041
  219loPI   C3B 3503   2.473  13.838   8.966  0.0503  0.1696 -0.0083
  219loPI   C4B 3504   2.564  13.922   8.614 -0.1730  0.0458 -0.0548
  220loPI    C1 3505  16.742  14.552  10.537  0.0284  0.0656  0.0428
  220loPI    C2 3506  16.887  14.237  10.738  0.0574  0.1171  0.1031
  220loPI    C3 3507  17.059  14.353  10.396  0.0389  0.0601  0.0742
  220loPI   PO4 3508  16.487  14.513  10.541  0.1729 -0.0060 -0.3423
  220loPI   GL1 3509  16.341  14.457  10.211 -0.0438  0.1862 -0.1616
  220loPI   GL2 3510  16.149  14.761   9.944  0.1961 -0.0469 -0.2008
  220loPI   C1A 3511  16.742  14.343   9.939  0.4632 -0.0903 -0.2500
  220loPI   C2A 3512  16.913  14.387   9.515  0.2624  0.2852  0.3042
  220loPI   C3A 3513  16.851  14.310   9.128  0.1496  0.1636  0.0256
  220loPI   C4A 3514  16.795  14.247   8.681  0.0205 -0.2352  0.1019
  220loPI   C5A 3515  16.745  14.220   8.266  0.1668  0.0842  0.1028
  220loPI   C6A 3516  16.619  13.820   7.964  0.0010  0.0830 -0.0437
  220loPI   C1B 3517  16.217  15.033   9.646  0.4453 -0.1030  0.1558
  220loPI   C2B 3518  16.203  15.052   9.270  0.1400  0.1058 -0.0452
  220loPI   C3B 3519  16.189  15.025   8.862  0.0618 -0.0332  0.0108
  220loPI   C4B 3520  16.275  15.003   8.413 -0.1000 -0.0036 -0.2972
  221loPI    C1 3521  14.357  16.587  11.068  0.1596 -0.1058  0.0659
  221loPI    C2 3522  14.582  16.646  11.393 -0.0875  0.2467  0.1796
  221loPI    C3 3523  14.266  16.401  11.411  0.0425  0.0733  0.1337
  221loPI   PO4 3524  14.472  16.748  10.925 -0.0381 -0.2903  0.0234
  221loPI   GL1 3525  14.506  16.846  10.530  0.0319  0.1460  0.1094
  221loPI   GL2 3526  14.147  16.739  10.326 -0.0179 -0.1601 -0.1894
  221loPI   C1A 3527  14.671  16.661  10.158  0.1706 -0.2908  0.0674
  221loPI   C2A 3528  14.724  16.563   9.736  0.0241 -0.0256 -0.3565
  221loPI   C3A 3529  14.457  16.557   9.390 -0.0264  0.0076  0.0707
  221loPI   C4A 3530  14.299  16.681   9.050 -0.1011 -0.1509  0.2332
  221loPI   C5A 3531  14.258  16.647   8.661  0.1883 -0.1813  0.4328
  221loPI   C6A 3532  13.956  16.953   8.530 -0.0780  0.1636  0.0009
  221loPI   C1B 3533  14.274  16.759   9.869  0.0874  0.3966 -0.2144
  221loPI   C2B 3534  14.076  16.814   9.579 -0.0015  0.2737 -0.0761
  221loPI   C3B 3535  13.823  16.838   9.202 -0.0564 -0.3982 -0.0751
  221loPI   C4B 3536  13.813  16.533   8.860  0.1297  0.0546  0.0013
  222loPI    C1 3537  17.925  13.866  10.691 -0.1141 -0.1190 -0.1710
  222loPI    C2 3538  18.152  13.609  10.897  0.1445  0.0742 -0.2098
  222loPI    C3 3539  17.858  13.808  11.081  0.1620  0.0024 -0.1034
  222loPI   PO4 3540  18.067  13.914  10.437  0.0077 -0.4118 -0.0283
  222loPI   GL1 3541  18.125  13.671  10.050  0.2179 -0.2249  0.3735
  222loPI   GL2 3542  18.380  13.342   9.999  0.0779  0.2426 -0.2159
  222loPI   C1A 3543  18.070  13.855   9.730  0.1656  0.0595  0.0920
  222loPI   C2A 3544  18.202  13.871   9.255 -0.1636  0.0022 -0.0973
  222loPI   C3A 3545  18.142  14.071   8.692  0.0835  0.0046 -0.0646
  222loPI   C4A 3546  18.262  14.123   8.283  0.2492 -0.2845  0.0223
  222loPI   C5A 3547  18.519  14.174   7.939 -0.2323  0.1928 -0.1308
  222loPI   C6A 3548  18.858  14.342   7.678 -0.0263  0.2158 -0.0279
  222loPI   C1B 3549  18.336  13.475   9.543  0.3252 -0.1576  0.0078
  222loPI   C2B 3550  18.465  13.466   9.111  0.1382 -0.0773 -0.1839
  222loPI   C3B 3551  18.535  13.739   8.751 -0.0047  0.0642  0.2040
  222loPI   C4B 3552  18.639  13.815   8.306 -0.1067  0.0961 -0.2190
  223loPI    C1 3553  16.290   7.750  10.471  0.1137 -0.0583 -0.1862
  223loPI    C2 3554  15.896   7.793  10.423  0.1318  0.0039 -0.2828
  223loPI    C3 3555  16.042   7.664  10.772  0.0235 -0.0586 -0.2601
  223loPI   PO4 3556  16.431   8.060  10.430  0.0103  0.1216  0.0551
  223loPI   GL1 3557  16.779   8.067  10.191  0.2064  0.0876  0.2035
  223loPI   GL2 3558  16.875   8.412  10.015  0.1812  0.1347  0.0369
  223loPI   C1A 3559  16.528   8.030   9.799  0.3250 -0.0900  0.0670
  223loPI   C2A 3560  16.546   8.003   9.399  0.4323  0.1237 -0.2726
  223loPI   C3A 3561  16.661   7.993   9.033  0.2198  0.2514  0.0422
  223loPI   C4A 3562  16.684   7.949   8.530 -0.0603  0.0113 -0.0705
  223loPI   C5A 3563  16.598   8.027   8.151 -0.0427  0.2042 -0.0584
  223loPI   C6A 3564  16.561   8.255   7.815  0.1505 -0.3347  0.0730
  223loPI   C1B 3565  16.953   8.265   9.662  0.0170 -0.1889  0.2836
  223loPI   C2B 3566  16.969   8.305   9.227 -0.0058 -0.4104 -0.1302
  223loPI   C3B 3567  17.036   8.353   8.878 -0.1582 -0.0849 -0.2145
  223loPI   C4B 3568  16.815   8.514   8.473  0.2204 -0.0948 -0.0205
  224loPI    C1 3569  15.378  13.805  10.388  0.1937 -0.0620  0.0120
  224loPI    C2 3570  15.131  13.587  10.615 -0.0303  0.0400 -0.1301
  224loPI    C3 3571  15.174  13.979  10.685  0.2515 -0.0162  0.0251
  224loPI   PO4 3572  15.268  13.727  10.138 -0.4457 -0.3081  0.1108
  224loPI   GL1 3573  14.942  13.762   9.836  0.1446  0.2498  0.0648
  224loPI   GL2 3574  14.608  13.877   9.850 -0.0982  0.1265  0.0205
  224loPI   C1A 3575  14.905  14.172   9.556 -0.0603 -0.0578 -0.1552
  224loPI   C2A 3576  15.171  14.593   9.474  0.2694 -0.1434  0.1209
  224loPI   C3A 3577  15.372  14.799   9.129 -0.2447  0.0433 -0.4182
  224loPI   C4A 3578  15.313  14.860   8.680  0.0397 -0.1043 -0.0202
  224loPI   C5A 3579  14.983  15.052   8.337 -0.0896  0.0759 -0.1169
  224loPI   C6A 3580  14.871  15.072   7.994  0.2737 -0.1723  0.1902
  224loPI   C1B 3581  14.418  14.024   9.408 -0.1177  0.3003 -0.1295
  224loPI   C2B 3582  14.414  14.180   8.928  0.4156 -0.1877  0.1334
  224loPI   C3B 3583  14.391  14.187   8.551  0.1337  0.2711  0.2733
  224loPI   C4B 3584  14.578  14.109   8.138  0.2029 -0.0095 -0.0857
  225loPI    C1 3585   6.744  10.110  11.075  0.0723 -0.0049 -0.1832
  225loPI    C2 3586   6.742   9.816  11.347  0.0628 -0.1016 -0.2871
  225loPI    C3 3587   6.430   9.863  11.102 -0.1298  0.2671  0.0180
  225loPI   PO4 3588   6.996  10.111  10.918 -0.0166 -0.1142 -0.2200
  225loPI   GL1 3589   6.993  10.069  10.522 -0.0405 -0.1542  0.0373
  225loPI   GL2 3590   7.178  10.288  10.314 -0.0043  0.0276  0.2052
  225loPI   C1A 3591   6.936   9.848  10.057  0.1009 -0.3901 -0.0403
  225loPI   C2A 3592   6.866   9.883   9.661  0.1217 -0.1052 -0.0569
  225loPI   C3A 3593   7.020   9.800   9.287 -0.1309  0.0511 -0.0748
  225loPI   C4A 3594   7.061   9.920   8.871 -0.1150  0.0887 -0.1845
  225loPI   C5A 3595   7.197  10.020   8.400 -0.0018 -0.3247 -0.0347
  225loPI   C6A 3596   6.960  10.161   8.056 -0.2197 -0.0183  0.0022
  225loPI   C1B 3597   7.250  10.243   9.846 -0.0183 -0.1074 -0.0984
  225loPI   C2B 3598   7.264  10.219   9.413 -0.0512 -0.2807 -0.2829
  225loPI   C3B 3599   7.296  10.301   8.935  0.2259  0.0705 -0.1620
  225loPI   C4B 3600   7.225  10.517   8.436  0.1575 -0.0304 -0.1898
  226loPI    C1 3601  11.820  15.293  10.742 -0.0760 -0.0025 -0.1580
  226loPI    C2 3602  11.425  15.275  10.805 -0.0872  0.0839 -0.2026
  226loPI    C3 3603  11.665  15.441  11.080 -0.0766 -0.0113 -0.1543
  226loPI   PO4 3604  11.877  15.013  10.649 -0.2723  0.0652  0.0266
  226loPI   GL1 3605  11.834  14.887  10.233  0.0558  0.0932  0.1216
  226loPI   GL2 3606  11.639  15.199  10.277 -0.0200  0.1181 -0.0588
  226loPI   C1A 3607  11.838  14.900   9.798 -0.0257  0.1970 -0.1465
  226loPI   C2A 3608  11.721  14.929   9.352 -0.0268 -0.0853  0.2026
  226loPI   C3A 3609  11.798  14.853   8.868 -0.2800 -0.0486  0.1794
  226loPI   C4A 3610  11.883  14.893   8.360 -0.1086  0.0429 -0.0591
  226loPI   C5A 3611  12.314  14.747   8.259 -0.0304 -0.0784 -0.1310
  226loPI   C6A 3612  12.517  14.645   7.917  0.1863  0.0163 -0.3113
  226loPI   C1B 3613  11.548  15.276   9.871 -0.1347  0.0430 -0.1153
  226loPI   C2B 3614  11.540  15.360   9.453 -0.0106  0.1122 -0.0914
  226loPI   C3B 3615  11.459  15.386   8.993 -0.3222  0.1715  0.0807
  226loPI   C4B 3616  11.573  15.216   8.590 -0.3827  0.0450  0.0725
  227loPI    C1 3617  12.834  10.552  10.543 -0.0725 -0.0840 -0.0593
  227loPI    C2 3618  12.937  10.385  10.892 -0.0327 -0.2246 -0.1376
  227loPI    C3 3619  12.646  10.223  10.671 -0.0336 -0.1563 -0.1868
  227loPI   PO4 3620  13.062  10.607  10.472 -0.0980 -0.1220 -0.4767
  227loPI   GL1 3621  13.271  10.604  10.094  0.0143 -0.2281  0.3374
  227loPI   GL2 3622  13.070  10.923  10.057  0.1482 -0.0099  0.2607
  227loPI   C1A 3623  12.974  10.469   9.685 -0.1121  0.3099 -0.1823
  227loPI   C2A 3624  13.018  10.515   9.206 -0.0146  0.3057 -0.0458
  227loPI   C3A 3625  13.261  10.520   8.815  0.0274  0.0661 -0.3444
  227loPI   C4A 3626  13.123  10.406   8.443 -0.0477 -0.1169 -0.1311
  227loPI   C5A 3627  13.554  10.532   8.343  0.2596  0.0367 -0.1504
  227loPI   C6A 3628  13.793  10.712   8.776 -0.2961  0.0207  0.0253
  227loPI   C1B 3629  13.118  10.906   9.540  0.0027 -0.0049 -0.1769
  227loPI   C2B 3630  13.322  10.899   9.140  0.1469 -0.0044 -0.0843
  227loPI   C3B 3631  13.380  11.267   8.755 -0.3512  0.1649  0.0395
  227loPI   C4B 3632  13.618  11.470   8.505 -0.0141 -0.1177 -0.0912
  228loPI    C1 3633  13.140   0.314  10.846 -0.3164 -0.0733  0.0530
  228loPI    C2 3634  12.980   0.346  11.211 -0.0171 -0.1827  0.1975
  228loPI    C3 3635  13.312   0.549  11.120  0.0241 -0.3133  0.0518
  228loPI   PO4 3636  13.027   0.318  10.636 -0.1502 -0.0783 -0.3288
  228loPI   GL1 3637  13.239   0.342  10.329  0.0494  0.0218  0.0235
  228loPI   GL2 3638  13.071   0.581  10.131 -0.3332  0.1704  0.0886
  228loPI   C1A 3639  13.593   0.364   9.977  0.0566 -0.2018 -0.2624
  228loPI   C2A 3640  13.644   0.473   9.567 -0.2201  0.0930  0.0752
  228loPI   C3A 3641  13.564   0.540   9.080  0.0657 -0.0174 -0.0854
  228loPI   C4A 3642  13.546   0.616   8.582  0.3467  0.1915 -0.1251
  228loPI   C5A 3643  13.790   0.888   8.266 -0.0175 -0.0593  0.2513
  228loPI   C6A 3644  14.219   0.735   8.065 -0.2742  0.0821  0.0220
  228loPI   C1B 3645  13.187   0.668   9.727 -0.1211  0.2252  0.2983
  228loPI   C2B 3646  13.009   0.767   9.340 -0.2576  0.0366  0.0614
  228loPI   C3B 3647  13.066   0.680   8.951 -0.0206  0.0928  0.0254
  228loPI   C4B 3648  13.109   0.695   8.612  0.2337 -0.0807 -0.0815
  229loPI    C1 3649  16.006   6.028  10.550 -0.1029 -0.1922 -0.0537
  229loPI    C2 3650  15.764   6.296  10.723  0.1704  0.0218  0.0038
  229loPI    C3 3651  15.924   6.001  10.941 -0.0248 -0.1117 -0.0313
  229loPI   PO4 3652  15.858   5.898  10.322  0.1653 -0.1037  0.1345
  229loPI   GL1 3653  15.921   6.000   9.899  0.0648 -0.0071 -0.2746
  229loPI   GL2 3654  16.091   5.715   9.896 -0.0226 -0.1695 -0.0372
  229loPI   C1A 3655  15.958   5.892   9.417  0.0728  0.1696 -0.0505
  229loPI   C2A 3656  16.036   5.815   9.029  0.0500  0.1718 -0.1562
  229loPI   C3A 3657  15.894   5.529   8.680 -0.4241 -0.0749 -0.0084
  229loPI   C4A 3658  15.578   5.454   8.310 -0.0185  0.0741 -0.0048
  229loPI   C5A 3659  15.595   5.336   7.981 -0.1151  0.3013  0.1349
  229loPI   C6A 3660  15.898   5.486   7.596  0.1336 -0.0962 -0.0127
  229loPI   C1B 3661  16.206   5.472   9.614  0.1266  0.2962 -0.1180
  229loPI   C2B 3662  16.365   5.477   9.124 -0.0243  0.0178  0.4000
  229loPI   C3B 3663  16.415   5.538   8.681 -0.1904 -0.0960 -0.1923
  229loPI   C4B 3664  16.583   5.462   8.147 -0.1765  0.0942  0.3051
  230loPI    C1 3665   8.358   4.773  10.577 -0.1407  0.2754  0.1535
  230loPI    C2 3666   8.677   4.607  10.753 -0.0482  0.2217 -0.0618
  230loPI    C3 3667   8.452   4.871  10.953  0.0201  0.1172  0.1558
  230loPI   PO4 3668   8.434   4.849  10.268  0.2805  0.1420 -0.2296
  230loPI   GL1 3669   8.149   4.846   9.977 -0.0590  0.2166 -0.0677
  230loPI   GL2 3670   7.973   4.640   9.832  0.0007 -0.3364  0.1591
  230loPI   C1A 3671   8.327   4.949   9.479 -0.1618  0.0903  0.1051
  230loPI   C2A 3672   8.339   5.056   9.052 -0.0928  0.2284 -0.0262
  230loPI   C3A 3673   8.244   5.037   8.664 -0.2065 -0.0191 -0.0149
  230loPI   C4A 3674   8.294   4.826   8.285  0.0166  0.1695 -0.2831
  230loPI   C5A 3675   7.989   4.829   7.889  0.2469 -0.2461 -0.1117
  230loPI   C6A 3676   7.734   4.947   7.618  0.1326  0.0196 -0.0027
  230loPI   C1B 3677   7.747   4.571   9.363 -0.3524 -0.0698 -0.2289
  230loPI   C2B 3678   7.465   4.567   8.981  0.2626  0.0674 -0.3769
  230loPI   C3B 3679   7.288   4.470   8.567  0.0856  0.1405  0.3401
  230loPI   C4B 3680   7.237   4.366   8.106  0.2569  0.0356 -0.1081
  231loPI    C1 3681  17.760  17.611  10.857 -0.0130 -0.0771  0.0562
  231loPI    C2 3682  18.086  17.388  10.921 -0.0789 -0.1269  0.2232
  231loPI    C3 3683  17.926  17.599  11.221  0.0394  0.2235  0.0452
  231loPI   PO4 3684  17.817  17.759  10.693 -0.2118  0.4337  0.0980
  231loPI   GL1 3685  17.726  17.961  10.295 -0.1361 -0.1050  0.3042
  231loPI   GL2 3686  17.514  17.719  10.274  0.1064  0.0254 -0.1420
  231loPI   C1A 3687  17.617  17.961   9.876  0.4074 -0.0138  0.0944
  231loPI   C2A 3688  17.468  17.959   9.483  0.2904 -0.1975  0.1065
  231loPI   C3A 3689  17.353  17.945   9.065  0.1912  0.1979 -0.1409
  231loPI   C4A 3690  17.483  17.971   8.674 -0.1406  0.0603 -0.3513
  231loPI   C5A 3691  17.719  17.894   8.357 -0.2107  0.1588 -0.0976
  231loPI   C6A 3692  18.126  17.971   8.218  0.0920  0.1183  0.0985
  231loPI   C1B 3693  17.253  17.672   9.942 -0.3468  0.3318  0.2784
  231loPI   C2B 3694  17.088  17.638   9.464  0.0571 -0.0087  0.1859
  231loPI   C3B 3695  16.995  17.608   8.993 -0.1893  0.0941  0.2966
  231loPI   C4B 3696  17.096  17.664   8.660 -0.2087 -0.2003 -0.2138
  232loPI    C1 3697  18.134  11.651  10.907 -0.2769 -0.3265  0.1848
  232loPI    C2 3698  17.984  11.572  11.269 -0.2223  0.0984  0.3050
  232loPI    C3 3699  18.056  11.950  11.160 -0.0684 -0.0378 -0.0842
  232loPI   PO4 3700  17.977  11.611  10.725 -0.0546  0.1172 -0.0565
  232loPI   GL1 3701  17.986  11.487  10.443  0.0934  0.3012  0.2721
  232loPI   GL2 3702  18.287  11.602  10.342  0.0146  0.1622 -0.3858
  232loPI   C1A 3703  17.992  11.453  10.006  0.0269 -0.1923 -0.1716
  232loPI   C2A 3704  18.145  11.547   9.635  0.4062 -0.0814  0.2405
  232loPI   C3A 3705  18.033  11.642   9.276  0.2867 -0.0732  0.0573
  232loPI   C4A 3706  18.078  11.624   8.752  0.0471  0.1553 -0.1221
  232loPI   C5A 3707  17.715  11.468   8.497 -0.1104 -0.1570  0.1750
  232loPI   C6A 3708  17.524  11.180   8.305 -0.0983 -0.0247  0.2887
  232loPI   C1B 3709  18.275  11.868  10.009  0.0940 -0.1441  0.0654
  232loPI   C2B 3710  18.267  12.014   9.604 -0.2671  0.1347 -0.1795
  232loPI   C3B 3711  18.411  11.959   9.119  0.0411 -0.1348  0.1157
  232loPI   C4B 3712  18.635  12.234   8.784 -0.2523  0.1564  0.2092
  233loPI    C1 3713  10.950  14.246  10.916  0.1520 -0.1094 -0.0126
  233loPI    C2 3714  11.246  14.423  11.118  0.0151 -0.0869  0.1703
  233loPI    C3 3715  11.012  14.154  11.300 -0.0979 -0.0799  0.0366
  233loPI   PO4 3716  11.109  14.320  10.638  0.1435  0.2865  0.0698
  233loPI   GL1 3717  10.987  14.583  10.325 -0.0989 -0.0224 -0.2709
  233loPI   GL2 3718  10.753  14.727  10.276  0.1195  0.1582  0.0008
  233loPI   C1A 3719  11.006  14.507   9.859  0.0619  0.0592  0.0178
  233loPI   C2A 3720  10.965  14.458   9.455  0.0528  0.2212  0.2867
  233loPI   C3A 3721  10.996  14.492   9.015 -0.1479 -0.0169 -0.0267
  233loPI   C4A 3722  11.084  14.489   8.601  0.2949 -0.2819  0.1193
  233loPI   C5A 3723  10.880  14.883   8.267 -0.0564 -0.2087 -0.2060
  233loPI   C6A 3724  10.601  14.907   7.901 -0.2901 -0.0312 -0.0664
  233loPI   C1B 3725  10.601  14.880   9.969 -0.3862  0.1569  0.4311
  233loPI   C2B 3726  10.618  14.878   9.594 -0.3132  0.0051  0.0957
  233loPI   C3B 3727  10.701  14.967   9.251  0.6294  0.0836 -0.2499
  233loPI   C4B 3728  10.787  14.867   8.746 -0.2195  0.0582  0.2185
  234loPI    C1 3729   7.862  17.490  10.570  0.1642 -0.1172  0.1082
  234loPI    C2 3730   7.711  17.303  10.890 -0.0371  0.1288  0.1607
  234loPI    C3 3731   7.972  17.602  10.938 -0.1278  0.2184  0.0990
  234loPI   PO4 3732   8.060  17.324  10.444 -0.1041 -0.1496 -0.1989
  234loPI   GL1 3733   8.228  17.222  10.053  0.2917 -0.0711  0.2295
  234loPI   GL2 3734   8.461  17.488  10.126  0.5195  0.0070 -0.0671
  234loPI   C1A 3735   8.234  16.888   9.740 -0.2779  0.0984 -0.2030
  234loPI   C2A 3736   8.360  16.984   9.259 -0.0136 -0.0753  0.0854
  234loPI   C3A 3737   8.417  17.187   8.888  0.1106 -0.1354 -0.2822
  234loPI   C4A 3738   8.403  17.241   8.457  0.0177  0.3256 -0.0246
  234loPI   C5A 3739   8.487  17.527   8.095 -0.0699  0.1392 -0.0360
  234loPI   C6A 3740   8.365  17.709   7.737 -0.1737 -0.0576 -0.1887
  234loPI   C1B 3741   8.464  17.457   9.687  0.2340 -0.0884  0.2827
  234loPI   C2B 3742   8.587  17.523   9.296  0.2059 -0.2447  0.0179
  234loPI   C3B 3743   8.775  17.610   9.007  0.0082  0.1842  0.0010
  234loPI   C4B 3744   8.571  17.688   8.586 -0.0150 -0.4262  0.2985
  235loPI    C1 3745  10.193   5.920  11.194  0.1427  0.1819 -0.1319
  235loPI    C2 3746  10.392   6.060  11.512  0.1570 -0.1364  0.0022
  235loPI    C3 3747  10.007   6.155  11.458  0.2168  0.1042 -0.0098
  235loPI   PO4 3748  10.278   6.002  10.984  0.0135 -0.2839 -0.2396
  235loPI   GL1 3749  10.352   5.992  10.593 -0.1527 -0.4300 -0.0786
  235loPI   GL2 3750  10.128   6.011  10.464 -0.2377  0.4078  0.0220
  235loPI   C1A 3751  10.482   6.154  10.197  0.3502 -0.1864  0.0452
  235loPI   C2A 3752  10.481   5.999   9.774 -0.0116 -0.0767 -0.2893
  235loPI   C3A 3753  10.470   5.961   9.255 -0.1856 -0.0688 -0.0280
  235loPI   C4A 3754  10.497   6.053   8.771  0.3035  0.0207 -0.3646
  235loPI   C5A 3755  10.436   6.337   8.500  0.0958 -0.1107  0.0133
  235loPI   C6A 3756  10.227   6.737   8.260  0.2641 -0.2151 -0.1329
  235loPI   C1B 3757  10.071   6.359  10.166 -0.0013  0.4207  0.0827
  235loPI   C2B 3758  10.153   6.409   9.768 -0.1362  0.0027  0.3575
  235loPI   C3B 3759  10.127   6.396   9.340  0.0364  0.5072  0.2113
  235loPI   C4B 3760  10.289   6.466   9.007 -0.0120  0.0057 -0.1648
  236loPI    C1 3761  11.955   9.487  10.588 -0.0887 -0.1006  0.1296
  236loPI    C2 3762  11.622   9.268  10.619 -0.2704  0.1565  0.0258
  236loPI    C3 3763  11.750   9.482  10.932 -0.2109  0.0706  0.0605
  236loPI   PO4 3764  11.960   9.563  10.360  0.3570 -0.4155 -0.0813
  236loPI   GL1 3765  12.040   9.472  10.026 -0.3851 -0.1725  0.1403
  236loPI   GL2 3766  12.374   9.551  10.077 -0.2720 -0.1328  0.2810
  236loPI   C1A 3767  12.079   9.465   9.574 -0.0281 -0.0328  0.1009
  236loPI   C2A 3768  12.004   9.643   9.101  0.1064 -0.3674  0.1181
  236loPI   C3A 3769  12.009   9.652   8.684  0.0287  0.1741  0.0159
  236loPI   C4A 3770  11.905   9.360   8.378 -0.4538 -0.1495  0.0295
  236loPI   C5A 3771  11.879   8.958   8.189  0.0016 -0.0735  0.2651
  236loPI   C6A 3772  11.630   8.649   8.310 -0.0222  0.3172 -0.1540
  236loPI   C1B 3773  12.337   9.909   9.820 -0.0571  0.1266  0.0662
  236loPI   C2B 3774  12.236  10.030   9.404 -0.1605  0.0141  0.3206
  236loPI   C3B 3775  12.230  10.069   9.018  0.2175  0.0797  0.2433
  236loPI   C4B 3776  12.345  10.040   8.650  0.3241  0.3444  0.5272
  237loPI    C1 3777  17.742   5.964  10.708  0.2368 -0.1656 -0.2066
  237loPI    C2 3778  17.634   5.728  11.012 -0.1117  0.0402 -0.1642
  237loPI    C3 3779  18.002   5.886  11.002 -0.0709 -0.0311  0.1081
  237loPI   PO4 3780  17.719   5.877  10.423 -0.0172 -0.2804 -0.2231
  237loPI   GL1 3781  17.817   6.094  10.007 -0.1222  0.3216  0.1292
  237loPI   GL2 3782  17.758   5.854   9.932  0.0301  0.0174 -0.1132
  237loPI   C1A 3783  17.940   6.389   9.665 -0.0044 -0.1555 -0.1353
  237loPI   C2A 3784  17.955   6.411   9.216 -0.2374 -0.3006 -0.0035
  237loPI   C3A 3785  18.020   6.397   8.779 -0.0298 -0.0683  0.3059
  237loPI   C4A 3786  17.951   6.368   8.316 -0.0428 -0.5350  0.1135
  237loPI   C5A 3787  17.538   6.372   8.081 -0.0362 -0.0299  0.0841
  237loPI   C6A 3788  17.169   6.087   8.019 -0.1422 -0.1722  0.0643
  237loPI   C1B 3789  17.802   5.945   9.505  0.2105 -0.3145  0.1830
  237loPI   C2B 3790  17.884   5.910   9.063 -0.0760 -0.1139 -0.2619
  237loPI   C3B 3791  17.896   5.943   8.583  0.0332  0.0222  0.0421
  237loPI   C4B 3792  17.829   5.924   8.135  0.0596  0.0786 -0.2355
  238loPI    C1 3793  11.935   4.814  10.856 -0.0336 -0.0054 -0.0754
  238loPI    C2 3794  11.602   4.825  11.077 -0.0352 -0.0459 -0.0758
  238loPI    C3 3795  11.808   5.161  11.010 -0.0602 -0.0257 -0.0514
  238loPI   PO4 3796  11.831   4.681  10.676 -0.1288  0.1322 -0.2763
  238loPI   GL1 3797  11.711   4.781  10.331 -0.0916  0.1600 -0.2085
  238loPI   GL2 3798  11.932   5.073  10.374 -0.2691  0.0711 -0.2608
  238loPI   C1A 3799  11.575   4.654   9.956 -0.1397 -0.3487  0.1884
  238loPI   C2A 3800  11.393   4.517   9.577 -0.4286 -0.0707 -0.0697
  238loPI   C3A 3801  11.329   4.533   9.123  0.0501 -0.0395 -0.2345
  238loPI   C4A 3802  11.257   4.474   8.688 -0.1553  0.0239  0.1010
  238loPI   C5A 3803  11.153   4.261   8.252  0.1282 -0.0578  0.0052
  238loPI   C6A 3804  10.781   4.025   8.089  0.0021 -0.2199  0.0386
  238loPI   C1B 3805  11.868   5.067   9.921 -0.2317 -0.1444  0.2035
  238loPI   C2B 3806  11.666   4.959   9.470  0.0562  0.0077 -0.0724
  238loPI   C3B 3807  11.664   4.941   9.004 -0.1341  0.0481  0.0017
  238loPI   C4B 3808  11.714   4.806   8.580 -0.1544 -0.2496  0.0724
  239loPI    C1 3809   1.505   0.074  10.484  0.0646 -0.2329 -0.1676
  239loPI    C2 3810   1.506   0.208  10.861  0.1254 -0.0125 -0.2446
  239loPI    C3 3811   1.834   0.247  10.634  0.1400 -0.2837 -0.2726
  239loPI   PO4 3812   1.262   0.171  10.383  0.1626  0.2137 -0.1182
  239loPI   GL1 3813   1.172   0.067   9.966  0.2906  0.4408  0.0472
  239loPI   GL2 3814   0.850   0.051  10.037 -0.0686 -0.0617 -0.0876
  239loPI   C1A 3815   1.226   0.253   9.540  0.0417  0.1393  0.1239
  239loPI   C2A 3816   1.276   0.198   9.178  0.1494  0.5827  0.1134
  239loPI   C3A 3817   1.260   0.227   8.776  0.2382 -0.0597 -0.2161
  239loPI   C4A 3818   1.240   0.279   8.433 -0.1354  0.1386  0.1511
  239loPI   C5A 3819   1.332   0.111   8.048 -0.1409 -0.3874  0.1029
  239loPI   C6A 3820   1.167   0.217   7.692  0.0734 -0.2032  0.4427
  239loPI   C1B 3821   0.864  -0.074   9.577 -0.0259 -0.1173  0.1129
  239loPI   C2B 3822   0.855  -0.143   9.055  0.1833 -0.2087  0.1351
  239loPI   C3B 3823   0.936  -0.114   8.552  0.3447  0.1630 -0.0520
  239loPI   C4B 3824   0.971  -0.259   8.151 -0.2144 -0.2488  0.1015
  240loPI    C1 3825   4.719  17.199  11.051  0.1223  0.1761  0.0219
  240loPI    C2 3826   4.901  17.176  11.406 -0.1048 -0.1535  0.1211
  240loPI    C3 3827   4.507  17.241  11.387 -0.0718  0.0004 -0.0764
  240loPI   PO4 3828   4.904  17.256  10.830  0.2146  0.4623 -0.2727
  240loPI   GL1 3829   5.202  17.365  10.529 -0.2265  0.1278  0.0093
  240loPI   GL2 3830   4.992  17.568  10.452 -0.2404  0.1341 -0.4031
  240loPI   C1A 3831   5.148  17.242  10.137 -0.2301  0.3409  0.1335
  240loPI   C2A 3832   5.104  17.069   9.835  0.3251  0.1746 -0.0049
  240loPI   C3A 3833   5.110  17.091   9.407 -0.1104 -0.3887 -0.1760
  240loPI   C4A 3834   5.063  17.100   8.931 -0.2715  0.1624  0.3064
  240loPI   C5A 3835   4.959  17.189   8.497  0.0594 -0.2268  0.0141
  240loPI   C6A 3836   5.012  16.981   8.143 -0.2929 -0.2127 -0.3609
  240loPI   C1B 3837   4.979  17.666  10.023  0.1795 -0.0522  0.0921
  240loPI   C2B 3838   5.020  17.502   9.637  0.0274  0.0133  0.0593
  240loPI   C3B 3839   5.025  17.638   9.283 -0.3623 -0.0855 -0.0413
  240loPI   C4B 3840   4.914  17.587   8.866  0.0558 -0.0740 -0.0122
  241loPI    C1 3841   1.569   2.924  10.443 -0.0230  0.0664 -0.1436
  241loPI    C2 3842   1.811   2.859  10.755 -0.1167 -0.1968 -0.1228
  241loPI    C3 3843   1.458   2.672  10.733 -0.2583  0.0754 -0.2237
  241loPI   PO4 3844   1.716   2.878  10.250 -0.3360 -0.1146  0.0477
  241loPI   GL1 3845   1.598   2.759   9.842  0.2078  0.1929  0.0468
  241loPI   GL2 3846   1.462   3.103   9.824 -0.0498 -0.1672 -0.1359
  241loPI   C1A 3847   1.714   2.553   9.374  0.3416 -0.3558  0.1258
  241loPI   C2A 3848   1.883   2.314   9.119 -0.1289  0.0286  0.0607
  241loPI   C3A 3849   1.741   2.173   8.681 -0.1076 -0.0526 -0.2572
  241loPI   C4A 3850   1.511   1.817   8.459  0.1252 -0.2813  0.1827
  241loPI   C5A 3851   1.449   1.625   8.120 -0.1402 -0.0047  0.0003
  241loPI   C6A 3852   1.322   1.211   8.023  0.1024  0.0657 -0.0180
  241loPI   C1B 3853   1.472   3.138   9.338 -0.1760 -0.0194 -0.1945
  241loPI   C2B 3854   1.368   3.097   8.936 -0.1029 -0.1904 -0.1717
  241loPI   C3B 3855   1.309   3.215   8.576  0.0868 -0.1705  0.3108
  241loPI   C4B 3856   1.382   3.281   8.092 -0.2323 -0.2774  0.1542
  242loPI    C1 3857  12.293   2.876  11.181 -0.1495 -0.0325  0.0294
  242loPI    C2 3858  12.650   2.731  11.291 -0.1535  0.0563  0.1621
  242loPI    C3 3859  12.567   3.119  11.341 -0.1313  0.1151 -0.2199
  242loPI   PO4 3860  12.299   2.800  10.892  0.0362  0.0637 -0.0294
  242loPI   GL1 3861  12.255   2.935  10.543  0.0438 -0.0064 -0.0252
  242loPI   GL2 3862  11.948   2.983  10.526  0.2549 -0.2715  0.1748
  242loPI   C1A 3863  12.271   2.965  10.147 -0.0368  0.2002 -0.1328
  242loPI   C2A 3864  12.243   2.988   9.733 -0.0000  0.3408  0.2940
  242loPI   C3A 3865  12.357   2.946   9.287 -0.0381 -0.0982  0.1862
  242loPI   C4A 3866  12.380   2.957   8.924  0.1442  0.2707  0.2317
  242loPI   C5A 3867  12.430   3.063   8.518  0.2371  0.0804  0.1119
  242loPI   C6A 3868  12.667   3.189   8.257 -0.1922 -0.0895  0.2172
  242loPI   C1B 3869  11.870   3.218  10.145  0.0372 -0.1539  0.2149
  242loPI   C2B 3870  11.786   3.151   9.654 -0.1176 -0.0298 -0.0184
  242loPI   C3B 3871  11.889   3.144   9.241  0.0089  0.3647  0.1772
  242loPI   C4B 3872  11.899   3.191   8.773 -0.0197 -0.0636 -0.1456
  243loPI    C1 3873  13.789  14.251  11.185 -0.2093 -0.0640  0.2029
  243loPI    C2 3874  13.615  14.404  11.510  0.0167  0.0309  0.2816
  243loPI    C3 3875  13.946  14.183  11.546  0.1172  0.1510  0.1056
  243loPI   PO4 3876  13.482  14.254  10.965 -0.4669  0.1251  0.0852
  243loPI   GL1 3877  13.497  14.440  10.543  0.1704 -0.0343 -0.4147
  243loPI   GL2 3878  13.289  14.620  10.370  0.1280 -0.0211  0.1580
  243loPI   C1A 3879  13.560  14.266  10.140 -0.0232 -0.0058  0.0673
  243loPI   C2A 3880  13.391  14.158   9.806  0.1370  0.1191 -0.3317
  243loPI   C3A 3881  13.419  14.105   9.401  0.1193 -0.2272  0.1125
  243loPI   C4A 3882  13.415  14.101   8.967  0.1942  0.0460  0.0480
  243loPI   C5A 3883  13.400  14.153   8.475  0.0638  0.4446 -0.1843
  243loPI   C6A 3884  13.545  13.910   8.106 -0.2328 -0.2443  0.0687
  243loPI   C1B 3885  13.127  14.649   9.963  0.1637 -0.0620  0.0241
  243loPI   C2B 3886  13.148  14.524   9.566  0.3292 -0.0810 -0.1861
  243loPI   C3B 3887  13.128  14.514   9.086 -0.1981  0.0550 -0.0363
  243loPI   C4B 3888  13.117  14.566   8.689  0.0210 -0.2592  0.0839
  244loPI    C1 3889  17.546  14.709  10.664 -0.1695 -0.0799  0.0943
  244loPI    C2 3890  17.383  15.075  10.671 -0.2933 -0.1354  0.1361
  244loPI    C3 3891  17.648  14.968  10.951  0.0814  0.0744 -0.1288
  244loPI   PO4 3892  17.486  14.668  10.403  0.0913  0.3536 -0.2066
  244loPI   GL1 3893  17.133  14.672  10.001  0.1777 -0.1760 -0.3232
  244loPI   GL2 3894  17.523  14.653   9.919  0.0640  0.0590  0.0296
  244loPI   C1A 3895  17.133  14.819   9.647 -0.0731  0.2383  0.0606
  244loPI   C2A 3896  17.204  14.829   9.339  0.0217 -0.0625 -0.1347
  244loPI   C3A 3897  17.198  14.738   8.928 -0.0153 -0.2568  0.0824
  244loPI   C4A 3898  17.074  14.616   8.561 -0.3082  0.1330 -0.1856
  244loPI   C5A 3899  17.292  14.390   8.204 -0.4129  0.3095  0.0765
  244loPI   C6A 3900  17.150  13.988   7.922  0.0347 -0.2388 -0.3410
  244loPI   C1B 3901  17.431  14.360   9.683  0.0624 -0.0158 -0.0171
  244loPI   C2B 3902  17.345  14.323   9.216 -0.1608 -0.0823 -0.1200
  244loPI   C3B 3903  17.247  14.117   8.904  0.3411 -0.0638 -0.2559
  244loPI   C4B 3904  17.155  13.978   8.480 -0.1956 -0.1072 -0.0992
  245loPI    C1 3905  16.710   9.422  10.435 -0.0572  0.2338 -0.0881
  245loPI    C2 3906  16.722   9.752  10.661 -0.2127  0.2195 -0.0576
  245loPI    C3 3907  16.570   9.414  10.810 -0.2582  0.1930 -0.1631
  245loPI   PO4 3908  16.634   9.482  10.272 -0.0420  0.4396 -0.0942
  245loPI   GL1 3909  16.547   9.659   9.924 -0.1245 -0.1664  0.0182
  245loPI   GL2 3910  16.804   9.816   9.873 -0.1466 -0.1160 -0.1181
  245loPI   C1A 3911  16.538   9.648   9.498 -0.1927 -0.1153 -0.1729
  245loPI   C2A 3912  16.499   9.773   9.079 -0.0343  0.0178 -0.1711
  245loPI   C3A 3913  16.456   9.706   8.665 -0.1037 -0.0070  0.0289
  245loPI   C4A 3914  16.368   9.743   8.208  0.2504 -0.0818 -0.1353
  245loPI   C5A 3915  16.038   9.659   7.827  0.0838  0.0593  0.1930
  245loPI   C6A 3916  15.969   9.226   7.777  0.1246 -0.0344 -0.3928
  245loPI   C1B 3917  16.964   9.832   9.386 -0.0711 -0.1738  0.1087
  245loPI   C2B 3918  16.910   9.986   9.035  0.0571 -0.1199 -0.0890
  245loPI   C3B 3919  16.854   9.988   8.598  0.0605  0.2529 -0.0521
  245loPI   C4B 3920  16.897  10.054   8.211  0.3093 -0.0549  0.1445
  246loPI    C1 3921   0.208  12.212  10.882  0.1534 -0.0416 -0.0850
  246loPI    C2 3922   0.078  12.319  11.245  0.2334 -0.0171 -0.0633
  246loPI    C3 3923   0.455  12.193  11.196  0.1373 -0.3040 -0.0860
  246loPI   PO4 3924  -0.002  12.069  10.828 -0.0434 -0.1431  0.2071
  246loPI   GL1 3925  -0.215  12.163  10.418  0.0750 -0.1255 -0.1750
  246loPI   GL2 3926  -0.542  11.923  10.248 -0.1612  0.0525  0.0601
  246loPI   C1A 3927  -0.055  12.361  10.098 -0.2263  0.1709 -0.0847
  246loPI   C2A 3928  -0.020  12.496   9.719 -0.0803  0.0134 -0.4092
  246loPI   C3A 3929  -0.019  12.521   9.266  0.1232  0.1370 -0.0842
  246loPI   C4A 3930  -0.043  12.632   8.793  0.2286 -0.0715 -0.0713
  246loPI   C5A 3931   0.054  12.507   8.382  0.0975  0.1776 -0.2997
  246loPI   C6A 3932   0.455  12.282   8.319  0.0228 -0.1073  0.0353
  246loPI   C1B 3933  -0.637  11.857   9.812  0.4518  0.1806  0.2273
  246loPI   C2B 3934  -0.665  11.968   9.419 -0.4018 -0.4444  0.0794
  246loPI   C3B 3935  -0.449  12.111   9.059  0.1104 -0.0065  0.0868
  246loPI   C4B 3936  -0.239  12.203   8.685 -0.1664  0.1245 -0.0831
  247loPI    C1 3937  17.355   5.031  10.465  0.1310 -0.0453  0.0370
  247loPI    C2 3938  17.248   4.791  10.768  0.1640  0.1912  0.2394
  247loPI    C3 3939  17.617   4.947  10.756  0.1599  0.1914  0.0810
  247loPI   PO4 3940  17.267   4.946  10.256 -0.3982 -0.0632 -0.3299
  247loPI   GL1 3941  17.457   5.214   9.846  0.0066  0.1587 -0.0773
  247loPI   GL2 3942  17.186   5.376   9.730  0.0666 -0.2092 -0.0730
  247loPI   C1A 3943  17.414   4.974   9.460  0.1167 -0.1979  0.0762
  247loPI   C2A 3944  17.417   4.748   8.986 -0.3411 -0.0727 -0.2582
  247loPI   C3A 3945  17.540   4.644   8.583  0.3054 -0.1789  0.0228
  247loPI   C4A 3946  17.701   4.804   8.249 -0.0274 -0.2740  0.1216
  247loPI   C5A 3947  17.974   4.907   7.848  0.1954  0.1122  0.0838
  247loPI   C6A 3948  18.365   4.813   7.499  0.2662 -0.1320 -0.0714
  247loPI   C1B 3949  17.339   5.726   9.485  0.0576  0.1182  0.1165
  247loPI   C2B 3950  17.377   5.778   9.107  0.1008  0.1755  0.0004
  247loPI   C3B 3951  17.535   5.491   8.632  0.0499  0.1812 -0.0355
  247loPI   C4B 3952  17.721   5.108   8.601  0.1824 -0.2361  0.1009
  248loPI    C1 3953   7.445   6.087  10.932 -0.0664  0.2705 -0.0754
  248loPI    C2 3954   7.337   5.720  11.048  0.2038  0.1961 -0.0518
  248loPI    C3 3955   7.322   6.023  11.307  0.2913  0.1366  0.0235
  248loPI   PO4 3956   7.413   6.075  10.669 -0.2763 -0.1598  0.0331
  248loPI   GL1 3957   7.695   6.041  10.315  0.1808  0.2251  0.2013
  248loPI   GL2 3958   7.514   5.864  10.242 -0.1260 -0.0573  0.0616
  248loPI   C1A 3959   7.461   6.263   9.858  0.0713  0.0686  0.1102
  248loPI   C2A 3960   7.478   6.400   9.450  0.0416 -0.0425  0.1626
  248loPI   C3A 3961   7.614   6.368   8.984 -0.0482  0.0275 -0.1592
  248loPI   C4A 3962   7.613   6.406   8.522  0.2673  0.1226 -0.0108
  248loPI   C5A 3963   7.603   6.204   8.174 -0.2830  0.2482 -0.0136
  248loPI   C6A 3964   7.477   6.159   7.666 -0.2264 -0.0097 -0.1406
  248loPI   C1B 3965   7.755   5.899   9.796  0.0477  0.2164  0.0347
  248loPI   C2B 3966   7.842   5.922   9.338  0.0088 -0.1447 -0.0677
  248loPI   C3B 3967   7.934   6.011   8.822 -0.0847 -0.0054 -0.2132
  248loPI   C4B 3968   8.220   6.129   8.455 -0.0718  0.3681 -0.4672
  249loPI    C1 3969   7.873   8.808  10.775  0.0268  0.1144  0.4591
  249loPI    C2 3970   7.575   8.613  10.591  0.2451  0.1540  0.0510
  249loPI    C3 3971   7.505   8.810  10.933 -0.1656  0.0585  0.0268
  249loPI   PO4 3972   7.955   8.946  10.616 -0.0135 -0.2289  0.3041
  249loPI   GL1 3973   7.943   9.153  10.244  0.1437  0.1863 -0.0377
  249loPI   GL2 3974   7.574   9.026  10.286  0.1964  0.2590  0.0100
  249loPI   C1A 3975   8.073   9.016   9.851 -0.1864 -0.0144 -0.1119
  249loPI   C2A 3976   8.091   8.981   9.489  0.0473 -0.1656 -0.3776
  249loPI   C3A 3977   8.030   9.019   9.077 -0.0036 -0.1900 -0.0654
  249loPI   C4A 3978   8.110   9.008   8.630  0.1690  0.1200  0.1794
  249loPI   C5A 3979   7.958   9.017   8.165  0.1143  0.0760 -0.4081
  249loPI   C6A 3980   8.203   8.783   7.911  0.0877  0.2557 -0.0609
  249loPI   C1B 3981   7.543   9.039   9.861 -0.0575  0.1971  0.0601
  249loPI   C2B 3982   7.628   8.973   9.357 -0.0136 -0.0561  0.1204
  249loPI   C3B 3983   7.568   9.063   8.914  0.1442 -0.2333  0.0399
  249loPI   C4B 3984   7.527   9.027   8.457 -0.1511 -0.0738  0.0669
  250loPI    C1 3985  11.328  17.087  10.727 -0.1171  0.1341 -0.0441
  250loPI    C2 3986  11.067  16.786  10.760 -0.0749  0.0808 -0.1888
  250loPI    C3 3987  11.251  16.929  11.086  0.0015 -0.1361 -0.1352
  250loPI   PO4 3988  11.497  17.020  10.514  0.2631 -0.2389 -0.1968
  250loPI   GL1 3989  11.482  16.819  10.058 -0.2054 -0.0996 -0.0719
  250loPI   GL2 3990  11.584  16.551  10.032  0.1159 -0.1099  0.0778
  250loPI   C1A 3991  11.431  16.943   9.602  0.1735  0.2525 -0.0338
  250loPI   C2A 3992  11.562  16.753   9.202 -0.2013  0.1875 -0.2088
  250loPI   C3A 3993  11.321  16.734   8.844 -0.0014 -0.1571 -0.1693
  250loPI   C4A 3994  11.150  16.657   8.415 -0.1566  0.2695  0.3556
  250loPI   C5A 3995  10.815  16.574   8.191  0.1714 -0.3369 -0.3543
  250loPI   C6A 3996  10.835  16.217   7.956 -0.0244 -0.0261  0.0847
  250loPI   C1B 3997  11.511  16.433   9.640 -0.0287  0.0615  0.0967
  250loPI   C2B 3998  11.783  16.271   9.251  0.0779 -0.1825  0.0903
  250loPI   C3B 3999  11.517  16.182   8.856 -0.1399  0.0099 -0.1302
  250loPI   C4B 4000  11.442  16.301   8.532 -0.0592 -0.2610 -0.2152
  251loPI    C1 4001   6.207  16.424  11.235 -0.0114  0.3043 -0.0127
  251loPI    C2 4002   5.947  16.355  11.532  0.1602 -0.1600  0.0382
  251loPI    C3 4003   6.301  16.525  11.610 -0.1388  0.5334 -0.0407
  251loPI   PO4 4004   6.159  16.088  11.038  0.0575 -0.1066  0.0187
  251loPI   GL1 4005   5.952  16.000  10.651  0.0248 -0.0049  0.1962
  251loPI   GL2 4006   6.287  16.157  10.556  0.0988 -0.3029  0.0427
  251loPI   C1A 4007   5.920  15.895  10.234 -0.4753  0.1016  0.1280
  251loPI   C2A 4008   5.804  15.886   9.858 -0.1415  0.0630  0.0407
  251loPI   C3A 4009   5.766  15.854   9.471 -0.1600 -0.3267  0.2588
  251loPI   C4A 4010   5.752  15.868   9.091  0.1650 -0.2357  0.0693
  251loPI   C5A 4011   5.940  15.804   8.709 -0.0474  0.2490  0.1363
  251loPI   C6A 4012   5.845  15.675   8.250  0.1804 -0.0737  0.0237
  251loPI   C1B 4013   6.228  16.306  10.191 -0.1425 -0.1049 -0.1751
  251loPI   C2B 4014   6.189  16.315   9.778 -0.2559  0.1597  0.2067
  251loPI   C3B 4015   6.185  16.200   9.344 -0.1889 -0.0249 -0.3313
  251loPI   C4B 4016   6.276  16.112   8.911  0.2905 -0.1406  0.0675
  252loPI    C1 4017   5.626  13.580  10.703 -0.0411  0.0192 -0.1700
  252loPI    C2 4018   5.622  13.283  10.970 -0.0951  0.0953 -0.0858
  252loPI    C3 4019   5.282  13.472  10.875 -0.0989 -0.0205 -0.3091
  252loPI   PO4 4020   5.753  13.429  10.532 -0.2812 -0.0834  0.2519
  252loPI   GL1 4021   5.844  13.747  10.208  0.0785  0.2862  0.4633
  252loPI   GL2 4022   5.524  13.802  10.270 -0.2868 -0.0654 -0.2628
  252loPI   C1A 4023   5.873  13.507   9.851 -0.1309 -0.1236 -0.0528
  252loPI   C2A 4024   5.756  13.454   9.425 -0.0817 -0.1217 -0.0802
  252loPI   C3A 4025   5.845  13.555   8.987 -0.0081  0.0867  0.1124
  252loPI   C4A 4026   5.625  13.544   8.543 -0.0647  0.2421  0.0331
  252loPI   C5A 4027   5.587  13.702   8.184 -0.0967  0.1285  0.0689
  252loPI   C6A 4028   5.376  14.180   8.001  0.3521  0.1556  0.1274
  252loPI   C1B 4029   5.435  13.767   9.876  0.0897 -0.0664 -0.0800
  252loPI   C2B 4030   5.481  13.864   9.580 -0.0864 -0.0856 -0.0961
  252loPI   C3B 4031   5.393  13.706   9.210  0.2414  0.0848 -0.2872
  252loPI   C4B 4032   5.209  13.806   8.779  0.0370  0.2534  0.2139
  253loPI    C1 4033  17.000   8.909  10.260 -0.2444  0.0600 -0.1150
  253loPI    C2 4034  17.240   8.877  10.578  0.0524 -0.3099 -0.3667
  253loPI    C3 4035  16.848   8.935  10.629  0.1716  0.2192  0.0522
  253loPI   PO4 4036  17.241   8.774  10.036  0.3127 -0.3135  0.2854
  253loPI   GL1 4037  17.325   8.643   9.584  0.1362  0.0868 -0.0056
  253loPI   GL2 4038  17.068   8.760   9.557 -0.1971 -0.0491  0.0329
  253loPI   C1A 4039  17.389   8.616   9.124  0.1477  0.0084 -0.0564
  253loPI   C2A 4040  17.467   8.705   8.764  0.0382  0.0496 -0.0421
  253loPI   C3A 4041  17.346   8.597   8.385 -0.0745  0.2093  0.1175
  253loPI   C4A 4042  17.499   8.274   8.065  0.1272 -0.1223 -0.3273
  253loPI   C5A 4043  17.517   7.797   8.064 -0.0141 -0.1321 -0.1680
  253loPI   C6A 4044  17.601   7.373   8.015  0.0392  0.1547 -0.2608
  253loPI   C1B 4045  16.938   8.851   9.159 -0.1259 -0.0954  0.0804
  253loPI   C2B 4046  16.976   8.946   8.668 -0.0236 -0.2967 -0.0746
  253loPI   C3B 4047  17.041   9.012   8.221 -0.0732  0.1225 -0.0801
  253loPI   C4B 4048  17.164   9.345   8.006 -0.0199 -0.1409 -0.0341
  254loPI    C1 4049  14.171   0.184  11.141 -0.0898  0.2885  0.3313
  254loPI    C2 4050  14.091  -0.158  11.333  0.2771  0.0256  0.0340
  254loPI    C3 4051  14.254   0.149  11.531  0.1188 -0.0341  0.2622
  254loPI   PO4 4052  14.367  -0.015  10.901  0.0899  0.1168  0.0723
  254loPI   GL1 4053  14.310  -0.324  10.504  0.0042 -0.0881  0.0914
  254loPI   GL2 4054  14.687  -0.390  10.539  0.2070 -0.1146  0.1284
  254loPI   C1A 4055  14.278  -0.313  10.103  0.0958 -0.3010  0.2023
  254loPI   C2A 4056  14.167  -0.172   9.691 -0.0140 -0.1993 -0.0340
  254loPI   C3A 4057  14.160  -0.145   9.209  0.1891  0.2261  0.0265
  254loPI   C4A 4058  14.272  -0.207   8.761  0.3447  0.1420  0.1740
  254loPI   C5A 4059  14.374  -0.329   8.340 -0.0198 -0.0657  0.3369
  254loPI   C6A 4060  14.264  -0.576   7.923  0.1150 -0.1599 -0.1984
  254loPI   C1B 4061  14.766  -0.395  10.193  0.0741 -0.1113 -0.2269
  254loPI   C2B 4062  14.643  -0.452   9.730 -0.1388 -0.1597  0.1623
  254loPI   C3B 4063  14.738  -0.344   9.288 -0.1966  0.2891  0.1852
  254loPI   C4B 4064  14.741  -0.278   8.836  0.0441  0.0556 -0.0352
  255loPI    C1 4065  14.890  14.042  10.222 -0.2620  0.0535  0.0287
  255loPI    C2 4066  14.802  14.304  10.511  0.0281  0.1817  0.0046
  255loPI    C3 4067  14.712  14.388  10.131 -0.2767  0.0502  0.0450
  255loPI   PO4 4068  14.734  13.824  10.333 -0.0621  0.0693  0.2501
  255loPI   GL1 4069  14.423  13.551  10.206  0.0793 -0.1827 -0.0740
  255loPI   GL2 4070  14.437  13.250  10.172 -0.1301  0.1166 -0.1114
  255loPI   C1A 4071  14.174  13.664   9.832 -0.2662 -0.0371 -0.0119
  255loPI   C2A 4072  14.159  13.568   9.353  0.2637 -0.1376  0.2171
  255loPI   C3A 4073  14.201  13.705   8.917  0.0117 -0.0343  0.0927
  255loPI   C4A 4074  14.525  13.676   8.519  0.3164 -0.0263  0.1740
  255loPI   C5A 4075  14.464  13.653   8.134  0.1476  0.0592  0.0603
  255loPI   C6A 4076  14.312  13.851   7.774  0.0709  0.2657 -0.3106
  255loPI   C1B 4077  14.473  13.232   9.721 -0.1567 -0.2249 -0.1395
  255loPI   C2B 4078  14.671  13.518   9.466 -0.1396  0.1553  0.2475
  255loPI   C3B 4079  14.694  13.780   9.038 -0.0154  0.2070  0.0880
  255loPI   C4B 4080  14.875  14.081   9.017 -0.2329  0.1843 -0.1432
  256loPI    C1 4081  14.025   7.587  10.535  0.1223 -0.0634  0.0967
  256loPI    C2 4082  13.670   7.449  10.660  0.2006 -0.0174  0.3747
  256loPI    C3 4083  14.001   7.230  10.715  0.2457  0.0344  0.3105
  256loPI   PO4 4084  14.011   7.652  10.315 -0.1974 -0.2671  0.0881
  256loPI   GL1 4085  14.096   7.438   9.901  0.0094 -0.1971  0.0195
  256loPI   GL2 4086  14.393   7.466   9.852 -0.1864  0.0899  0.2398
  256loPI   C1A 4087  14.004   7.391   9.443  0.1777  0.1801 -0.0135
  256loPI   C2A 4088  13.984   7.211   9.021 -0.0048 -0.1497  0.1207
  256loPI   C3A 4089  13.718   6.808   8.939  0.0174  0.2549 -0.0664
  256loPI   C4A 4090  13.434   6.552   8.707  0.1238 -0.4880 -0.2343
  256loPI   C5A 4091  13.220   6.497   8.202 -0.1126 -0.1538  0.5025
  256loPI   C6A 4092  12.915   6.175   8.116 -0.1219 -0.1411 -0.1698
  256loPI   C1B 4093  14.502   7.472   9.410  0.0835 -0.2071  0.0308
  256loPI   C2B 4094  14.547   7.386   9.016  0.0410 -0.2874  0.3201
  256loPI   C3B 4095  14.384   7.204   8.605 -0.0257  0.2330 -0.0923
  256loPI   C4B 4096  13.989   7.278   8.323  0.0111 -0.1403 -0.1165
  257loPI    C1 4097   1.010   1.673  10.441 -0.1861 -0.1145  0.2037
  257loPI    C2 4098   1.308   1.500  10.644  0.1996  0.1491 -0.1209
  257loPI    C3 4099   1.141   1.836  10.782 -0.1821 -0.1742  0.2308
  257loPI   PO4 4100   0.896   1.486  10.275  0.0170  0.2072 -0.3701
  257loPI   GL1 4101   0.906   1.415   9.942 -0.0544  0.0032  0.0027
  257loPI   GL2 4102   1.037   1.141   9.881 -0.1427  0.1909 -0.0622
  257loPI   C1A 4103   0.877   1.661   9.575  0.0270 -0.1986  0.0758
  257loPI   C2A 4104   1.136   1.774   9.238 -0.0919  0.0325 -0.1466
  257loPI   C3A 4105   1.054   1.824   8.801 -0.0559  0.0161 -0.0557
  257loPI   C4A 4106   0.945   1.904   8.331 -0.3129  0.2493 -0.1168
  257loPI   C5A 4107   0.635   2.103   8.152  0.1033  0.1089 -0.0793
  257loPI   C6A 4108   0.365   2.422   8.037 -0.3402 -0.0451 -0.1035
  257loPI   C1B 4109   0.941   0.784   9.657  0.0309  0.2512 -0.1612
  257loPI   C2B 4110   0.786   0.470   9.500  0.2875 -0.0659  0.1261
  257loPI   C3B 4111   0.803   0.401   9.064 -0.1229 -0.0048  0.0643
  257loPI   C4B 4112   0.786   0.413   8.632  0.1622  0.1473 -0.2361
  258loPI    C1 4113  10.681   5.730  10.908 -0.1594 -0.0572  0.0693
  258loPI    C2 4114  10.810   6.058  10.720 -0.0474 -0.0409  0.1734
  258loPI    C3 4115  10.744   6.066  11.114 -0.2233 -0.0919  0.1459
  258loPI   PO4 4116  10.641   5.569  10.722 -0.1898 -0.3008  0.0712
  258loPI   GL1 4117  10.663   5.526  10.289 -0.1403 -0.1025 -0.0669
  258loPI   GL2 4118  10.876   5.460  10.143 -0.1656  0.2797  0.1317
  258loPI   C1A 4119  10.351   5.555   9.907 -0.0806  0.2295 -0.0467
  258loPI   C2A 4120  10.314   5.565   9.575 -0.1240  0.0344 -0.0445
  258loPI   C3A 4121  10.193   5.472   9.125  0.2379  0.1034  0.0785
  258loPI   C4A 4122  10.497   5.566   8.811 -0.0588 -0.5146  0.0191
  258loPI   C5A 4123  10.704   5.827   8.419 -0.3291  0.1009  0.1666
  258loPI   C6A 4124  10.457   5.938   8.125 -0.1549  0.0750  0.0602
  258loPI   C1B 4125  10.791   5.486   9.692  0.3321 -0.1065  0.1881
  258loPI   C2B 4126  10.693   5.496   9.268 -0.0645  0.3004  0.3192
  258loPI   C3B 4127  10.730   5.162   8.959  0.2782  0.0940 -0.0145
  258loPI   C4B 4128  10.798   5.234   8.533  0.1030 -0.1080 -0.1705
  259loPI    C1 4129  12.568  17.887  10.943  0.1878 -0.0734 -0.0398
  259loPI    C2 4130  12.653  17.595  11.203 -0.0940 -0.1196  0.0032
  259loPI    C3 4131  12.768  17.970  11.279 -0.1284 -0.1423  0.1687
  259loPI   PO4 4132  12.562  17.742  10.711 -0.0181 -0.1658  0.0954
  259loPI   GL1 4133  12.783  17.841  10.304  0.1458 -0.1336  0.1938
  259loPI   GL2 4134  12.871  17.500  10.310  0.0658  0.0305  0.1027
  259loPI   C1A 4135  12.966  17.942   9.968 -0.2384  0.0043  0.3940
  259loPI   C2A 4136  13.268  18.038   9.631 -0.0845 -0.1496 -0.0133
  259loPI   C3A 4137  13.210  18.133   9.196  0.0572  0.0692  0.0994
  259loPI   C4A 4138  13.199  18.088   8.788  0.0263  0.1579 -0.3010
  259loPI   C5A 4139  13.373  18.269   8.402 -0.1466 -0.3433  0.0528
  259loPI   C6A 4140  13.482  18.455   7.994  0.0129 -0.1310  0.0384
  259loPI   C1B 4141  12.786  17.455   9.951 -0.3277 -0.0097  0.0647
  259loPI   C2B 4142  12.785  17.711   9.528 -0.1930  0.0504 -0.0025
  259loPI   C3B 4143  12.778  17.814   9.147 -0.0805 -0.0563  0.3322
  259loPI   C4B 4144  12.892  17.643   8.744  0.1122 -0.0236 -0.0889
  260loPI    C1 4145  13.961  10.953  10.792 -0.1652  0.0217 -0.0202
  260loPI    C2 4146  14.014  11.223  11.083 -0.0942  0.0919 -0.0976
  260loPI    C3 4147  13.646  11.147  10.945 -0.1152  0.1428 -0.0699
  260loPI   PO4 4148  14.100  10.980  10.604  0.1186  0.0621 -0.0658
  260loPI   GL1 4149  14.100  10.824  10.254 -0.1125  0.1850  0.0249
  260loPI   GL2 4150  13.858  10.668  10.044  0.1431 -0.4314 -0.4087
  260loPI   C1A 4151  14.110  11.024   9.842  0.1297 -0.2546  0.2104
  260loPI   C2A 4152  14.314  11.031   9.509  0.0567 -0.0965  0.1006
  260loPI   C3A 4153  14.479  11.221   9.091  0.2460 -0.0062 -0.0252
  260loPI   C4A 4154  14.631  11.040   8.730  0.0009 -0.1067  0.0127
  260loPI   C5A 4155  14.891  10.810   8.402  0.1170 -0.1687  0.1702
  260loPI   C6A 4156  15.193  10.553   8.167 -0.0614 -0.1513 -0.1773
  260loPI   C1B 4157  13.597  10.502   9.670 -0.3184 -0.0716 -0.0078
  260loPI   C2B 4158  13.567  10.451   9.198  0.2695  0.2308 -0.2522
  260loPI   C3B 4159  13.614  10.191   8.730  0.2121 -0.2948  0.0463
  260loPI   C4B 4160  13.704   9.991   8.325 -0.0391 -0.0159  0.3048
  261loPI    C1 4161  14.159  14.032  10.951  0.0801  0.1203  0.2589
  261loPI    C2 4162  14.417  14.057  11.256  0.1730  0.1151  0.1808
  261loPI    C3 4163  14.186  13.733  11.216  0.3444  0.0010  0.1013
  261loPI   PO4 4164  14.303  14.153  10.747  0.2316 -0.1116 -0.2329
  261loPI   GL1 4165  14.308  14.162  10.313  0.0758 -0.1182 -0.2506
  261loPI   GL2 4166  14.014  14.071  10.084 -0.0807  0.2345  0.0966
  261loPI   C1A 4167  14.308  14.388   9.810  0.2098 -0.0351  0.0148
  261loPI   C2A 4168  14.142  14.548   9.447 -0.1685 -0.1468 -0.2414
  261loPI   C3A 4169  14.240  14.635   9.053 -0.0508  0.2177  0.0799
  261loPI   C4A 4170  14.121  14.627   8.613 -0.1618 -0.4077  0.0793
  261loPI   C5A 4171  13.950  14.691   8.197 -0.1848 -0.0089  0.0547
  261loPI   C6A 4172  14.138  14.435   7.899  0.0326 -0.0766  0.1273
  261loPI   C1B 4173  13.915  14.085   9.615 -0.2947  0.3646 -0.1928
  261loPI   C2B 4174  13.941  14.130   9.168  0.1283 -0.0928  0.1232
  261loPI   C3B 4175  13.922  14.242   8.794 -0.3226 -0.3044 -0.0161
  261loPI   C4B 4176  13.923  14.253   8.375  0.1254 -0.1179 -0.0163
  262loPI    C1 4177  11.263  10.158  10.549 -0.0477 -0.0053  0.1067
  262loPI    C2 4178  11.305  10.463  10.803  0.0504  0.0774 -0.0074
  262loPI    C3 4179  10.949  10.286  10.760  0.0354  0.0555  0.1946
  262loPI   PO4 4180  11.372  10.248  10.348 -0.0395 -0.0041  0.0798
  262loPI   GL1 4181  11.279  10.559   9.955  0.0736  0.0379  0.1875
  262loPI   GL2 4182  11.514  10.376   9.856 -0.0594 -0.1185  0.1054
  262loPI   C1A 4183  11.571  10.854   9.691 -0.1330 -0.0453 -0.0629
  262loPI   C2A 4184  11.665  10.889   9.231 -0.0479 -0.1603  0.0667
  262loPI   C3A 4185  11.700  10.902   8.782 -0.3146 -0.5199  0.1619
  262loPI   C4A 4186  11.875  10.946   8.436  0.0762 -0.1941  0.0148
  262loPI   C5A 4187  12.185  10.906   8.130 -0.0004  0.1197 -0.1578
  262loPI   C6A 4188  12.437  10.553   8.010 -0.2541  0.0570  0.0451
  262loPI   C1B 4189  11.401  10.480   9.461  0.1176 -0.2290  0.0627
  262loPI   C2B 4190  11.430  10.466   9.031 -0.1404 -0.0461 -0.1155
  262loPI   C3B 4191  11.643  10.492   8.544 -0.1351  0.2224  0.2395
  262loPI   C4B 4192  11.704  10.320   8.168 -0.1123 -0.0375  0.0164
  263loPI    C1 4193  15.400  10.959  10.617 -0.0729  0.0369  0.1853
  263loPI    C2 4194  15.108  10.769  10.420  0.0530 -0.0419  0.0731
  263loPI    C3 4195  15.164  10.701  10.810  0.0027 -0.1232  0.0664
  263loPI   PO4 4196  15.517  11.114  10.385 -0.0853  0.0557 -0.0020
  263loPI   GL1 4197  15.427  11.000  10.031 -0.0183 -0.0716  0.0343
  263loPI   GL2 4198  15.266  10.717   9.949 -0.1051  0.2427 -0.0766
  263loPI   C1A 4199  15.654  10.893   9.590  0.1938 -0.0067  0.1136
  263loPI   C2A 4200  16.011  10.966   9.287  0.1647 -0.1739 -0.0025
  263loPI   C3A 4201  16.142  11.193   9.061  0.1310  0.1317  0.1513
  263loPI   C4A 4202  16.504  11.248   8.794  0.1115 -0.2287 -0.0637
  263loPI   C5A 4203  16.320  11.120   8.326  0.0682 -0.4874 -0.0788
  263loPI   C6A 4204  16.195  11.184   7.858  0.0236  0.0420  0.0636
  263loPI   C1B 4205  15.075  10.596   9.611  0.2113 -0.1702 -0.0605
  263loPI   C2B 4206  14.968  10.475   9.250  0.2101  0.0264 -0.1183
  263loPI   C3B 4207  15.067  10.534   8.786  0.2201  0.2108 -0.0792
  263loPI   C4B 4208  15.495  10.590   8.575  0.2847  0.0661  0.0358
  264loPI    C1 4209   0.716   6.016  10.460  0.2832 -0.1022 -0.0383
  264loPI    C2 4210   0.827   6.144  10.822  0.2076  0.1861 -0.1147
  264loPI    C3 4211   0.442   6.153  10.716  0.1917 -0.1736 -0.0976
  264loPI   PO4 4212   0.888   6.170  10.314  0.0264 -0.0423 -0.0241
  264loPI   GL1 4213   0.761   6.437  10.055  0.0343  0.0408  0.0787
  264loPI   GL2 4214   0.493   6.450   9.822  0.0830  0.3187  0.0364
  264loPI   C1A 4215   0.894   6.166   9.687 -0.0300  0.0828 -0.1478
  264loPI   C2A 4216   0.862   6.183   9.241  0.1619 -0.0165 -0.1356
  264loPI   C3A 4217   0.937   6.156   8.806  0.0807 -0.2107  0.3250
  264loPI   C4A 4218   1.043   5.904   8.522  0.2398  0.2744  0.3368
  264loPI   C5A 4219   1.234   5.693   8.286 -0.0322  0.0474 -0.2162
  264loPI   C6A 4220   1.544   5.456   8.094  0.1098  0.1835  0.0074
  264loPI   C1B 4221   0.649   6.543   9.450  0.0400 -0.2598 -0.0874
  264loPI   C2B 4222   0.541   6.644   9.073 -0.1203 -0.2360 -0.2471
  264loPI   C3B 4223   0.655   6.622   8.624 -0.1603  0.0861 -0.2636
  264loPI   C4B 4224   0.642   6.351   8.324 -0.2138  0.1345 -0.1227
  265loPI    C1 4225  13.071   7.642  10.764  0.0583 -0.0081  0.0088
  265loPI    C2 4226  13.242   7.372  11.006 -0.1317 -0.2146 -0.0846
  265loPI    C3 4227  12.843   7.409  10.997 -0.1034  0.1492  0.0096
  265loPI   PO4 4228  13.276   7.606  10.439  0.1031 -0.0045 -0.0826
  265loPI   GL1 4229  13.391   7.452  10.024 -0.2466  0.1361  0.0815
  265loPI   GL2 4230  13.098   7.620   9.978 -0.3106 -0.1643  0.0945
  265loPI   C1A 4231  13.598   7.315   9.707  0.3105  0.3199  0.1533
  265loPI   C2A 4232  13.525   7.213   9.243 -0.0959  0.0374 -0.0649
  265loPI   C3A 4233  13.420   7.264   8.798 -0.0676 -0.1128  0.1682
  265loPI   C4A 4234  13.566   7.048   8.358 -0.1601  0.1766  0.0880
  265loPI   C5A 4235  13.787   6.621   8.135  0.0119 -0.1561 -0.1255
  265loPI   C6A 4236  13.712   6.190   7.853  0.0850 -0.2545  0.0926
  265loPI   C1B 4237  13.144   7.686   9.572 -0.3360 -0.1657 -0.0875
  265loPI   C2B 4238  13.157   7.504   9.178  0.1161 -0.2248 -0.1381
  265loPI   C3B 4239  13.208   7.738   8.783  0.0499 -0.2975  0.1686
  265loPI   C4B 4240  13.096   7.791   8.263  0.0414 -0.0731  0.1004
  266loPI    C1 4241  17.610   9.801  10.743 -0.2923 -0.0305  0.1282
  266loPI    C2 4242  17.507  10.173  10.638  0.0679  0.0032 -0.1218
  266loPI    C3 4243  17.636  10.098  11.009 -0.1435  0.0980 -0.0277
  266loPI   PO4 4244  17.676   9.731  10.434 -0.3277  0.1093 -0.0906
  266loPI   GL1 4245  17.980   9.662  10.091 -0.2197 -0.0446 -0.1589
  266loPI   GL2 4246  18.265   9.626  10.178 -0.4567 -0.0886 -0.1732
  266loPI   C1A 4247  17.884   9.943   9.796  0.0840 -0.1966  0.2204
  266loPI   C2A 4248  17.915   9.952   9.350  0.1379 -0.3070  0.0281
  266loPI   C3A 4249  17.789  10.109   8.880  0.0364  0.0918 -0.5283
  266loPI   C4A 4250  17.791   9.979   8.469 -0.1953  0.2835 -0.1883
  266loPI   C5A 4251  17.914   9.990   8.137 -0.1686  0.0693 -0.1487
  266loPI   C6A 4252  17.791   9.887   7.700  0.0440  0.0516  0.0892
  266loPI   C1B 4253  18.340   9.652   9.711 -0.2515 -0.1755  0.0556
  266loPI   C2B 4254  18.323   9.732   9.233 -0.3571 -0.3816 -0.2568
  266loPI   C3B 4255  18.244   9.768   8.749  0.0853 -0.0450 -0.1083
  266loPI   C4B 4256  18.316   9.776   8.308  0.2193  0.1327  0.2042
  267loPI    C1 4257  16.856   5.700  10.712  0.2703  0.2601 -0.3214
  267loPI    C2 4258  16.875   6.014  10.959  0.0496 -0.0741  0.1365
  267loPI    C3 4259  17.145   5.720  10.988  0.0423 -0.1002 -0.0469
  267loPI   PO4 4260  16.878   5.806  10.461  0.1337  0.1673  0.0766
  267loPI   GL1 4261  16.980   6.157  10.181 -0.1677  0.2585 -0.0263
  267loPI   GL2 4262  17.187   5.872  10.093  0.3719  0.0090 -0.0951
  267loPI   C1A 4263  16.873   6.166   9.770 -0.0526 -0.0994 -0.1602
  267loPI   C2A 4264  16.926   6.181   9.274  0.1983 -0.0140 -0.3907
  267loPI   C3A 4265  17.059   6.118   8.829  0.3818  0.0665 -0.2132
  267loPI   C4A 4266  16.854   6.060   8.399 -0.0798  0.0357 -0.0232
  267loPI   C5A 4267  16.684   5.977   7.979 -0.1241 -0.2863  0.0808
  267loPI   C6A 4268  16.888   5.670   7.786 -0.0798 -0.0575 -0.0512
  267loPI   C1B 4269  17.362   6.168   9.700  0.4109 -0.1761 -0.0844
  267loPI   C2B 4270  17.400   6.249   9.241  0.5338 -0.0531  0.4388
  267loPI   C3B 4271  17.521   6.277   8.860  0.1605  0.1091 -0.0639
  267loPI   C4B 4272  17.439   5.969   8.515  0.0099  0.3366  0.3945
  268loPI    C1 4273   1.702  16.200  10.887 -0.1334  0.1971 -0.0406
  268loPI    C2 4274   1.892  16.538  10.986 -0.0971  0.1347  0.1035
  268loPI    C3 4275   1.922  16.215  11.220 -0.0597  0.0041 -0.0795
  268loPI   PO4 4276   1.774  16.139  10.677  0.0182 -0.1170 -0.0692
  268loPI   GL1 4277   1.903  16.092  10.254  0.1978 -0.0972  0.1479
  268loPI   GL2 4278   2.169  16.287  10.130 -0.3063  0.1465 -0.1614
  268loPI   C1A 4279   1.737  15.931   9.814  0.0503 -0.2920  0.2582
  268loPI   C2A 4280   1.765  15.861   9.357 -0.3255 -0.0078  0.3048
  268loPI   C3A 4281   1.699  15.925   8.951  0.1993  0.1101  0.1081
  268loPI   C4A 4282   1.659  16.049   8.578 -0.0714 -0.0298 -0.0978
  268loPI   C5A 4283   1.699  16.145   8.145  0.2570 -0.0808 -0.0812
  268loPI   C6A 4284   1.721  16.574   7.995  0.1762 -0.1686  0.2003
  268loPI   C1B 4285   2.136  16.269   9.667 -0.2230  0.0485 -0.1244
  268loPI   C2B 4286   2.032  16.294   9.191 -0.0207 -0.0483  0.0559
  268loPI   C3B 4287   1.725  16.542   8.897  0.2163 -0.1627  0.0801
  268loPI   C4B 4288   1.532  16.657   8.483 -0.3573 -0.4037  0.0936
  269loPI    C1 4289   6.046   1.562  10.567 -0.0351 -0.0597  0.2086
  269loPI    C2 4290   5.764   1.289  10.489  0.1024 -0.1759  0.1123
  269loPI    C3 4291   6.138   1.173  10.572  0.1642 -0.0164  0.0620
  269loPI   PO4 4292   6.047   1.714  10.419 -0.1537 -0.0006 -0.2909
  269loPI   GL1 4293   5.906   1.685  10.092 -0.0963  0.0356 -0.0389
  269loPI   GL2 4294   5.604   1.773   9.898  0.0900  0.0115  0.2162
  269loPI   C1A 4295   6.097   1.717   9.697  0.2554  0.3347 -0.1458
  269loPI   C2A 4296   5.989   1.685   9.262  0.0529 -0.4500 -0.0209
  269loPI   C3A 4297   6.001   1.657   8.820  0.0088 -0.0209  0.2597
  269loPI   C4A 4298   5.778   1.383   8.545  0.1057  0.0235  0.0237
  269loPI   C5A 4299   5.585   1.349   8.213  0.1017 -0.0255 -0.2042
  269loPI   C6A 4300   5.411   1.407   7.773 -0.0382 -0.0427 -0.1207
  269loPI   C1B 4301   5.569   1.720   9.478  0.1491 -0.0118 -0.0082
  269loPI   C2B 4302   5.494   1.737   8.947  0.1716 -0.1172 -0.1805
  269loPI   C3B 4303   5.284   1.728   8.533  0.0344  0.1743 -0.1502
  269loPI   C4B 4304   4.877   1.791   8.329 -0.1452  0.1561  0.0217
  270loPI    C1 4305   8.562   0.186  10.839 -0.1547 -0.0137 -0.0900
  270loPI    C2 4306   8.417   0.115  11.205 -0.1382 -0.1094 -0.1018
  270loPI    C3 4307   8.308   0.446  11.007 -0.1810 -0.0792 -0.0282
  270loPI   PO4 4308   8.479   0.016  10.698 -0.1824  0.3221 -0.0753
  270loPI   GL1 4309   8.296  -0.018  10.313 -0.1990 -0.0501  0.0915
  270loPI   GL2 4310   8.272  -0.044   9.984  0.1323 -0.0486 -0.0190
  270loPI   C1A 4311   7.847  -0.119  10.128  0.1303 -0.2259 -0.2064
  270loPI   C2A 4312   7.719  -0.006   9.669 -0.2027 -0.3111  0.0904
  270loPI   C3A 4313   7.773   0.095   9.315 -0.0552 -0.1707 -0.1422
  270loPI   C4A 4314   7.839   0.145   8.860  0.0146  0.2187 -0.1852
  270loPI   C5A 4315   8.034   0.139   8.376  0.0999 -0.1931  0.0072
  270loPI   C6A 4316   8.210   0.414   8.171  0.3546 -0.0739  0.1283
  270loPI   C1B 4317   8.182   0.182   9.580  0.0734 -0.2535  0.2727
  270loPI   C2B 4318   8.338   0.125   9.188  0.3601 -0.2525  0.1518
  270loPI   C3B 4319   8.352   0.202   8.736  0.1979 -0.2716  0.2414
  270loPI   C4B 4320   8.652   0.547   8.524 -0.0935 -0.1610 -0.1187
  271loPI    C1 4321   1.721  11.480  10.746 -0.2694 -0.1849 -0.0690
  271loPI    C2 4322   1.745  11.417  11.141 -0.0529  0.1476 -0.0251
  271loPI    C3 4323   1.883  11.141  10.885  0.3960  0.2022  0.1475
  271loPI   PO4 4324   1.526  11.644  10.624  0.0573  0.0373 -0.2579
  271loPI   GL1 4325   1.332  11.499  10.231 -0.1460  0.1466  0.1785
  271loPI   GL2 4326   1.624  11.351  10.156  0.1829  0.2173  0.2617
  271loPI   C1A 4327   1.167  11.204   9.865 -0.2005 -0.2377  0.0318
  271loPI   C2A 4328   1.209  11.176   9.481  0.2924 -0.1034 -0.2875
  271loPI   C3A 4329   1.009  11.115   9.079  0.2824  0.0927  0.1854
  271loPI   C4A 4330   1.198  11.015   8.680  0.0010  0.1233 -0.2454
  271loPI   C5A 4331   1.001  10.952   8.279 -0.1454 -0.0280 -0.2150
  271loPI   C6A 4332   0.676  11.155   8.055 -0.0480  0.2106 -0.0988
  271loPI   C1B 4333   1.606  11.668   9.826 -0.1188  0.1721  0.2426
  271loPI   C2B 4334   1.671  11.751   9.484 -0.3107  0.0174  0.2053
  271loPI   C3B 4335   1.874  11.652   9.027 -0.2662  0.1088  0.1404
  271loPI   C4B 4336   2.270  11.603   9.000 -0.1116 -0.0044  0.1839
  272loPI    C1 4337   4.801   5.564  10.787 -0.0236 -0.2661  0.0322
  272loPI    C2 4338   5.079   5.635  11.066 -0.1178  0.0770  0.0440
  272loPI    C3 4339   4.739   5.451  11.166 -0.0525 -0.0109  0.1058
  272loPI   PO4 4340   4.767   5.787  10.683  0.0468 -0.0760 -0.0272
  272loPI   GL1 4341   4.830   5.920  10.281 -0.1340  0.2086  0.0436
  272loPI   GL2 4342   4.510   6.068  10.251  0.0683 -0.1949  0.0740
  272loPI   C1A 4343   4.754   5.815   9.824 -0.0579 -0.0647 -0.0474
  272loPI   C2A 4344   4.618   5.821   9.473 -0.1465  0.0900  0.4430
  272loPI   C3A 4345   4.711   5.743   9.068  0.0269 -0.4326 -0.0221
  272loPI   C4A 4346   4.779   5.626   8.578 -0.1171  0.0196  0.0572
  272loPI   C5A 4347   4.947   5.578   8.124  0.2135  0.2057  0.0823
  272loPI   C6A 4348   4.668   5.737   7.658  0.1619  0.0302  0.1081
  272loPI   C1B 4349   4.894   6.293   9.975  0.0703 -0.1560 -0.1368
  272loPI   C2B 4350   4.938   6.289   9.544 -0.2019 -0.2665 -0.1611
  272loPI   C3B 4351   4.910   6.164   9.140 -0.2467  0.0012 -0.2238
  272loPI   C4B 4352   5.017   6.329   8.711  0.0961 -0.0905  0.2082
  273loPI    C1 4353  12.858  18.210  10.652 -0.0718  0.3178 -0.2190
  273loPI    C2 4354  12.686  18.424  10.943  0.1183  0.1962 -0.0139
  273loPI    C3 4355  13.048  18.263  11.000  0.0366 -0.0654 -0.2147
  273loPI   PO4 4356  12.784  18.326  10.483  0.1789 -0.0645  0.0731
  273loPI   GL1 4357  12.726  18.545  10.157  0.0574  0.1035  0.0449
  273loPI   GL2 4358  12.548  18.765  10.121  0.0817  0.0981  0.3335
  273loPI   C1A 4359  12.772  18.319   9.784 -0.2054  0.3094 -0.0838
  273loPI   C2A 4360  12.797  18.321   9.363 -0.0157 -0.0664  0.2715
  273loPI   C3A 4361  12.719  18.269   8.971  0.3524 -0.1823  0.1279
  273loPI   C4A 4362  12.667  18.183   8.588  0.2843 -0.0295 -0.2091
  273loPI   C5A 4363  12.890  18.211   8.247  0.1881  0.2474  0.0004
  273loPI   C6A 4364  13.199  17.960   8.015 -0.1806  0.2959  0.0337
  273loPI   C1B 4365  12.682  18.779   9.663  0.1917 -0.0214 -0.0227
  273loPI   C2B 4366  12.667  18.825   9.196 -0.3614  0.0581 -0.2249
  273loPI   C3B 4367  12.846  18.698   8.747 -0.1017  0.1931 -0.0714
  273loPI   C4B 4368  13.100  18.697   8.293  0.0616  0.1427  0.0860
  274loPI    C1 4369   5.789  17.836  10.784  0.0261  0.0063 -0.0366
  274loPI    C2 4370   5.620  18.184  10.682  0.0404  0.0362  0.0409
  274loPI    C3 4371   5.817  18.152  11.028  0.1009 -0.0290  0.0006
  274loPI   PO4 4372   5.930  17.776  10.636  0.0079 -0.0836 -0.0875
  274loPI   GL1 4373   5.953  18.091  10.245 -0.1538 -0.2853  0.1607
  274loPI   GL2 4374   6.003  17.737  10.162  0.0474  0.0741  0.3536
  274loPI   C1A 4375   6.299  18.094  10.076 -0.0178 -0.2575  0.2504
  274loPI   C2A 4376   6.349  18.149   9.631 -0.2462  0.0782 -0.0641
  274loPI   C3A 4377   6.325  18.027   9.266 -0.3045  0.0451  0.5025
  274loPI   C4A 4378   6.348  18.060   8.882  0.0883  0.1253 -0.0245
  274loPI   C5A 4379   6.603  17.855   8.557 -0.2893 -0.3410 -0.2059
  274loPI   C6A 4380   6.685  17.968   8.182 -0.3904 -0.3028 -0.0956
  274loPI   C1B 4381   5.903  17.856   9.738 -0.1425  0.0912  0.3866
  274loPI   C2B 4382   5.910  17.726   9.327 -0.2705  0.2450  0.0890
  274loPI   C3B 4383   5.966  17.756   9.014  0.4915 -0.2863  0.1472
  274loPI   C4B 4384   6.064  17.690   8.550  0.0834 -0.0763  0.1412
  275loPI    C1 4385   0.635  13.233  10.802  0.0536 -0.0087 -0.0314
  275loPI    C2 4386   0.816  13.417  11.107  0.0598 -0.1286  0.0378
  275loPI    C3 4387   0.828  13.018  11.078 -0.2757 -0.1459  0.0976
  275loPI   PO4 4388   0.534  13.550  10.606 -0.2328 -0.0408  0.1311
  275loPI   GL1 4389   0.474  13.581  10.183 -0.1066  0.0586  0.0042
  275loPI   GL2 4390   0.734  13.743   9.991  0.3692 -0.1345 -0.0152
  275loPI   C1A 4391   0.210  13.760   9.858  0.2529  0.1340  0.1597
  275loPI   C2A 4392   0.226  13.943   9.460  0.2051 -0.0749  0.0254
  275loPI   C3A 4393   0.144  14.168   9.105  0.1270 -0.0584 -0.0514
  275loPI   C4A 4394   0.176  14.335   8.633  0.0265  0.1519  0.1654
  275loPI   C5A 4395   0.152  14.515   8.242 -0.1888 -0.0322  0.1171
  275loPI   C6A 4396   0.209  14.786   7.862  0.2311 -0.0188 -0.1121
  275loPI   C1B 4397   0.726  13.814   9.493 -0.1318 -0.3169  0.1285
  275loPI   C2B 4398   0.653  13.954   9.027  0.5505  0.0890 -0.2512
  275loPI   C3B 4399   0.601  14.078   8.622 -0.2594  0.4010  0.1289
  275loPI   C4B 4400   0.628  14.099   8.199 -0.1735  0.4623  0.1267
  276loPI    C1 4401   7.628   4.245  10.460  0.2934  0.0885 -0.2400
  276loPI    C2 4402   7.592   4.390  10.089 -0.4157  0.1635 -0.1573
  276loPI    C3 4403   7.388   4.557  10.390  0.4111  0.3247  0.3476
  276loPI   PO4 4404   7.744   3.958  10.278  0.1556 -0.0173 -0.2394
  276loPI   GL1 4405   7.533   3.905   9.971 -0.1733  0.0523  0.1265
  276loPI   GL2 4406   7.546   3.707   9.752 -0.1067  0.2365 -0.3875
  276loPI   C1A 4407   7.785   4.157   9.656  0.0372  0.0218  0.0395
  276loPI   C2A 4408   8.103   4.055   9.307 -0.0398 -0.0076 -0.6123
  276loPI   C3A 4409   8.006   3.750   8.985 -0.0642  0.1477 -0.1609
  276loPI   C4A 4410   7.803   3.659   8.742  0.1150 -0.0138  0.1641
  276loPI   C5A 4411   7.766   3.585   8.392 -0.0960 -0.1844  0.2029
  276loPI   C6A 4412   7.799   3.401   7.987 -0.5392  0.0404  0.0285
  276loPI   C1B 4413   7.888   3.555   9.452 -0.0404 -0.2563  0.0185
  276loPI   C2B 4414   8.045   3.297   9.125  0.0178  0.1614 -0.0205
  276loPI   C3B 4415   8.075   2.946   9.019 -0.2382  0.2726  0.0739
  276loPI   C4B 4416   8.053   2.694   8.644  0.0497  0.0460  0.1549
  277loPI    C1 4417  16.019   8.267  10.615 -0.0535 -0.0332  0.0255
  277loPI    C2 4418  16.326   8.501  10.723  0.0684 -0.1620 -0.0376
  277loPI    C3 4419  16.266   8.151  10.908  0.0407 -0.2000 -0.1173
  277loPI   PO4 4420  16.005   8.326  10.353  0.0474 -0.0251  0.0538
  277loPI   GL1 4421  16.065   8.037   9.936  0.0124  0.2097  0.0595
  277loPI   GL2 4422  15.823   8.392   9.795 -0.1929 -0.0704 -0.0154
  277loPI   C1A 4423  16.076   7.769   9.598  0.0926  0.0900 -0.0892
  277loPI   C2A 4424  16.082   7.785   9.235  0.4505 -0.0080  0.0377
  277loPI   C3A 4425  16.125   7.903   8.822 -0.1610  0.2295  0.0584
  277loPI   C4A 4426  16.264   7.688   8.405  0.0010  0.0874  0.2280
  277loPI   C5A 4427  16.549   7.563   8.120 -0.1923 -0.0428  0.1164
  277loPI   C6A 4428  16.776   7.700   7.815  0.1550  0.2237  0.3673
  277loPI   C1B 4429  16.078   8.247   9.441  0.3378  0.1714 -0.1534
  277loPI   C2B 4430  16.206   8.321   9.015  0.1380  0.0609  0.1735
  277loPI   C3B 4431  16.235   8.332   8.523  0.1175 -0.0399 -0.0811
  277loPI   C4B 4432  16.373   8.487   8.186 -0.0826  0.2057 -0.0806
  278loPI    C1 4433   8.691   3.433  10.791  0.1600  0.2996 -0.0922
  278loPI    C2 4434   8.986   3.169  10.729 -0.1685 -0.0771 -0.0889
  278loPI    C3 4435   8.944   3.343  11.087  0.0111 -0.0670 -0.0719
  278loPI   PO4 4436   8.573   3.415  10.526  0.0675 -0.1529  0.1122
  278loPI   GL1 4437   8.408   3.310  10.061 -0.2295  0.0904  0.2204
  278loPI   GL2 4438   8.647   3.152  10.028 -0.0352 -0.1953  0.0599
  278loPI   C1A 4439   8.351   3.552   9.678  0.2372 -0.1571  0.1354
  278loPI   C2A 4440   8.488   3.641   9.235 -0.1760 -0.1165 -0.1093
  278loPI   C3A 4441   8.624   3.551   8.809  0.3176 -0.0870 -0.0218
  278loPI   C4A 4442   8.923   3.745   8.543 -0.2042 -0.2389  0.0169
  278loPI   C5A 4443   8.974   3.590   8.145 -0.1442  0.0804 -0.0729
  278loPI   C6A 4444   9.033   3.350   7.806  0.2610 -0.1450 -0.0830
  278loPI   C1B 4445   8.621   3.172   9.597 -0.1026  0.0173 -0.3034
  278loPI   C2B 4446   8.568   3.170   9.231 -0.0388  0.0331 -0.1124
  278loPI   C3B 4447   8.555   3.062   8.831  0.0838  0.1708 -0.3213
  278loPI   C4B 4448   8.538   2.864   8.473  0.2424  0.3745  0.1529
  279loPI    C1 4449   6.860   7.968  10.984  0.0254 -0.1377  0.2502
  279loPI    C2 4450   6.511   8.113  10.854  0.1390 -0.0825  0.0007
  279loPI    C3 4451   6.731   8.324  11.113  0.3021  0.1981 -0.3583
  279loPI   PO4 4452   6.968   7.895  10.748  0.3344  0.0530  0.1999
  279loPI   GL1 4453   7.230   7.940  10.395  0.0828  0.0403  0.0339
  279loPI   GL2 4454   7.484   8.065  10.501 -0.1708 -0.1769  0.0500
  279loPI   C1A 4455   7.248   7.746   9.976  0.0930 -0.0097 -0.0826
  279loPI   C2A 4456   7.355   7.675   9.512 -0.0458 -0.3071  0.0425
  279loPI   C3A 4457   7.340   7.734   9.105  0.1130  0.0516  0.0647
  279loPI   C4A 4458   7.331   7.709   8.772  0.1219  0.1129  0.0095
  279loPI   C5A 4459   7.263   7.596   8.324  0.0134 -0.2310 -0.0419
  279loPI   C6A 4460   7.095   7.820   8.060 -0.0874  0.0210 -0.1367
  279loPI   C1B 4461   7.506   8.217  10.059  0.0146  0.3935 -0.0693
  279loPI   C2B 4462   7.628   8.068   9.603 -0.1003  0.0114 -0.0693
  279loPI   C3B 4463   7.680   8.084   9.213 -0.0670  0.0873 -0.2221
  279loPI   C4B 4464   7.530   8.181   8.748  0.1448  0.2080  0.2201
  280loPI    C1 4465  15.582   1.505  10.949 -0.1092  0.0637 -0.0066
  280loPI    C2 4466  15.788   1.836  11.037  0.1949 -0.1471  0.0928
  280loPI    C3 4467  15.568   1.657  11.319 -0.2948  0.1873 -0.0630
  280loPI   PO4 4468  15.492   1.566  10.734 -0.1445  0.2236  0.0582
  280loPI   GL1 4469  15.598   1.521  10.353 -0.2300  0.1084  0.0831
  280loPI   GL2 4470  15.394   1.211  10.309  0.0630  0.0969 -0.4009
  280loPI   C1A 4471  15.745   1.602   9.847 -0.0185  0.0188 -0.2354
  280loPI   C2A 4472  15.670   1.611   9.472 -0.0013 -0.1351 -0.1283
  280loPI   C3A 4473  15.737   1.666   9.060 -0.2839  0.2239  0.2332
  280loPI   C4A 4474  15.657   1.516   8.744  0.2184 -0.0591 -0.0492
  280loPI   C5A 4475  15.784   1.527   8.275  0.0528 -0.0817  0.1102
  280loPI   C6A 4476  16.106   1.606   7.983 -0.0662  0.1699 -0.0539
  280loPI   C1B 4477  15.334   1.313   9.858 -0.1176  0.1384  0.1608
  280loPI   C2B 4478  15.256   1.322   9.500 -0.0763  0.0887 -0.0907
  280loPI   C3B 4479  15.304   1.298   9.030  0.1391 -0.1059 -0.4458
  280loPI   C4B 4480  15.417   1.159   8.590  0.0490 -0.1238  0.0360
  281loPI    C1 4481   7.236  13.001  10.844  0.0760  0.0433  0.1858
  281loPI    C2 4482   7.618  12.892  10.793  0.0641  0.0223  0.1415
  281loPI    C3 4483   7.450  12.871  11.156  0.1816  0.2769  0.2126
  281loPI   PO4 4484   7.149  12.934  10.549  0.0694 -0.1155  0.0262
  281loPI   GL1 4485   7.115  12.848  10.149  0.0638  0.1369 -0.2472
  281loPI   GL2 4486   7.206  12.548   9.978 -0.0068  0.2255  0.2112
  281loPI   C1A 4487   7.154  13.016   9.761  0.3067  0.1662 -0.0634
  281loPI   C2A 4488   7.140  12.972   9.352  0.0195  0.0379  0.0541
  281loPI   C3A 4489   7.107  13.045   8.998  0.4878 -0.0120  0.1173
  281loPI   C4A 4490   6.839  13.093   8.720 -0.1251 -0.1969 -0.0836
  281loPI   C5A 4491   6.546  12.994   8.450 -0.3528 -0.2048 -0.0599
  281loPI   C6A 4492   6.538  12.761   8.052  0.0910  0.0456 -0.1029
  281loPI   C1B 4493   7.292  12.510   9.514  0.1858  0.1211 -0.0070
  281loPI   C2B 4494   7.322  12.593   9.082 -0.1923  0.2953 -0.4049
  281loPI   C3B 4495   7.212  12.683   8.688 -0.3565 -0.1244  0.3925
  281loPI   C4B 4496   6.995  12.858   8.259  0.1007  0.0218 -0.0940
  282loPI    C1 4497  12.163  18.299  10.924  0.0288 -0.1660 -0.1295
  282loPI    C2 4498  11.924  18.019  11.079 -0.2015  0.1556  0.1110
  282loPI    C3 4499  12.250  18.137  11.279 -0.0340 -0.0275 -0.0499
  282loPI   PO4 4500  12.274  18.229  10.693 -0.0618  0.1562 -0.1048
  282loPI   GL1 4501  12.277  17.937  10.386  0.1905 -0.0621  0.2803
  282loPI   GL2 4502  12.342  17.602  10.313 -0.3572 -0.3161  0.1926
  282loPI   C1A 4503  12.406  18.000   9.999 -0.2669 -0.0666 -0.2456
  282loPI   C2A 4504  12.338  18.119   9.493 -0.4117 -0.0391  0.2564
  282loPI   C3A 4505  12.276  17.991   9.097 -0.2279  0.0861  0.0488
  282loPI   C4A 4506  12.354  17.800   8.727  0.1208 -0.0866  0.1463
  282loPI   C5A 4507  12.263  17.823   8.285  0.5898  0.0752 -0.6266
  282loPI   C6A 4508  12.177  18.208   8.224 -0.0493 -0.0343  0.1550
  282loPI   C1B 4509  12.122  17.659   9.868 -0.1115 -0.1215  0.0955
  282loPI   C2B 4510  11.932  17.774   9.454  0.1974  0.1062  0.0753
  282loPI   C3B 4511  11.824  17.688   9.007 -0.1870 -0.0942 -0.1320
  282loPI   C4B 4512  11.464  17.956   8.775  0.4608 -0.0536 -0.1105
  283loPI    C1 4513  10.073  17.150  11.084 -0.0750  0.2768  0.1115
  283loPI    C2 4514   9.834  16.915  11.302 -0.0908  0.0928 -0.1000
  283loPI    C3 4515   9.676  17.194  11.063 -0.0906  0.0252 -0.1790
  283loPI   PO4 4516  10.206  16.996  10.862  0.0516 -0.0902  0.2334
  283loPI   GL1 4517  10.338  17.148  10.442  0.3776  0.4351 -0.1156
  283loPI   GL2 4518  10.179  17.112  10.169 -0.0210  0.1672 -0.2703
  283loPI   C1A 4519  10.558  17.420  10.073 -0.2512  0.1755 -0.1149
  283loPI   C2A 4520  10.627  17.486   9.693  0.1350  0.0747 -0.0221
  283loPI   C3A 4521  10.629  17.683   9.292  0.2512  0.0050  0.0411
  283loPI   C4A 4522  10.413  17.651   8.948 -0.0009 -0.3160 -0.0418
  283loPI   C5A 4523  10.081  17.681   8.638  0.0142 -0.0653 -0.3039
  283loPI   C6A 4524   9.707  17.557   8.324 -0.0078  0.0195  0.0381
  283loPI   C1B 4525  10.196  17.170   9.765  0.0041  0.1018  0.1351
  283loPI   C2B 4526  10.336  17.286   9.287  0.0190 -0.0596 -0.3484
  283loPI   C3B 4527  10.341  17.211   8.783 -0.3236  0.0338  0.4399
  283loPI   C4B 4528  10.142  17.234   8.377  0.1630 -0.1219 -0.1331
  284loPI    C1 4529  13.936  16.269  11.113  0.2070  0.1263  0.0412
  284loPI    C2 4530  13.639  16.527  11.189  0.1990  0.1951 -0.2140
  284loPI    C3 4531  13.678  16.195  11.410 -0.1498  0.1172 -0.2633
  284loPI   PO4 4532  13.943  16.257  10.831 -0.0893  0.1249  0.1139
  284loPI   GL1 4533  13.881  16.271  10.398  0.2226  0.2393 -0.0391
  284loPI   GL2 4534  13.700  16.518  10.266 -0.2647  0.1979 -0.1041
  284loPI   C1A 4535  14.140  16.250  10.084 -0.1852 -0.0139 -0.0497
  284loPI   C2A 4536  14.168  16.290   9.691  0.3577  0.0762 -0.2750
  284loPI   C3A 4537  13.991  16.396   9.383 -0.0434  0.2169 -0.3827
  284loPI   C4A 4538  14.176  16.233   8.981 -0.0059 -0.0305  0.0629
  284loPI   C5A 4539  14.136  16.183   8.636  0.0046 -0.3709 -0.0195
  284loPI   C6A 4540  13.860  16.341   8.390 -0.0847 -0.0710 -0.3860
  284loPI   C1B 4541  13.681  16.573   9.808  0.2395 -0.0986  0.0991
  284loPI   C2B 4542  13.445  16.538   9.445 -0.1324 -0.2804  0.0441
  284loPI   C3B 4543  13.372  16.481   9.131 -0.0381  0.1291  0.1507
  284loPI   C4B 4544  13.061  16.199   8.987  0.0887  0.1153 -0.1329
  285loPI    C1 4545   5.722   9.395  10.573  0.1020  0.0097 -0.2841
  285loPI    C2 4546   5.452   9.263  10.837  0.3122 -0.0154 -0.0784
  285loPI    C3 4547   5.348   9.316  10.454 -0.0565  0.2337  0.0504
  285loPI   PO4 4548   5.913   9.190  10.565 -0.5005 -0.1138 -0.2393
  285loPI   GL1 4549   6.174   8.895  10.377 -0.2628 -0.2725 -0.1579
  285loPI   GL2 4550   6.310   9.108  10.093  0.0930 -0.0474  0.0185
  285loPI   C1A 4551   6.142   8.600  10.075 -0.0941 -0.0049 -0.3844
  285loPI   C2A 4552   6.201   8.488   9.600 -0.0840  0.1704  0.1616
  285loPI   C3A 4553   6.143   8.494   9.142 -0.0175  0.0409  0.3344
  285loPI   C4A 4554   6.270   8.520   8.789 -0.2375 -0.0957 -0.2685
  285loPI   C5A 4555   6.183   8.522   8.362 -0.0136  0.0590  0.2710
  285loPI   C6A 4556   6.301   8.343   7.928 -0.2125  0.0669  0.0743
  285loPI   C1B 4557   6.479   8.985   9.788  0.2666  0.2580 -0.0323
  285loPI   C2B 4558   6.400   8.965   9.382 -0.1329 -0.0090 -0.3723
  285loPI   C3B 4559   6.380   8.976   8.978 -0.0424 -0.2038  0.0113
  285loPI   C4B 4560   6.538   8.947   8.573 -0.1285 -0.0644  0.0744
  286loPI    C1 4561  17.430  14.265  10.866  0.2008 -0.1378  0.1900
  286loPI    C2 4562  17.781  14.310  11.052  0.2233  0.0035  0.1153
  286loPI    C3 4563  17.462  14.180  11.255  0.2404  0.1840  0.2604
  286loPI   PO4 4564  17.514  14.147  10.635 -0.0314 -0.0976  0.2077
  286loPI   GL1 4565  17.519  14.175  10.258 -0.1497 -0.2761  0.0962
  286loPI   GL2 4566  17.788  14.251  10.126  0.0901  0.0297 -0.0071
  286loPI   C1A 4567  17.151  14.100   9.979  0.1722 -0.0426  0.0683
  286loPI   C2A 4568  17.093  13.920   9.576 -0.0315 -0.1321 -0.0657
  286loPI   C3A 4569  16.997  13.820   9.187  0.0567 -0.2243  0.1832
  286loPI   C4A 4570  16.800  13.724   8.815  0.2684 -0.2988  0.1190
  286loPI   C5A 4571  16.841  13.613   8.346 -0.0768 -0.0650 -0.0718
  286loPI   C6A 4572  16.998  13.508   7.876  0.1993  0.1434 -0.3472
  286loPI   C1B 4573  17.913  14.386   9.795  0.3413  0.0309  0.0256
  286loPI   C2B 4574  17.779  14.471   9.352 -0.1727  0.0771  0.0917
  286loPI   C3B 4575  17.669  14.641   8.986 -0.1844  0.1129  0.3070
  286loPI   C4B 4576  17.565  14.497   8.597  0.0539 -0.0654  0.2181
  287loPI    C1 4577   2.610   5.883  10.813 -0.0838 -0.1452  0.0208
  287loPI    C2 4578   2.287   5.815  11.038 -0.1226  0.1162  0.0477
  287loPI    C3 4579   2.514   6.137  11.107 -0.0020  0.0721 -0.1372
  287loPI   PO4 4580   2.605   5.807  10.590 -0.1440 -0.3440 -0.3687
  287loPI   GL1 4581   2.746   5.828  10.118  0.0768  0.1882 -0.1595
  287loPI   GL2 4582   2.557   5.574  10.141  0.3893 -0.2505  0.0103
  287loPI   C1A 4583   2.630   5.991   9.724  0.0968  0.1250  0.0440
  287loPI   C2A 4584   2.532   5.839   9.324 -0.0429  0.0334 -0.4358
  287loPI   C3A 4585   2.653   5.601   8.912  0.3255  0.0166 -0.2692
  287loPI   C4A 4586   2.265   5.422   8.693 -0.1284 -0.0454 -0.0018
  287loPI   C5A 4587   2.076   5.038   8.478  0.2118 -0.1640 -0.1755
  287loPI   C6A 4588   1.841   4.645   8.597  0.0245 -0.1401 -0.1075
  287loPI   C1B 4589   2.658   5.465   9.619  0.0710  0.1744  0.2481
  287loPI   C2B 4590   2.765   5.235   9.224  0.0755  0.1875 -0.2559
  287loPI   C3B 4591   2.639   5.098   8.987 -0.0151  0.1132 -0.1204
  287loPI   C4B 4592   2.617   4.968   8.652 -0.2693 -0.0428 -0.3306
  288loPI    C1 4593  13.691   1.138  10.809  0.0868  0.0931  0.0576
  288loPI    C2 4594  13.355   1.056  11.009  0.0929  0.0506  0.0505
  288loPI    C3 4595  13.710   0.970  11.172  0.0981  0.0244  0.0253
  288loPI   PO4 4596  13.688   1.059  10.548  0.0766 -0.0633  0.4071
  288loPI   GL1 4597  13.534   1.146  10.196  0.0321  0.2217 -0.1683
  288loPI   GL2 4598  13.577   0.845  10.138 -0.3590  0.0899  0.0815
  288loPI   C1A 4599  13.877   1.368   9.843 -0.1174  0.2486  0.0459
  288loPI   C2A 4600  13.930   1.327   9.311  0.0167 -0.0092  0.0626
  288loPI   C3A 4601  13.886   1.341   8.826  0.0179  0.3507 -0.2119
  288loPI   C4A 4602  13.913   1.331   8.394 -0.0893 -0.2308  0.0144
  288loPI   C5A 4603  13.938   1.242   7.943 -0.1506 -0.4171 -0.2106
  288loPI   C6A 4604  13.804   1.551   7.672 -0.0241 -0.0211  0.0521
  288loPI   C1B 4605  13.599   1.028   9.670  0.2690  0.0303 -0.0163
  288loPI   C2B 4606  13.467   1.070   9.296  0.0223  0.1727 -0.2853
  288loPI   C3B 4607  13.468   1.078   8.924  0.1442 -0.2000 -0.1116
  288loPI   C4B 4608  13.405   1.101   8.434 -0.2727 -0.1953 -0.0059
  289loPI    C1 4609   1.140   8.383  10.252  0.1019 -0.1670  0.1584
  289loPI    C2 4610   1.306   8.350  10.614  0.1280  0.0825  0.1707
  289loPI    C3 4611   1.076   8.666  10.528  0.1930  0.0689 -0.0587
  289loPI   PO4 4612   1.321   8.243  10.125 -0.0068 -0.1093  0.1721
  289loPI   GL1 4613   1.449   7.923   9.807  0.1032  0.1983  0.0318
  289loPI   GL2 4614   1.409   7.608   9.854  0.0017 -0.0791 -0.0835
  289loPI   C1A 4615   1.194   7.983   9.411  0.1320 -0.2009 -0.1138
  289loPI   C2A 4616   1.326   7.882   8.938 -0.1822 -0.0336  0.1463
  289loPI   C3A 4617   1.276   8.045   8.551 -0.0145  0.1660  0.0200
  289loPI   C4A 4618   1.239   8.245   8.116  0.2110 -0.0457  0.0302
  289loPI   C5A 4619   0.827   8.507   7.935 -0.1221  0.3396  0.0906
  289loPI   C6A 4620   0.628   8.552   7.604 -0.1708 -0.4364 -0.1378
  289loPI   C1B 4621   1.452   7.566   9.488 -0.0734 -0.1844  0.1992
  289loPI   C2B 4622   1.537   7.469   9.028 -0.0621 -0.1682  0.1126
  289loPI   C3B 4623   1.583   7.451   8.562  0.1167 -0.0169 -0.6905
  289loPI   C4B 4624   1.716   7.071   8.352  0.0443 -0.1437  0.1640
  290loPI    C1 4625  13.658  15.787  10.592  0.1203 -0.1072  0.0018
  290loPI    C2 4626  13.630  15.429  10.417  0.2671 -0.0404 -0.1614
  290loPI    C3 4627  13.577  15.463  10.812 -0.0022 -0.2023 -0.1810
  290loPI   PO4 4628  13.485  15.917  10.445 -0.0723 -0.0087  0.1461
  290loPI   GL1 4629  13.281  16.216  10.239 -0.0290 -0.0349  0.1940
  290loPI   GL2 4630  13.225  15.976   9.993  0.2404  0.0514  0.0220
  290loPI   C1A 4631  13.131  16.435   9.880 -0.1566  0.2648 -0.1786
  290loPI   C2A 4632  12.969  16.449   9.441  0.0137 -0.1242  0.2402
  290loPI   C3A 4633  12.942  16.709   9.101  0.1892 -0.2937  0.0928
  290loPI   C4A 4634  12.933  16.535   8.666  0.1255 -0.1235  0.1056
  290loPI   C5A 4635  13.183  16.333   8.390  0.0415  0.0402 -0.0290
  290loPI   C6A 4636  13.418  16.078   8.039  0.4196  0.2157 -0.3608
  290loPI   C1B 4637  13.223  16.001   9.627  0.1054  0.1466 -0.2577
  290loPI   C2B 4638  13.212  15.845   9.259  0.1919  0.3174  0.0890
  290loPI   C3B 4639  13.305  15.786   8.809  0.0956 -0.3223 -0.1002
  290loPI   C4B 4640  13.533  15.975   8.523  0.2408 -0.2312 -0.0643
  291loPI    C1 4641   2.294   4.734  10.655  0.0006 -0.0990 -0.1029
  291loPI    C2 4642   2.125   4.960  10.938  0.1848  0.0922 -0.1423
  291loPI    C3 4643   2.209   4.576  11.012 -0.1614  0.0236 -0.0862
  291loPI   PO4 4644   2.519   4.861  10.570 -0.0848  0.0941 -0.2213
  291loPI   GL1 4645   2.540   5.107  10.176 -0.0079 -0.0440 -0.2709
  291loPI   GL2 4646   2.902   5.031  10.209 -0.1862  0.0498  0.3727
  291loPI   C1A 4647   2.257   5.317   9.847 -0.0858 -0.2104  0.1622
  291loPI   C2A 4648   1.891   5.294   9.655  0.1297  0.0323 -0.0599
  291loPI   C3A 4649   1.716   4.939   9.441  0.2339  0.0700 -0.1011
  291loPI   C4A 4650   1.287   4.884   9.319  0.0731  0.0726 -0.1319
  291loPI   C5A 4651   0.790   4.874   9.222  0.0173 -0.0881 -0.5193
  291loPI   C6A 4652   0.357   4.755   9.141  0.1667  0.1200 -0.0017
  291loPI   C1B 4653   3.000   5.435   9.948  0.0982  0.0359  0.4178
  291loPI   C2B 4654   3.063   5.693   9.530 -0.1469 -0.0775 -0.0061
  291loPI   C3B 4655   3.166   5.708   9.082  0.1873  0.3072  0.1387
  291loPI   C4B 4656   3.197   5.684   8.579  0.1803 -0.1626  0.1289
  292loPI    C1 4657  10.708  15.970  11.139 -0.0705 -0.1118  0.0073
  292loPI    C2 4658  10.311  15.975  11.087 -0.0793  0.0801  0.0863
  292loPI    C3 4659  10.502  16.306  11.207  0.0873 -0.0484  0.1806
  292loPI   PO4 4660  10.923  15.784  10.993  0.1088 -0.1448  0.0981
  292loPI   GL1 4661  10.881  15.695  10.599  0.0862  0.0303  0.1426
  292loPI   GL2 4662  11.130  15.543  10.523 -0.1422 -0.2199 -0.2372
  292loPI   C1A 4663  10.741  15.735  10.191  0.1167  0.4601  0.2784
  292loPI   C2A 4664  10.695  15.801   9.807  0.0699 -0.0506  0.2226
  292loPI   C3A 4665  10.788  15.851   9.361  0.1874 -0.0842  0.1932
  292loPI   C4A 4666  10.769  15.849   8.928  0.1235  0.2124 -0.1768
  292loPI   C5A 4667  10.737  15.702   8.559 -0.1628  0.0537  0.1808
  292loPI   C6A 4668  10.959  15.704   8.234 -0.0234  0.1253  0.0738
  292loPI   C1B 4669  11.241  15.531  10.144  0.0228  0.1339  0.2649
  292loPI   C2B 4670  11.159  15.663   9.703  0.1693  0.1025 -0.0714
  292loPI   C3B 4671  11.299  15.768   9.240 -0.3354  0.0666 -0.0331
  292loPI   C4B 4672  11.244  15.782   8.712 -0.0424 -0.2615  0.0717
  293loPI    C1 4673  12.246   4.283  10.812 -0.0775 -0.1233 -0.0054
  293loPI    C2 4674  12.486   4.150  11.103 -0.0536 -0.2217 -0.0699
  293loPI    C3 4675  12.222   4.440  11.179  0.1539 -0.0425 -0.0230
  293loPI   PO4 4676  12.354   4.237  10.643 -0.0839  0.1349 -0.0227
  293loPI   GL1 4677  12.514   4.280  10.239  0.3289  0.3013 -0.3822
  293loPI   GL2 4678  12.708   4.306  10.104 -0.3116 -0.0576  0.1759
  293loPI   C1A 4679  12.234   4.093   9.895  0.1322 -0.0802  0.0212
  293loPI   C2A 4680  12.246   3.940   9.514 -0.1307  0.0750  0.2304
  293loPI   C3A 4681  12.242   3.928   9.125 -0.2131  0.3244 -0.0019
  293loPI   C4A 4682  12.189   4.001   8.650 -0.0901  0.0828  0.2663
  293loPI   C5A 4683  12.337   3.901   8.175  0.2109 -0.0552 -0.0598
  293loPI   C6A 4684  12.561   3.579   7.995  0.0694 -0.0056 -0.0260
  293loPI   C1B 4685  12.618   4.415   9.708 -0.0289 -0.0226  0.0758
  293loPI   C2B 4686  12.509   4.314   9.324  0.0790 -0.1293  0.0781
  293loPI   C3B 4687  12.692   4.303   8.889 -0.1987  0.2703  0.0794
  293loPI   C4B 4688  12.656   4.240   8.518  0.1063 -0.2305 -0.2707
  294loPI    C1 4689   1.958   8.752  10.334 -0.0927 -0.2078 -0.2852
  294loPI    C2 4690   1.570   8.657  10.319 -0.1427 -0.0744  0.0703
  294loPI    C3 4691   1.797   8.528  10.623 -0.0216  0.2455  0.1198
  294loPI   PO4 4692   2.039   8.695  10.047 -0.2433  0.1396  0.1557
  294loPI   GL1 4693   2.036   8.381   9.676 -0.2088  0.0670 -0.1327
  294loPI   GL2 4694   1.764   8.183   9.576 -0.1390 -0.0563 -0.2763
  294loPI   C1A 4695   2.042   8.488   9.239  0.0474 -0.1497 -0.0969
  294loPI   C2A 4696   1.902   8.687   8.909 -0.0302 -0.1833  0.0429
  294loPI   C3A 4697   1.851   8.866   8.485  0.2135  0.1043  0.1068
  294loPI   C4A 4698   1.412   8.822   8.213 -0.0151  0.0965  0.1508
  294loPI   C5A 4699   1.392   8.734   7.839  0.0780 -0.1757 -0.0845
  294loPI   C6A 4700   1.095   8.514   7.492  0.0925  0.3385  0.2068
  294loPI   C1B 4701   1.748   8.014   9.223 -0.0587 -0.1149  0.1130
  294loPI   C2B 4702   1.793   7.895   8.742  0.3030  0.2624 -0.2033
  294loPI   C3B 4703   1.799   7.897   8.322  0.1569  0.0394  0.3461
  294loPI   C4B 4704   2.001   7.524   8.146 -0.1562  0.1895 -0.1661
  295loPI    C1 4705  12.433  14.181  10.983 -0.2955  0.0566 -0.1021
  295loPI    C2 4706  12.669  14.227  11.303 -0.0682  0.0592 -0.2673
  295loPI    C3 4707  12.467  14.540  11.157 -0.2874  0.0267 -0.0414
  295loPI   PO4 4708  12.574  14.038  10.845  0.0111  0.0634  0.1796
  295loPI   GL1 4709  12.576  13.824  10.489 -0.0677  0.2330  0.1276
  295loPI   GL2 4710  12.823  13.650  10.395  0.0361  0.0678  0.0737
  295loPI   C1A 4711  12.343  14.049  10.246 -0.2108  0.0395  0.1309
  295loPI   C2A 4712  12.307  14.077   9.817  0.2421 -0.1953  0.1802
  295loPI   C3A 4713  12.322  14.009   9.330 -0.1919  0.0870 -0.0988
  295loPI   C4A 4714  12.379  14.067   8.830 -0.2473 -0.1074 -0.1290
  295loPI   C5A 4715  12.413  14.079   8.422 -0.0655  0.0219 -0.0910
  295loPI   C6A 4716  12.523  13.815   8.060  0.4149  0.0442 -0.0059
  295loPI   C1B 4717  12.602  13.622  10.004 -0.0391 -0.1807 -0.3667
  295loPI   C2B 4718  12.553  13.640   9.629 -0.3451 -0.0191  0.0942
  295loPI   C3B 4719  12.639  13.621   9.203 -0.0020 -0.2005  0.1862
  295loPI   C4B 4720  12.778  13.593   8.768  0.0270 -0.0224  0.2122
  296loPI    C1 4721  16.436  17.039  10.714 -0.0525  0.0345 -0.1251
  296loPI    C2 4722  16.523  17.199  11.070 -0.2919 -0.1374  0.0133
  296loPI    C3 4723  16.552  16.804  11.016  0.3371 -0.0560 -0.3379
  296loPI   PO4 4724  16.263  17.094  10.626  0.1690 -0.1045 -0.0663
  296loPI   GL1 4725  16.403  17.239  10.224  0.2527 -0.3203 -0.0480
  296loPI   GL2 4726  16.385  16.966  10.144  0.0755  0.5642 -0.0570
  296loPI   C1A 4727  16.249  17.437   9.786  0.0405  0.2546  0.2030
  296loPI   C2A 4728  16.154  17.541   9.442 -0.2187  0.0889  0.2399
  296loPI   C3A 4729  16.177  17.404   9.082  0.1256  0.0714  0.3260
  296loPI   C4A 4730  16.030  17.242   8.707  0.0627  0.3602 -0.1310
  296loPI   C5A 4731  16.120  17.276   8.241  0.2126 -0.2074  0.6301
  296loPI   C6A 4732  16.101  17.509   7.843 -0.0230  0.0724  0.2145
  296loPI   C1B 4733  16.277  16.933   9.749  0.0745 -0.1353  0.1864
  296loPI   C2B 4734  16.226  16.970   9.336 -0.1092  0.0229 -0.0007
  296loPI   C3B 4735  16.308  16.871   8.921 -0.3321  0.1683  0.0008
  296loPI   C4B 4736  16.328  16.859   8.477  0.2036 -0.1008 -0.0696
  297loPI    C1 4737   5.865  11.020  10.709 -0.1251 -0.0688 -0.0728
  297loPI    C2 4738   5.496  11.080  10.569 -0.1381  0.0836  0.0245
  297loPI    C3 4739   5.551  10.994  10.955 -0.0845 -0.1108 -0.0253
  297loPI   PO4 4740   6.017  11.045  10.467 -0.1397  0.2102  0.0129
  297loPI   GL1 4741   6.249  10.721  10.230 -0.1327  0.0936  0.2040
  297loPI   GL2 4742   6.509  10.493  10.324 -0.0561 -0.0553 -0.0031
  297loPI   C1A 4743   6.127  10.583   9.859 -0.2916  0.2807  0.0513
  297loPI   C2A 4744   6.422  10.651   9.389  0.2125  0.1254  0.2655
  297loPI   C3A 4745   6.838  10.772   9.320 -0.0208  0.0367 -0.2182
  297loPI   C4A 4746   6.957  10.818   8.907 -0.1229 -0.0822  0.1929
  297loPI   C5A 4747   6.928  11.038   8.509 -0.4765  0.0654  0.0699
  297loPI   C6A 4748   7.192  11.183   8.220 -0.3581  0.1214 -0.0666
  297loPI   C1B 4749   6.716  10.327  10.011 -0.1529 -0.2579  0.4566
  297loPI   C2B 4750   6.773  10.355   9.603 -0.0724 -0.0207  0.0756
  297loPI   C3B 4751   6.822  10.271   9.123  0.0456  0.0334 -0.0154
  297loPI   C4B 4752   6.819  10.300   8.624  0.0521  0.0309 -0.0862
  298loPI    C1 4753   2.325  12.486  10.977 -0.0365  0.0534 -0.0043
  298loPI    C2 4754   2.593  12.408  11.263 -0.1912 -0.0486  0.1145
  298loPI    C3 4755   2.345  12.720  11.301  0.1042  0.2239 -0.1338
  298loPI   PO4 4756   2.506  12.595  10.730  0.0037  0.0545  0.0382
  298loPI   GL1 4757   2.623  12.421  10.311 -0.2324 -0.1435  0.0197
  298loPI   GL2 4758   3.000  12.324  10.211  0.0170 -0.6824 -0.0159
  298loPI   C1A 4759   2.632  12.660   9.896  0.1499 -0.1135  0.0825
  298loPI   C2A 4760   2.817  12.655   9.459  0.2852 -0.2851  0.0551
  298loPI   C3A 4761   2.754  12.775   9.056  0.0041  0.1072 -0.0971
  298loPI   C4A 4762   2.674  12.936   8.575 -0.1053 -0.1527  0.1414
  298loPI   C5A 4763   2.471  12.709   8.206  0.2502  0.0757 -0.1422
  298loPI   C6A 4764   2.552  12.312   8.012  0.1127  0.3683  0.1600
  298loPI   C1B 4765   2.881  12.226   9.838  0.1271  0.2894 -0.0946
  298loPI   C2B 4766   2.514  12.159   9.592  0.2090 -0.0072 -0.0142
  298loPI   C3B 4767   2.433  12.415   9.238  0.1521 -0.1176  0.0814
  298loPI   C4B 4768   2.361  12.583   8.728 -0.2649 -0.1075 -0.0953
  299loPI    C1 4769   9.797  17.493  10.724  0.2088 -0.0566 -0.1803
  299loPI    C2 4770   9.558  17.676  10.461  0.0469 -0.1142 -0.0746
  299loPI    C3 4771   9.527  17.759  10.851  0.0943 -0.2355 -0.0449
  299loPI   PO4 4772   9.847  17.225  10.511  0.3734 -0.1359 -0.2695
  299loPI   GL1 4773   9.677  17.070  10.154  0.2539  0.1910 -0.2749
  299loPI   GL2 4774   9.773  17.385  10.081 -0.0362  0.1614 -0.1454
  299loPI   C1A 4775   9.680  16.818   9.865  0.0088  0.0437  0.1616
  299loPI   C2A 4776   9.579  16.685   9.440 -0.2430 -0.0707 -0.0929
  299loPI   C3A 4777   9.647  16.660   9.009  0.0803 -0.0923 -0.2850
  299loPI   C4A 4778   9.505  16.765   8.647  0.0083  0.1989  0.3993
  299loPI   C5A 4779   9.597  16.976   8.361 -0.0164  0.0604  0.0772
  299loPI   C6A 4780   9.721  17.113   7.932 -0.0643 -0.2493 -0.1851
  299loPI   C1B 4781   9.446  17.419   9.861  0.1339  0.0261  0.1088
  299loPI   C2B 4782   9.261  17.395   9.476 -0.0945  0.0596  0.3702
  299loPI   C3B 4783   9.256  17.552   9.063 -0.1703 -0.0952 -0.5035
  299loPI   C4B 4784   9.514  17.806   8.800  0.1686  0.0554  0.0878
  300loPI    C1 4785  12.870  17.235  10.862 -0.0980 -0.1992 -0.0441
  300loPI    C2 4786  13.163  17.266  11.132 -0.0575  0.0795 -0.1164
  300loPI    C3 4787  12.813  17.102  11.235 -0.0108  0.0994  0.0788
  300loPI   PO4 4788  12.944  17.068  10.590 -0.0222  0.1579  0.0695
  300loPI   GL1 4789  12.636  16.904  10.335  0.2333  0.2107  0.0304
  300loPI   GL2 4790  12.499  17.115  10.234  0.0217  0.1675  0.0513
  300loPI   C1A 4791  12.783  16.828   9.962 -0.0515 -0.1340  0.0275
  300loPI   C2A 4792  12.900  17.078   9.620 -0.2158  0.4189  0.0483
  300loPI   C3A 4793  12.794  17.288   9.193  0.0572 -0.0861 -0.2766
  300loPI   C4A 4794  12.881  17.126   8.813  0.0000  0.1209  0.0098
  300loPI   C5A 4795  12.908  16.921   8.384  0.1434  0.0658  0.1486
  300loPI   C6A 4796  13.162  16.864   7.982  0.0554 -0.0049 -0.0913
  300loPI   C1B 4797  12.365  17.232   9.876  0.1541  0.0130  0.1477
  300loPI   C2B 4798  12.318  17.303   9.454  0.1084  0.1883 -0.3229
  300loPI   C3B 4799  12.315  17.519   9.124 -0.2039 -0.1151  0.0173
  300loPI   C4B 4800  12.151  17.365   8.761 -0.1379 -0.0591 -0.2717
  301loPI    C1 4801  10.004  14.429  11.115 -0.0350 -0.0712 -0.0304
  301loPI    C2 4802  10.236  14.676  11.328  0.0900 -0.1384 -0.0873
  301loPI    C3 4803   9.947  14.824  11.094  0.1331 -0.0491 -0.0839
  301loPI   PO4 4804  10.097  14.214  10.909  0.1617  0.5218  0.1254
  301loPI   GL1 4805  10.204  14.058  10.452  0.4520  0.1273 -0.1797
  301loPI   GL2 4806   9.896  14.226  10.349 -0.1715 -0.1118 -0.0917
  301loPI   C1A 4807  10.179  14.026  10.010  0.1370  0.0739 -0.2074
  301loPI   C2A 4808  10.202  14.039   9.548 -0.2114 -0.1970  0.2365
  301loPI   C3A 4809  10.262  14.022   9.118 -0.3339  0.0966  0.2552
  301loPI   C4A 4810  10.293  14.037   8.710 -0.0590  0.1856 -0.1313
  301loPI   C5A 4811  10.088  14.045   8.358  0.0026 -0.0248 -0.0544
  301loPI   C6A 4812   9.829  13.785   8.132 -0.0037  0.0262 -0.1915
  301loPI   C1B 4813   9.848  14.491   9.946  0.0275 -0.0416  0.4598
  301loPI   C2B 4814   9.966  14.469   9.454 -0.1158 -0.1110  0.1352
  301loPI   C3B 4815   9.967  14.396   9.031 -0.2927  0.2791  0.3066
  301loPI   C4B 4816  10.017  14.476   8.628 -0.0975 -0.4218 -0.0389
  302loPI    C1 4817  15.704  16.257  10.621  0.0033 -0.1187 -0.0399
  302loPI    C2 4818  16.016  16.118  10.829  0.1300  0.1569 -0.0403
  302loPI    C3 4819  15.665  16.180  11.012  0.1504  0.0968  0.0194
  302loPI   PO4 4820  15.733  16.126  10.418 -0.3485  0.2687  0.0220
  302loPI   GL1 4821  15.719  16.338  10.025 -0.1510  0.1352  0.0338
  302loPI   GL2 4822  15.587  15.925   9.907  0.1630 -0.0020 -0.1531
  302loPI   C1A 4823  16.097  16.184   9.899 -0.2562 -0.0917  0.0110
  302loPI   C2A 4824  16.054  16.083   9.477  0.3514 -0.0278  0.1186
  302loPI   C3A 4825  15.881  15.980   9.137 -0.0575 -0.2026  0.0116
  302loPI   C4A 4826  15.655  15.748   8.781 -0.4097  0.0311 -0.0922
  302loPI   C5A 4827  15.159  15.764   8.691 -0.1741  0.2411 -0.2899
  302loPI   C6A 4828  14.860  15.903   8.550 -0.0583  0.2115  0.0391
  302loPI   C1B 4829  15.590  16.274   9.525  0.0173  0.5606  0.1346
  302loPI   C2B 4830  15.541  16.358   9.103  0.0732 -0.1717 -0.0116
  302loPI   C3B 4831  15.236  16.230   8.856  0.0650 -0.2323  0.0305
  302loPI   C4B 4832  15.172  16.322   8.426 -0.0812  0.0316  0.0877
  303loPI    C1 4833  16.401   5.472  10.522  0.3844  0.0190 -0.0079
  303loPI    C2 4834  16.348   5.756  10.799  0.0261  0.0773 -0.1310
  303loPI    C3 4835  16.180   5.396  10.848 -0.2714  0.1749 -0.3973
  303loPI   PO4 4836  16.459   5.550  10.297  0.0411  0.0792  0.0760
  303loPI   GL1 4837  16.640   5.767   9.984  0.0286 -0.0673  0.1720
  303loPI   GL2 4838  16.654   5.411   9.855 -0.1770  0.1234 -0.0410
  303loPI   C1A 4839  16.394   5.999   9.661  0.0105 -0.0455  0.2328
  303loPI   C2A 4840  16.428   5.999   9.270 -0.0790 -0.0717  0.0992
  303loPI   C3A 4841  16.465   6.021   8.825 -0.1329  0.1295  0.1865
  303loPI   C4A 4842  16.358   6.063   8.411  0.1011  0.0817  0.0763
  303loPI   C5A 4843  16.144   6.136   7.977 -0.0403 -0.0204  0.2777
  303loPI   C6A 4844  15.735   5.962   7.823 -0.2742 -0.1750  0.0361
  303loPI   C1B 4845  16.654   5.586   9.485  0.0170  0.0842 -0.0814
  303loPI   C2B 4846  16.920   5.623   9.138  0.1141  0.1812  0.1196
  303loPI   C3B 4847  16.975   5.600   8.694 -0.3166 -0.2854  0.0592
  303loPI   C4B 4848  17.222   5.582   8.275 -0.1973  0.1608  0.0744
  304loPI    C1 4849  16.081   1.350  10.976  0.0123  0.0261 -0.1599
  304loPI    C2 4850  16.331   1.644  11.079 -0.0721  0.0171  0.0763
  304loPI    C3 4851  16.397   1.272  11.209 -0.1376 -0.0094  0.0342
  304loPI   PO4 4852  16.030   1.486  10.668  0.2121  0.1699  0.0114
  304loPI   GL1 4853  16.091   1.463  10.193  0.0917  0.1126 -0.2301
  304loPI   GL2 4854  15.900   1.192  10.163 -0.0125  0.2937  0.0003
  304loPI   C1A 4855  16.189   1.488   9.717  0.1336 -0.1319 -0.1524
  304loPI   C2A 4856  16.151   1.496   9.277 -0.0497  0.0856  0.0025
  304loPI   C3A 4857  16.155   1.504   8.886 -0.1605 -0.0370 -0.0264
  304loPI   C4A 4858  16.250   1.505   8.456  0.2376  0.0765  0.0680
  304loPI   C5A 4859  16.368   1.205   8.164 -0.0237 -0.3725 -0.0436
  304loPI   C6A 4860  16.611   0.895   7.938  0.1021 -0.2210  0.3190
  304loPI   C1B 4861  15.810   1.021   9.805  0.0627  0.0782 -0.0804
  304loPI   C2B 4862  15.733   1.083   9.366 -0.0331  0.0097 -0.0124
  304loPI   C3B 4863  15.805   1.066   8.968  0.0977 -0.2479  0.2669
  304loPI   C4B 4864  15.919   1.097   8.555 -0.1221 -0.1819  0.1689
  305loPI    C1 4865   5.616  14.717  10.742  0.0069  0.1432  0.1257
  305loPI    C2 4866   5.234  14.834  10.737 -0.0732 -0.1149  0.0690
  305loPI    C3 4867   5.466  14.922  11.051 -0.0759  0.3573 -0.0544
  305loPI   PO4 4868   5.590  14.554  10.659 -0.1116  0.1922 -0.0935
  305loPI   GL1 4869   5.310  14.571  10.325  0.1162 -0.2497 -0.1760
  305loPI   GL2 4870   5.311  14.241  10.235  0.0630  0.0107 -0.1169
  305loPI   C1A 4871   5.162  14.727   9.964 -0.2394  0.0091  0.0587
  305loPI   C2A 4872   5.141  14.736   9.559  0.0520 -0.1772 -0.0445
  305loPI   C3A 4873   5.061  14.781   9.212 -0.1007 -0.0795  0.2085
  305loPI   C4A 4874   5.020  14.688   8.834  0.0588 -0.2341  0.0641
  305loPI   C5A 4875   5.135  14.675   8.392 -0.3238  0.1986 -0.1927
  305loPI   C6A 4876   5.455  14.832   8.159  0.0875  0.0930 -0.1199
  305loPI   C1B 4877   5.329  14.261   9.849 -0.0814  0.2792 -0.1100
  305loPI   C2B 4878   5.185  14.277   9.445  0.1384 -0.0778 -0.1264
  305loPI   C3B 4879   5.218  14.261   8.978  0.0803  0.0107 -0.1587
  305loPI   C4B 4880   5.286  14.235   8.560 -0.3082 -0.1515  0.0075
  306loPI    C1 4881   3.463   2.444  10.865  0.0801 -0.0908  0.0729
  306loPI    C2 4882   3.597   2.397  11.238 -0.0013  0.2673  0.1510
  306loPI    C3 4883   3.305   2.161  11.100  0.3776 -0.2090  0.1351
  306loPI   PO4 4884   3.695   2.533  10.699 -0.2437  0.0805  0.1837
  306loPI   GL1 4885   3.640   2.496  10.241  0.0985 -0.1683  0.2207
  306loPI   GL2 4886   3.474   2.272  10.201 -0.1564  0.0370 -0.3438
  306loPI   C1A 4887   3.422   2.700   9.896  0.1237 -0.0769  0.3539
  306loPI   C2A 4888   3.111   2.924   9.609 -0.2586  0.1259 -0.0997
  306loPI   C3A 4889   3.244   2.927   9.187  0.4575  0.0064 -0.0820
  306loPI   C4A 4890   3.239   2.895   8.723 -0.1503  0.4024 -0.1952
  306loPI   C5A 4891   3.289   2.750   8.320 -0.0506 -0.0707 -0.0502
  306loPI   C6A 4892   3.460   2.958   7.861  0.0768  0.2872  0.1862
  306loPI   C1B 4893   3.510   2.232   9.761  0.0429 -0.0818 -0.2475
  306loPI   C2B 4894   3.613   2.599   9.438 -0.2602  0.3507  0.3245
  306loPI   C3B 4895   3.637   2.610   9.116 -0.4449 -0.4010  0.0999
  306loPI   C4B 4896   3.684   2.630   8.677  0.0550 -0.1501  0.0253
  307loPI    C1 4897   4.997   4.800  10.458 -0.2771 -0.1321  0.1240
  307loPI    C2 4898   5.297   4.831  10.721 -0.2114  0.1217  0.0218
  307loPI    C3 4899   5.294   4.531  10.455 -0.2225 -0.0735  0.2388
  307loPI   PO4 4900   5.017   5.046  10.289 -0.4707  0.3215 -0.4770
  307loPI   GL1 4901   5.340   4.881   9.958  0.1329 -0.1944 -0.1164
  307loPI   GL2 4902   5.483   4.642   9.977 -0.1803  0.2723 -0.3933
  307loPI   C1A 4903   5.269   4.914   9.487  0.1181 -0.3133  0.1072
  307loPI   C2A 4904   5.272   4.863   9.114  0.0672  0.0316  0.0649
  307loPI   C3A 4905   5.421   4.951   8.655 -0.0536 -0.0532  0.1941
  307loPI   C4A 4906   5.507   4.752   8.239 -0.0610 -0.1004  0.1713
  307loPI   C5A 4907   5.730   4.664   7.983  0.1021 -0.4693 -0.1328
  307loPI   C6A 4908   5.613   4.494   7.545 -0.1536  0.2220  0.0217
  307loPI   C1B 4909   5.517   4.478   9.644  0.1878  0.2804  0.2293
  307loPI   C2B 4910   5.626   4.280   9.272  0.0845  0.1208 -0.0632
  307loPI   C3B 4911   5.749   3.873   9.183 -0.0571 -0.1426  0.0827
  307loPI   C4B 4912   5.998   3.742   8.804  0.0271 -0.1141 -0.2513
  308loPI    C1 4913   2.276  12.783  10.317  0.1804  0.0282  0.1461
  308loPI    C2 4914   2.073  12.820  10.660  0.2018 -0.0954  0.1728
  308loPI    C3 4915   2.049  12.481  10.449  0.1388  0.0037  0.0193
  308loPI   PO4 4916   2.288  13.042  10.244 -0.1416  0.1876  0.0104
  308loPI   GL1 4917   2.320  13.098   9.845  0.0535  0.1079 -0.0472
  308loPI   GL2 4918   2.063  13.233   9.901  0.2176  0.1423  0.2540
  308loPI   C1A 4919   2.619  13.146   9.557 -0.1858 -0.1193 -0.1454
  308loPI   C2A 4920   2.702  13.287   9.080  0.0520  0.2945  0.0173
  308loPI   C3A 4921   2.521  13.354   8.646  0.2531  0.2320  0.1633
  308loPI   C4A 4922   2.559  13.249   8.202 -0.2071 -0.2260 -0.0016
  308loPI   C5A 4923   2.791  13.227   7.798  0.0679 -0.2392  0.1432
  308loPI   C6A 4924   3.258  13.205   7.629  0.3420  0.1786  0.2789
  308loPI   C1B 4925   2.218  13.447   9.555  0.0010  0.4154  0.0904
  308loPI   C2B 4926   2.089  13.511   9.147  0.1618  0.0523 -0.1294
  308loPI   C3B 4927   1.951  13.448   8.813  0.3068  0.1288 -0.3281
  308loPI   C4B 4928   2.068  13.374   8.374  0.1393  0.1166  0.0519
  309loPI    C1 4929   9.254   1.478  11.044  0.0351  0.0987  0.0283
  309loPI    C2 4930   9.143   1.249  11.353  0.2401 -0.0923 -0.0369
  309loPI    C3 4931   9.334   1.595  11.418  0.1620 -0.0659  0.0538
  309loPI   PO4 4932   9.123   1.482  10.888 -0.2022  0.1366  0.1500
  309loPI   GL1 4933   9.028   1.670  10.535  0.1454  0.0847  0.0421
  309loPI   GL2 4934   8.747   1.752  10.428  0.5733 -0.1285  0.2351
  309loPI   C1A 4935   9.146   1.776  10.068  0.1958  0.0881 -0.2303
  309loPI   C2A 4936   9.207   1.839   9.677  0.0782  0.1446  0.1553
  309loPI   C3A 4937   9.254   1.916   9.277 -0.0921 -0.1316  0.1310
  309loPI   C4A 4938   9.240   1.847   8.843 -0.2153  0.2265 -0.1639
  309loPI   C5A 4939   9.375   1.575   8.487  0.2652  0.0176 -0.0929
  309loPI   C6A 4940   9.785   1.499   8.293  0.1254 -0.0221 -0.2037
  309loPI   C1B 4941   8.612   1.779  10.075  0.2932 -0.1203 -0.1486
  309loPI   C2B 4942   8.727   1.609   9.608 -0.0457  0.2300  0.1489
  309loPI   C3B 4943   8.818   1.592   9.179  0.0785  0.0916  0.5269
  309loPI   C4B 4944   8.943   1.442   8.758 -0.0747 -0.2520 -0.0398
  310loPI    C1 4945  16.526   0.897  10.760  0.0230  0.1893 -0.1350
  310loPI    C2 4946  16.181   1.001  10.585 -0.0234 -0.1579 -0.2560
  310loPI    C3 4947  16.179   0.846  10.954  0.0183 -0.0111 -0.1937
  310loPI   PO4 4948  16.579   0.710  10.576 -0.2705  0.1015  0.2947
  310loPI   GL1 4949  16.384   0.599  10.285  0.2418  0.0530 -0.0185
  310loPI   GL2 4950  16.252   0.358  10.288 -0.0756 -0.4085 -0.0889
  310loPI   C1A 4951  16.289   0.935   9.967 -0.0914  0.2939  0.0995
  310loPI   C2A 4952  16.210   0.993   9.519 -0.1736  0.1250  0.1357
  310loPI   C3A 4953  16.281   0.963   9.092 -0.1528  0.1025  0.0972
  310loPI   C4A 4954  16.429   0.872   8.733 -0.2382 -0.0864  0.0138
  310loPI   C5A 4955  16.658   0.693   8.369 -0.1730 -0.2576 -0.1178
  310loPI   C6A 4956  16.895   0.477   8.112  0.0445 -0.1188 -0.0138
  310loPI   C1B 4957  16.387   0.406   9.809  0.0127  0.1768 -0.0353
  310loPI   C2B 4958  16.358   0.497   9.403  0.0537 -0.0266  0.0436
  310loPI   C3B 4959  16.363   0.342   8.984 -0.0086 -0.0237  0.0834
  310loPI   C4B 4960  16.458   0.267   8.597 -0.0087  0.1605  0.2936
  311loPI    C1 4961   2.541  11.641  10.691  0.0221 -0.1656 -0.1253
  311loPI    C2 4962   2.197  11.515  10.851 -0.0431  0.0393 -0.1007
  311loPI    C3 4963   2.526  11.539  11.077  0.0389 -0.3460 -0.1715
  311loPI   PO4 4964   2.453  11.657  10.363  0.1029  0.3412  0.1999
  311loPI   GL1 4965   2.298  11.936  10.162  0.1628 -0.0685  0.2421
  311loPI   GL2 4966   2.115  11.746   9.967  0.1635 -0.3175 -0.1464
  311loPI   C1A 4967   2.221  12.285  10.006 -0.3590 -0.0571 -0.0720
  311loPI   C2A 4968   2.211  12.616   9.705  0.0412  0.2900  0.3237
  311loPI   C3A 4969   2.248  12.874   9.405  0.1262 -0.3081 -0.2084
  311loPI   C4A 4970   2.201  13.078   9.044  0.0763  0.1062  0.0060
  311loPI   C5A 4971   2.116  12.983   8.642  0.0494  0.0199 -0.2679
  311loPI   C6A 4972   1.989  12.713   8.389  0.2322  0.0884  0.2046
  311loPI   C1B 4973   2.442  11.675   9.747 -0.2856 -0.0493  0.0982
  311loPI   C2B 4974   2.647  11.783   9.256  0.0380  0.0924  0.2481
  311loPI   C3B 4975   3.034  11.833   8.972 -0.2592  0.2703 -0.0614
  311loPI   C4B 4976   3.228  11.761   8.578 -0.0796 -0.0310  0.0588
  312loPI    C1 4977   1.150  10.184  10.604  0.3606 -0.2277 -0.2765
  312loPI    C2 4978   1.221   9.846  10.807  0.1882 -0.1274 -0.0445
  312loPI    C3 4979   1.354  10.196  10.948  0.2849 -0.0852 -0.2361
  312loPI   PO4 4980   1.304  10.077  10.331  0.0237  0.1920  0.0225
  312loPI   GL1 4981   1.418   9.801  10.027 -0.0777  0.0354  0.0697
  312loPI   GL2 4982   1.705  10.037  10.088  0.1221 -0.0281  0.1880
  312loPI   C1A 4983   1.320   9.841   9.577  0.1959 -0.1180  0.2848
  312loPI   C2A 4984   1.390   9.771   9.163 -0.1008  0.1032  0.4227
  312loPI   C3A 4985   1.277   9.450   8.883 -0.0096 -0.2626 -0.1498
  312loPI   C4A 4986   1.517   9.266   8.548 -0.1906  0.0200 -0.0656
  312loPI   C5A 4987   1.753   9.424   8.176  0.1211 -0.0632 -0.0700
  312loPI   C6A 4988   1.793   9.363   7.700  0.2462  0.0078 -0.0542
  312loPI   C1B 4989   1.731  10.001   9.709  0.2387 -0.0343 -0.2574
  312loPI   C2B 4990   1.798  10.077   9.318  0.1678 -0.2491 -0.1272
  312loPI   C3B 4991   1.780  10.191   8.940  0.3060  0.2176 -0.1138
  312loPI   C4B 4992   1.912  10.405   8.596  0.3127  0.0886 -0.2120
  313loPI    C1 4993  12.125   6.714  10.803 -0.1145 -0.0902  0.1893
  313loPI    C2 4994  12.020   7.059  10.978  0.0987 -0.0064  0.1556
  313loPI    C3 4995  11.864   6.713  11.106 -0.1166  0.1018  0.1894
  313loPI   PO4 4996  12.098   6.799  10.570  0.1684  0.1831  0.2409
  313loPI   GL1 4997  11.948   6.826  10.154 -0.0297  0.1543 -0.0018
  313loPI   GL2 4998  12.107   6.579  10.083 -0.5265  0.0706 -0.3709
  313loPI   C1A 4999  11.854   7.069   9.763 -0.2402 -0.2906  0.0985
  313loPI   C2A 5000  11.750   7.337   9.341 -0.0128 -0.2709  0.1296
  313loPI   C3A 5001  11.791   7.374   8.947  0.2272  0.1502 -0.0679
  313loPI   C4A 5002  11.727   7.428   8.578 -0.0990  0.0287 -0.1507
  313loPI   C5A 5003  11.964   7.631   8.337 -0.1830  0.0091 -0.1396
  313loPI   C6A 5004  12.244   7.533   8.092 -0.0970  0.3450 -0.1653
  313loPI   C1B 5005  11.949   6.423   9.722 -0.2487 -0.0015 -0.1622
  313loPI   C2B 5006  11.698   6.587   9.493  0.1772  0.0365  0.1356
  313loPI   C3B 5007  11.503   6.897   9.221 -0.2437 -0.0843 -0.0128
  313loPI   C4B 5008  11.290   7.332   9.132  0.1970  0.1048  0.0290
  314loPI    C1 5009   9.221  14.016  10.825  0.1320 -0.0964 -0.0886
  314loPI    C2 5010   9.290  13.640  10.707  0.0622 -0.0795 -0.1842
  314loPI    C3 5011   9.187  13.715  11.086 -0.0173 -0.1671 -0.1882
  314loPI   PO4 5012   9.139  14.151  10.596 -0.2050  0.2520 -0.1428
  314loPI   GL1 5013   8.892  14.442  10.322  0.2414 -0.0792 -0.1923
  314loPI   GL2 5014   8.743  14.620  10.375  0.1391 -0.0671  0.3535
  314loPI   C1A 5015   8.733  14.383   9.861  0.2411 -0.3933 -0.1172
  314loPI   C2A 5016   8.957  14.404   9.482 -0.2569  0.1867  0.0095
  314loPI   C3A 5017   8.987  14.377   9.059 -0.0929 -0.1458  0.1076
  314loPI   C4A 5018   9.073  14.287   8.634  0.1368 -0.0282  0.2383
  314loPI   C5A 5019   8.909  14.328   8.269 -0.1217  0.0653 -0.2093
  314loPI   C6A 5020   8.622  14.665   8.074  0.0859 -0.3113  0.3065
  314loPI   C1B 5021   9.062  14.819  10.070  0.0513  0.3228  0.0986
  314loPI   C2B 5022   9.035  14.874   9.710  0.0148 -0.0242  0.1275
  314loPI   C3B 5023   9.057  14.814   9.248  0.0644  0.0430 -0.2717
  314loPI   C4B 5024   9.175  14.902   8.894  0.0702 -0.0172 -0.0879
  315loPI    C1 5025  16.716   3.519  10.386  0.0818 -0.0355 -0.1969
  315loPI    C2 5026  16.795   3.202  10.617  0.1529  0.0264 -0.1359
  315loPI    C3 5027  16.574   3.504  10.759 -0.1212 -0.1044 -0.2752
  315loPI   PO4 5028  16.911   3.505  10.208 -0.1447 -0.1011 -0.2397
  315loPI   GL1 5029  16.997   3.512   9.767 -0.0579 -0.1501  0.2531
  315loPI   GL2 5030  16.572   3.612   9.843 -0.1245 -0.2594  0.1292
  315loPI   C1A 5031  17.312   3.753   9.483 -0.1922  0.1015 -0.1012
  315loPI   C2A 5032  17.353   4.079   9.102  0.0907  0.0647  0.3277
  315loPI   C3A 5033  17.158   4.176   8.727 -0.1381  0.2094 -0.0352
  315loPI   C4A 5034  17.128   4.225   8.350 -0.0784  0.0238 -0.3794
  315loPI   C5A 5035  17.567   4.378   8.093  0.2958 -0.0767  0.3357
  315loPI   C6A 5036  18.049   4.414   7.873  0.2798 -0.2137 -0.0177
  315loPI   C1B 5037  16.675   3.641   9.473  0.0446 -0.0786 -0.1988
  315loPI   C2B 5038  16.559   3.790   9.155  0.0045 -0.1687  0.1185
  315loPI   C3B 5039  16.301   3.859   8.875 -0.1247 -0.0127 -0.1064
  315loPI   C4B 5040  16.145   3.727   8.545 -0.1356 -0.2234 -0.3970
  316loPI    C1 5041   3.800   6.948  10.700 -0.0236 -0.2251  0.0787
  316loPI    C2 5042   3.439   7.039  10.848 -0.0923 -0.2454 -0.0748
  316loPI    C3 5043   3.730   6.912  11.092 -0.1555 -0.1231  0.0653
  316loPI   PO4 5044   3.815   7.088  10.551  0.1448 -0.1925 -0.1981
  316loPI   GL1 5045   3.941   7.048  10.168 -0.1127 -0.0613 -0.3236
  316loPI   GL2 5046   4.190   6.822  10.024  0.0977  0.0972  0.1527
  316loPI   C1A 5047   3.837   7.155   9.734 -0.0093 -0.0503  0.1155
  316loPI   C2A 5048   3.827   7.076   9.402 -0.2159  0.0520 -0.0705
  316loPI   C3A 5049   3.870   7.121   8.934  0.1135  0.0492 -0.1136
  316loPI   C4A 5050   4.004   7.116   8.505  0.0777  0.0566  0.1466
  316loPI   C5A 5051   4.126   7.177   8.017  0.0316 -0.3344  0.0892
  316loPI   C6A 5052   4.466   7.094   7.773  0.0811 -0.3870 -0.2494
  316loPI   C1B 5053   4.112   6.721   9.604 -0.2324 -0.2536 -0.0415
  316loPI   C2B 5054   4.079   6.644   9.174 -0.2496 -0.1200 -0.0046
  316loPI   C3B 5055   4.259   6.675   8.783 -0.0583  0.2257 -0.1461
  316loPI   C4B 5056   4.382   6.678   8.421 -0.0256  0.1382  0.0069
  317loPI    C1 5057  15.371  12.042  10.221  0.1868 -0.1395  0.1280
  317loPI    C2 5058  15.551  12.392  10.288 -0.0879  0.0070  0.1140
  317loPI    C3 5059  15.438  12.164  10.596 -0.1294  0.0453  0.1271
  317loPI   PO4 5060  15.476  11.948  10.025 -0.2908  0.2273  0.3450
  317loPI   GL1 5061  15.238  11.978   9.654  0.1313 -0.1342  0.1105
  317loPI   GL2 5062  15.351  11.703   9.555 -0.2613 -0.0678  0.3005
  317loPI   C1A 5063  15.137  12.020   9.233  0.1815 -0.1228  0.0868
  317loPI   C2A 5064  15.025  11.934   8.850 -0.1127 -0.2853 -0.1611
  317loPI   C3A 5065  14.834  11.912   8.399  0.0808  0.1611  0.0003
  317loPI   C4A 5066  14.875  11.479   8.246  0.2053 -0.1188 -0.1426
  317loPI   C5A 5067  14.535  11.196   8.171  0.1384  0.1007 -0.1437
  317loPI   C6A 5068  14.303  10.918   8.299  0.0049  0.1295 -0.2184
  317loPI   C1B 5069  15.421  11.664   9.074 -0.2360 -0.0779 -0.2476
  317loPI   C2B 5070  15.378  11.720   8.513 -0.1872  0.1198  0.0765
  317loPI   C3B 5071  15.263  11.949   8.109 -0.3363 -0.1865  0.1278
  317loPI   C4B 5072  14.799  11.954   7.923 -0.1599 -0.2091  0.0093
  318loPI    C1 5073   9.788  15.607  11.033 -0.0301  0.0853 -0.1684
  318loPI    C2 5074   9.533  15.421  10.787 -0.0573 -0.1279  0.0174
  318loPI    C3 5075   9.644  15.247  11.129  0.1279  0.0829  0.0675
  318loPI   PO4 5076   9.969  15.736  10.775 -0.0278 -0.1840 -0.0316
  318loPI   GL1 5077  10.165  15.572  10.412  0.0698 -0.1810  0.0872
  318loPI   GL2 5078   9.790  15.602  10.318  0.0789 -0.2871  0.0724
  318loPI   C1A 5079  10.345  15.326  10.116  0.1485 -0.1883 -0.0563
  318loPI   C2A 5080  10.377  15.367   9.673 -0.0245 -0.2027 -0.0782
  318loPI   C3A 5081  10.436  15.419   9.242 -0.2779 -0.1278 -0.2363
  318loPI   C4A 5082  10.479  15.306   8.766  0.5874  0.3584  0.1465
  318loPI   C5A 5083  10.520  15.370   8.307  0.0006 -0.1002 -0.0735
  318loPI   C6A 5084  10.283  15.502   7.963 -0.2068 -0.1317  0.0597
  318loPI   C1B 5085   9.975  15.765   9.916  0.1772  0.1839  0.0296
  318loPI   C2B 5086  10.083  15.833   9.436 -0.1699 -0.1723 -0.0340
  318loPI   C3B 5087  10.270  15.871   9.025 -0.0252  0.0137  0.0036
  318loPI   C4B 5088  10.251  15.781   8.580 -0.1069 -0.3579  0.1348
  319loPI    C1 5089  14.154   0.961  10.794 -0.0959  0.2227 -0.2164
  319loPI    C2 5090  14.445   1.230  10.849 -0.0409  0.1041  0.0958
  319loPI    C3 5091  14.173   1.167  11.136 -0.1083 -0.1069 -0.0119
  319loPI   PO4 5092  14.206   0.885  10.575 -0.0687 -0.2883 -0.0737
  319loPI   GL1 5093  14.068   1.029  10.175 -0.0984  0.2337  0.0522
  319loPI   GL2 5094  14.334   1.203  10.188  0.3715  0.0044  0.2861
  319loPI   C1A 5095  13.953   0.755   9.824 -0.0013  0.0684 -0.1520
  319loPI   C2A 5096  13.991   0.832   9.289 -0.1274 -0.0469 -0.2512
  319loPI   C3A 5097  13.924   0.856   8.876  0.0398 -0.0520  0.1226
  319loPI   C4A 5098  14.116   0.689   8.564 -0.1140 -0.1476 -0.0163
  319loPI   C5A 5099  14.294   0.363   8.419  0.0544  0.1819  0.0395
  319loPI   C6A 5100  14.483   0.140   8.467 -0.0970 -0.2702  0.1828
  319loPI   C1B 5101  14.354   1.162   9.777  0.2169 -0.0554  0.2673
  319loPI   C2B 5102  14.439   1.144   9.418 -0.0603 -0.0299  0.0231
  319loPI   C3B 5103  14.474   1.102   8.974 -0.1889  0.1670  0.1180
  319loPI   C4B 5104  14.496   1.069   8.560  0.0175 -0.1785 -0.1483
  320loPI    C1 5105   7.787   2.135  10.572 -0.4412 -0.3405  0.0289
  320loPI    C2 5106   8.052   2.061  10.863 -0.1346  0.1314 -0.1180
  320loPI    C3 5107   7.663   2.097  10.951 -0.0987 -0.1305  0.1665
  320loPI   PO4 5108   7.980   2.246  10.338 -0.0972  0.0696  0.0097
  320loPI   GL1 5109   7.932   1.883   9.992  0.0703  0.4249 -0.2408
  320loPI   GL2 5110   8.153   1.650   9.903  0.3155 -0.0411  0.1777
  320loPI   C1A 5111   7.816   2.125   9.644 -0.2150  0.2144 -0.0527
  320loPI   C2A 5112   7.867   2.210   9.242  0.1910  0.0159  0.1098
  320loPI   C3A 5113   7.647   2.278   8.866  0.1682 -0.0355  0.0876
  320loPI   C4A 5114   7.732   2.209   8.447  0.1080 -0.0553  0.0217
  320loPI   C5A 5115   7.882   2.509   8.124 -0.0450 -0.0358  0.0871
  320loPI   C6A 5116   8.338   2.603   7.996 -0.1544 -0.1282  0.0716
  320loPI   C1B 5117   7.740   1.575   9.616  0.1979  0.3468  0.1801
  320loPI   C2B 5118   7.525   1.839   9.216 -0.1753  0.0952 -0.1022
  320loPI   C3B 5119   7.421   1.752   8.868  0.0438 -0.1472 -0.2233
  320loPI   C4B 5120   7.074   1.753   8.856 -0.1021  0.2150  0.0254
  321loPI    C1 5121   3.496  16.692  11.087  0.1981  0.1725 -0.2277
  321loPI    C2 5122   3.225  16.426  10.963  0.0976  0.0926  0.1499
  321loPI    C3 5123   3.122  16.706  11.229  0.3236  0.2172  0.1080
  321loPI   PO4 5124   3.682  16.769  10.966  0.4905  0.0385 -0.0856
  321loPI   GL1 5125   3.984  16.798  10.567 -0.3651 -0.0261 -0.1724
  321loPI   GL2 5126   3.956  17.154  10.491  0.1847  0.1057  0.0658
  321loPI   C1A 5127   3.838  16.609  10.211 -0.0557  0.2601  0.1541
  321loPI   C2A 5128   3.881  16.549   9.724 -0.2051  0.1445 -0.0668
  321loPI   C3A 5129   3.836  16.618   9.398 -0.2145  0.0671 -0.1754
  321loPI   C4A 5130   3.793  16.620   8.986 -0.1106 -0.1697 -0.1183
  321loPI   C5A 5131   3.923  16.733   8.503 -0.0475 -0.1188 -0.1066
  321loPI   C6A 5132   4.151  16.749   8.137  0.2691  0.1069  0.1442
  321loPI   C1B 5133   3.766  17.089  10.054 -0.1030  0.0901  0.0331
  321loPI   C2B 5134   3.723  17.093   9.714  0.1409 -0.1778 -0.1076
  321loPI   C3B 5135   3.693  17.149   9.212 -0.0146  0.2771 -0.1031
  321loPI   C4B 5136   3.584  17.092   8.733 -0.1219 -0.1791  0.0508
  322loPI    C1 5137   5.271  11.891  10.347  0.0978 -0.1869  0.2061
  322loPI    C2 5138   5.063  11.836  10.684 -0.3215  0.3813  0.0548
  322loPI    C3 5139   5.303  12.154  10.646 -0.0019  0.1328 -0.0587
  322loPI   PO4 5140   5.079  11.809  10.160  0.1687 -0.2906  0.0583
  322loPI   GL1 5141   5.041  11.514   9.824 -0.0595  0.0320  0.0219
  322loPI   GL2 5142   4.700  11.661   9.642 -0.0995 -0.0110 -0.0598
  322loPI   C1A 5143   5.160  11.698   9.380 -0.1995 -0.0006 -0.1579
  322loPI   C2A 5144   5.397  11.576   9.079  0.1916 -0.0241 -0.0585
  322loPI   C3A 5145   5.525  11.608   8.668  0.1011 -0.1772 -0.1385
  322loPI   C4A 5146   5.491  11.848   8.328  0.2828 -0.1498  0.1872
  322loPI   C5A 5147   5.606  12.263   8.054  0.1295  0.6247  0.2578
  322loPI   C6A 5148   5.571  12.738   8.079 -0.4789 -0.1888 -0.0551
  322loPI   C1B 5149   4.638  11.615   9.187 -0.0374 -0.2072  0.0562
  322loPI   C2B 5150   4.518  11.454   8.867 -0.0742  0.0389 -0.1361
  322loPI   C3B 5151   4.516  11.598   8.476  0.1862  0.2943  0.0035
  322loPI   C4B 5152   4.134  11.603   8.071 -0.0600  0.0616  0.1175
  323loPI    C1 5153   5.838   3.595  11.016  0.1269  0.2929 -0.1033
  323loPI    C2 5154   5.706   3.968  11.077 -0.1510  0.1527  0.1771
  323loPI    C3 5155   5.516   3.658  11.244 -0.0060 -0.1285 -0.1669
  323loPI   PO4 5156   5.841   3.561  10.732  0.0006  0.1243 -0.1369
  323loPI   GL1 5157   5.791   3.938  10.448 -0.0607 -0.1501  0.1772
  323loPI   GL2 5158   5.559   4.129  10.512 -0.2279  0.0360  0.0834
  323loPI   C1A 5159   5.602   3.648  10.129 -0.1206  0.0627 -0.3093
  323loPI   C2A 5160   5.475   3.629   9.714  0.0505 -0.2087  0.2293
  323loPI   C3A 5161   5.293   3.900   9.483  0.1023 -0.0092 -0.0932
  323loPI   C4A 5162   5.270   3.965   9.080 -0.1210 -0.1562 -0.0788
  323loPI   C5A 5163   5.064   3.803   8.681  0.0571 -0.2024  0.1305
  323loPI   C6A 5164   4.759   3.773   8.428 -0.1462 -0.0752 -0.1506
  323loPI   C1B 5165   5.499   4.155  10.095  0.1524 -0.3111 -0.1782
  323loPI   C2B 5166   5.794   4.034   9.866  0.2664 -0.2286  0.0751
  323loPI   C3B 5167   5.978   3.650   9.691 -0.0778 -0.0172 -0.1899
  323loPI   C4B 5168   6.018   3.474   9.252  0.1691  0.0075  0.1262
  324loPI    C1 5169   0.210  18.342  10.782  0.0546  0.0341 -0.1873
  324loPI    C2 5170   0.356  17.989  10.902  0.0158  0.0028 -0.2317
  324loPI    C3 5171   0.483  18.328  11.074 -0.2140 -0.0574  0.0631
  324loPI   PO4 5172   0.211  18.482  10.566  0.2116 -0.0321 -0.0497
  324loPI   GL1 5173   0.345  18.245  10.142 -0.2508  0.0388  0.0717
  324loPI   GL2 5174   0.090  18.460  10.090  0.4311  0.0066  0.1295
  324loPI   C1A 5175   0.342  18.168   9.698  0.1005  0.1515 -0.2188
  324loPI   C2A 5176   0.064  18.182   9.449 -0.0413  0.0664 -0.1743
  324loPI   C3A 5177   0.061  18.198   8.963  0.1444  0.1635  0.3208
  324loPI   C4A 5178   0.008  18.243   8.508  0.2067  0.0966  0.0812
  324loPI   C5A 5179   0.145  18.126   7.995  0.1771 -0.1100 -0.0261
  324loPI   C6A 5180  -0.050  17.986   7.661  0.2454 -0.2869  0.3374
  324loPI   C1B 5181   0.049  18.627   9.655  0.0853  0.0788  0.1720
  324loPI   C2B 5182  -0.059  18.677   9.165  0.0951  0.1403 -0.2866
  324loPI   C3B 5183  -0.125  18.718   8.711 -0.0519 -0.1045  0.3210
  324loPI   C4B 5184  -0.021  18.716   8.326  0.0935 -0.0863  0.0652
  325loPI    C1 5185  11.099   3.934  11.087  0.1018 -0.0663 -0.0862
  325loPI    C2 5186  10.791   3.701  10.982  0.1667 -0.1978  0.0116
  325loPI    C3 5187  10.914   3.710  11.363  0.0419  0.1447  0.0475
  325loPI   PO4 5188  11.292   3.840  10.844  0.1877 -0.3262  0.0019
  325loPI   GL1 5189  11.275   3.816  10.504  0.1202 -0.1580  0.1529
  325loPI   GL2 5190  11.383   3.525  10.328  0.0203  0.0955  0.1122
  325loPI   C1A 5191  11.027   3.729  10.058  0.0466 -0.3604  0.2706
  325loPI   C2A 5192  10.869   3.656   9.645 -0.2070 -0.1084 -0.1895
  325loPI   C3A 5193  10.936   3.667   9.280 -0.2956 -0.2358  0.0797
  325loPI   C4A 5194  10.850   3.705   8.758  0.2526 -0.1511  0.0659
  325loPI   C5A 5195  10.845   3.534   8.319  0.3534 -0.0578  0.1800
  325loPI   C6A 5196  10.888   3.586   7.861  0.2530  0.1334 -0.1148
  325loPI   C1B 5197  11.479   3.499   9.926  0.1146  0.1161 -0.3673
  325loPI   C2B 5198  11.388   3.407   9.489  0.0543 -0.0201 -0.0794
  325loPI   C3B 5199  11.349   3.494   9.054  0.1938 -0.0208  0.0870
  325loPI   C4B 5200  11.320   3.423   8.601  0.1716 -0.0265 -0.3126
  326loPI    C1 5201   4.385   1.841  10.851  0.1993  0.1886 -0.0040
  326loPI    C2 5202   4.575   1.489  10.847  0.2159  0.1985 -0.1500
  326loPI    C3 5203   4.630   1.743  11.151  0.0023 -0.0333  0.0876
  326loPI   PO4 5204   4.190   1.821  10.745  0.0839 -0.2402  0.0932
  326loPI   GL1 5205   3.986   1.480  10.438  0.3004  0.3189 -0.0919
  326loPI   GL2 5206   3.991   1.817  10.290  0.0308 -0.1119 -0.0700
  326loPI   C1A 5207   3.949   1.426   9.944 -0.0773 -0.0151  0.0805
  326loPI   C2A 5208   4.148   1.532   9.504 -0.2591 -0.3563 -0.0472
  326loPI   C3A 5209   4.257   1.317   9.129  0.0071 -0.3478  0.0254
  326loPI   C4A 5210   4.457   1.119   8.808 -0.0061  0.0539 -0.2438
  326loPI   C5A 5211   4.704   1.035   8.475 -0.0731  0.1439  0.0450
  326loPI   C6A 5212   5.033   0.792   8.362  0.2814  0.0169  0.0301
  326loPI   C1B 5213   3.933   1.974   9.826  0.0020 -0.0381 -0.1658
  326loPI   C2B 5214   3.775   2.070   9.409 -0.3042 -0.0258 -0.0208
  326loPI   C3B 5215   3.545   2.053   8.962  0.2767 -0.3054 -0.5081
  326loPI   C4B 5216   3.574   1.698   8.770  0.0611  0.3246 -0.0364
  327loPI    C1 5217   9.490   8.588  11.211  0.1602  0.1051  0.2163
  327loPI    C2 5218   9.096   8.648  11.237  0.1229  0.0094 -0.0898
  327loPI    C3 5219   9.261   8.328  11.411  0.0431 -0.0314 -0.0886
  327loPI   PO4 5220   9.533   8.646  10.951 -0.1993  0.1924 -0.0038
  327loPI   GL1 5221   9.587   8.419  10.553 -0.2356 -0.0058  0.1499
  327loPI   GL2 5222   9.421   8.647  10.329  0.2508 -0.0021 -0.0352
  327loPI   C1A 5223   9.657   8.096  10.159  0.0240 -0.1828 -0.1170
  327loPI   C2A 5224   9.602   8.273   9.734  0.2784 -0.1803 -0.1292
  327loPI   C3A 5225   9.639   8.187   9.295  0.0885  0.0638 -0.0745
  327loPI   C4A 5226   9.661   8.194   8.815  0.0234  0.2020 -0.3283
  327loPI   C5A 5227   9.806   8.217   8.374 -0.1575 -0.0102 -0.1168
  327loPI   C6A 5228  10.183   8.121   8.154 -0.1125 -0.2798 -0.1751
  327loPI   C1B 5229   9.329   8.707   9.866 -0.1568  0.0130 -0.1986
  327loPI   C2B 5230   9.332   8.631   9.452 -0.0720 -0.1098 -0.3209
  327loPI   C3B 5231   9.419   8.579   9.028 -0.0957  0.0266 -0.1764
  327loPI   C4B 5232   9.360   8.617   8.654 -0.0527 -0.1212 -0.2078
  328loPI    C1 5233   9.345   1.971  11.057 -0.0170  0.0359 -0.1731
  328loPI    C2 5234   9.046   2.070  10.811 -0.0398  0.2312 -0.0685
  328loPI    C3 5235   8.967   1.898  11.163 -0.0106  0.0098 -0.1686
  328loPI   PO4 5236   9.578   1.840  10.898  0.1524  0.0727 -0.2803
  328loPI   GL1 5237   9.468   1.904  10.474 -0.0777 -0.3081 -0.0696
  328loPI   GL2 5238   9.580   1.648  10.453 -0.0031  0.0077 -0.1839
  328loPI   C1A 5239   9.606   2.024   9.923 -0.3506  0.0064  0.1781
  328loPI   C2A 5240   9.549   2.205   9.560 -0.1179  0.0144 -0.0267
  328loPI   C3A 5241   9.750   2.134   9.159 -0.2965  0.2593 -0.3946
  328loPI   C4A 5242   9.699   2.015   8.725  0.5167  0.0802  0.1331
  328loPI   C5A 5243   9.577   2.062   8.369  0.3242 -0.0089  0.1380
  328loPI   C6A 5244   9.452   2.325   8.100 -0.0325  0.2005  0.2363
  328loPI   C1B 5245   9.600   1.550  10.030 -0.0264 -0.0144  0.0687
  328loPI   C2B 5246   9.705   1.610   9.627  0.0197 -0.0124 -0.1099
  328loPI   C3B 5247   9.909   1.615   9.238 -0.2900 -0.1680 -0.3310
  328loPI   C4B 5248   9.974   1.573   8.753 -0.1593  0.0297  0.1646
  329loPI    C1 5249  10.785  17.186  11.000  0.0227 -0.2569  0.0104
  329loPI    C2 5250  10.638  16.823  11.081 -0.1748 -0.1747  0.0272
  329loPI    C3 5251  10.518  17.139  11.294 -0.0223 -0.0950 -0.0034
  329loPI   PO4 5252  10.822  17.190  10.648  0.1622 -0.0075  0.2482
  329loPI   GL1 5253  10.807  16.822  10.307  0.0110 -0.2296  0.0193
  329loPI   GL2 5254  11.078  17.062  10.125  0.1298 -0.0490  0.0668
  329loPI   C1A 5255  10.705  16.732   9.917 -0.1693 -0.2338 -0.1133
  329loPI   C2A 5256  10.536  16.825   9.515 -0.0147 -0.2522 -0.0408
  329loPI   C3A 5257  10.420  16.746   9.067 -0.0355  0.1864 -0.0563
  329loPI   C4A 5258  10.197  16.682   8.717  0.0061 -0.2901  0.1814
  329loPI   C5A 5259   9.932  16.638   8.373 -0.0864 -0.1040 -0.0022
  329loPI   C6A 5260   9.929  16.598   7.993  0.1491  0.1631  0.2865
  329loPI   C1B 5261  10.949  17.118   9.693  0.1244  0.0777  0.0255
  329loPI   C2B 5262  10.880  17.203   9.323 -0.1518 -0.1470 -0.0491
  329loPI   C3B 5263  10.769  17.323   8.974  0.1977 -0.1737  0.1009
  329loPI   C4B 5264  10.979  17.118   8.652 -0.2571 -0.0683  0.2404
  330loPI    C1 5265  15.923   6.796  10.732 -0.0689 -0.4921  0.1587
  330loPI    C2 5266  15.718   6.787  11.075 -0.1802  0.1557  0.1223
  330loPI    C3 5267  16.103   6.898  11.075 -0.0625 -0.2366  0.0814
  330loPI   PO4 5268  15.665   6.838  10.550  0.1784 -0.3226  0.0093
  330loPI   GL1 5269  15.608   6.856  10.166  0.1656  0.3259  0.3139
  330loPI   GL2 5270  15.465   7.208  10.150  0.0658 -0.2179  0.1906
  330loPI   C1A 5271  15.617   6.739   9.845 -0.0102  0.0290  0.2624
  330loPI   C2A 5272  15.704   6.778   9.494  0.0034  0.4449 -0.3398
  330loPI   C3A 5273  15.748   6.759   9.101 -0.0604  0.0452 -0.2679
  330loPI   C4A 5274  15.876   6.976   8.747  0.1823  0.1596  0.2363
  330loPI   C5A 5275  15.974   7.277   8.414 -0.0079 -0.0148  0.0356
  330loPI   C6A 5276  16.080   7.408   8.056 -0.2159  0.2040 -0.0384
  330loPI   C1B 5277  15.341   7.163   9.758 -0.0368 -0.0125 -0.0708
  330loPI   C2B 5278  15.368   7.088   9.254  0.0591 -0.0576 -0.2957
  330loPI   C3B 5279  15.380   7.117   8.868 -0.3814 -0.1416  0.3765
  330loPI   C4B 5280  15.436   7.123   8.510  0.0426  0.2392 -0.1162
  331loPI    C1 5281  17.275  12.464  11.002 -0.1509  0.0533  0.0180
  331loPI    C2 5282  17.236  12.310  11.369 -0.1250  0.1279  0.0520
  331loPI    C3 5283  17.177  12.701  11.309 -0.0546  0.1290 -0.0095
  331loPI   PO4 5284  17.356  12.293  10.824  0.1278 -0.2329  0.1203
  331loPI   GL1 5285  17.440  12.208  10.404 -0.0557  0.0848  0.0697
  331loPI   GL2 5286  17.387  12.551  10.326  0.1342 -0.0857  0.1525
  331loPI   C1A 5287  17.354  12.195   9.934 -0.1891 -0.0577  0.0433
  331loPI   C2A 5288  17.348  12.285   9.557  0.0009 -0.0845 -0.3974
  331loPI   C3A 5289  17.441  12.264   9.041 -0.1893  0.1314 -0.0189
  331loPI   C4A 5290  17.450  12.427   8.574  0.0625  0.3989 -0.1060
  331loPI   C5A 5291  17.337  12.182   8.337 -0.0011  0.1823 -0.3602
  331loPI   C6A 5292  17.220  12.016   8.059 -0.1359 -0.2309  0.2704
  331loPI   C1B 5293  17.559  12.712   9.858 -0.0653  0.2734 -0.1567
  331loPI   C2B 5294  17.518  12.858   9.392  0.0576  0.1303  0.3347
  331loPI   C3B 5295  17.566  13.081   9.022  0.2333 -0.1884  0.2686
  331loPI   C4B 5296  17.713  13.312   8.642  0.1377 -0.0846  0.2637
  332loPI    C1 5297  10.837  15.202  11.066  0.1837 -0.0969  0.0564
  332loPI    C2 5298  10.469  15.046  11.071  0.0451  0.2234  0.0735
  332loPI    C3 5299  10.768  14.859  11.259 -0.1184 -0.0131  0.1024
  332loPI   PO4 5300  10.846  15.221  10.764  0.0421  0.2827 -0.1634
  332loPI   GL1 5301  11.103  15.058  10.401 -0.0035  0.4493  0.3921
  332loPI   GL2 5302  10.855  15.261  10.240 -0.0247  0.1405  0.1775
  332loPI   C1A 5303  11.258  14.952  10.071  0.0983 -0.0606  0.0982
  332loPI   C2A 5304  11.191  14.905   9.653  0.0489 -0.0562 -0.1682
  332loPI   C3A 5305  11.237  14.992   9.208 -0.0385 -0.1296 -0.3562
  332loPI   C4A 5306  11.259  14.887   8.864  0.0016  0.2972 -0.0942
  332loPI   C5A 5307  11.350  14.909   8.304 -0.0605  0.1536 -0.3379
  332loPI   C6A 5308  11.214  14.829   7.774  0.2363  0.0488 -0.3407
  332loPI   C1B 5309  10.880  15.300   9.845  0.0162 -0.1681  0.2382
  332loPI   C2B 5310  10.936  15.370   9.384  0.0968 -0.3332  0.0297
  332loPI   C3B 5311  10.965  15.336   8.964  0.3513 -0.3703 -0.0234
  332loPI   C4B 5312  11.112  15.306   8.565 -0.1481 -0.1791  0.0860
  333loPI    C1 5313  18.297  11.228  10.820 -0.0662 -0.0433  0.0638
  333loPI    C2 5314  18.291  11.201  11.219 -0.1954  0.2296  0.0825
  333loPI    C3 5315  17.959  11.128  11.008 -0.1278  0.0875  0.0235
  333loPI   PO4 5316  18.475  11.136  10.763 -0.1623  0.1975 -0.3208
  333loPI   GL1 5317  18.629  11.207  10.397 -0.0002 -0.0339  0.0815
  333loPI   GL2 5318  18.738  11.434  10.207 -0.1863 -0.0710 -0.3060
  333loPI   C1A 5319  18.399  11.142  10.021  0.1243  0.0188 -0.1911
  333loPI   C2A 5320  18.528  11.171   9.502 -0.3701  0.0567 -0.1073
  333loPI   C3A 5321  18.486  11.404   9.161 -0.0476 -0.0594 -0.1367
  333loPI   C4A 5322  18.475  11.229   8.635  0.1168 -0.0487  0.0911
  333loPI   C5A 5323  18.668  10.849   8.378 -0.0569  0.1000 -0.0346
  333loPI   C6A 5324  18.804  10.654   8.086 -0.0301 -0.0589  0.3313
  333loPI   C1B 5325  18.618  11.543   9.883 -0.0210 -0.0418 -0.2107
  333loPI   C2B 5326  18.752  11.725   9.490 -0.0168 -0.0945  0.1042
  333loPI   C3B 5327  19.014  11.878   9.155 -0.1728 -0.2565  0.1216
  333loPI   C4B 5328  19.141  12.027   8.748 -0.2465 -0.1803 -0.2301
  334loPI    C1 5329   6.042   5.991  10.547  0.1573  0.1831  0.0440
  334loPI    C2 5330   5.952   5.781  10.875 -0.2139 -0.1029 -0.2315
  334loPI    C3 5331   5.748   6.114  10.789  0.0874  0.1426 -0.0197
  334loPI   PO4 5332   6.058   5.986  10.269  0.0124  0.2615 -0.1931
  334loPI   GL1 5333   5.806   6.036   9.984 -0.0624 -0.2387  0.3449
  334loPI   GL2 5334   6.108   6.030   9.748  0.2024 -0.0464 -0.0053
  334loPI   C1A 5335   5.704   5.831   9.597 -0.1191 -0.3019 -0.2084
  334loPI   C2A 5336   5.828   5.895   9.103 -0.2089  0.0847 -0.3676
  334loPI   C3A 5337   5.796   5.862   8.665 -0.0685  0.1218  0.1357
  334loPI   C4A 5338   5.517   5.702   8.313  0.0370 -0.1662 -0.0307
  334loPI   C5A 5339   5.550   5.564   7.909  0.1219 -0.0356  0.1673
  334loPI   C6A 5340   5.660   5.836   7.561 -0.1976 -0.1012 -0.2049
  334loPI   C1B 5341   6.287   5.877   9.357 -0.2651 -0.1948 -0.0882
  334loPI   C2B 5342   6.299   5.952   8.905  0.2115  0.0507 -0.1774
  334loPI   C3B 5343   6.362   5.739   8.509 -0.0092  0.3311 -0.1498
  334loPI   C4B 5344   6.499   5.906   8.025  0.0577  0.2692  0.3861
  335loPI    C1 5345   9.499   4.013  10.970 -0.1380 -0.0812 -0.0862
  335loPI    C2 5346   9.236   3.733  11.082 -0.3267  0.1210 -0.0162
  335loPI    C3 5347   9.309   4.045  11.321 -0.0385  0.0789 -0.0460
  335loPI   PO4 5348   9.541   3.963  10.666  0.0601  0.1555 -0.2544
  335loPI   GL1 5349   9.586   3.770  10.253 -0.3277 -0.0795 -0.0018
  335loPI   GL2 5350   9.291   3.804  10.213 -0.0789  0.3191 -0.0467
  335loPI   C1A 5351   9.883   3.780   9.894  0.1419 -0.0866 -0.3020
  335loPI   C2A 5352   9.875   3.676   9.456 -0.0115 -0.1054  0.0686
  335loPI   C3A 5353   9.999   3.513   9.068  0.5110 -0.0750  0.0089
  335loPI   C4A 5354   9.881   3.463   8.616  0.0237 -0.0801  0.1090
  335loPI   C5A 5355  10.128   3.330   8.313 -0.1421  0.2818  0.1716
  335loPI   C6A 5356  10.513   3.258   8.072 -0.0584 -0.0068 -0.3639
  335loPI   C1B 5357   9.406   3.854   9.744  0.3752  0.0333 -0.0014
  335loPI   C2B 5358   9.414   3.746   9.275 -0.0872 -0.2487  0.0081
  335loPI   C3B 5359   9.404   3.702   8.870 -0.3335  0.2278 -0.2705
  335loPI   C4B 5360   9.381   3.468   8.434  0.3332  0.0841  0.0747
  336loPI    C1 5361   4.679   0.424  10.825 -0.0844 -0.0646 -0.0031
  336loPI    C2 5362   4.457   0.096  10.878 -0.0513 -0.0643  0.1405
  336loPI    C3 5363   4.465   0.380  11.160 -0.0826  0.0621  0.0154
  336loPI   PO4 5364   4.629   0.514  10.573  0.1176 -0.1139  0.1585
  336loPI   GL1 5365   4.432   0.540  10.155 -0.2139  0.1260 -0.0923
  336loPI   GL2 5366   4.548   0.242  10.052  0.0133 -0.1794 -0.0707
  336loPI   C1A 5367   4.288   0.559   9.759 -0.2657  0.0194  0.0228
  336loPI   C2A 5368   3.915   0.617   9.370  0.0568  0.2785  0.0643
  336loPI   C3A 5369   4.016   0.890   8.894 -0.1217 -0.1087  0.2175
  336loPI   C4A 5370   3.981   1.356   8.682 -0.2052 -0.1087  0.1923
  336loPI   C5A 5371   3.923   1.446   8.308  0.1864 -0.0594 -0.2020
  336loPI   C6A 5372   3.953   1.483   7.839 -0.2842 -0.0675  0.2095
  336loPI   C1B 5373   4.575   0.287   9.507  0.0388  0.1505 -0.1634
  336loPI   C2B 5374   4.856   0.296   9.090  0.3302  0.1477 -0.0458
  336loPI   C3B 5375   4.957   0.174   8.663 -0.1506  0.1085 -0.2096
  336loPI   C4B 5376   5.094  -0.130   8.380 -0.0001  0.2474  0.0920
  337loPI    C1 5377   1.796  15.309  10.679 -0.0622 -0.0489  0.2412
  337loPI    C2 5378   1.807  15.602  10.952 -0.0425  0.0228  0.1638
  337loPI    C3 5379   2.138  15.393  10.869 -0.0186  0.0837  0.1054
  337loPI   PO4 5380   1.735  15.448  10.507  0.1219 -0.0361  0.3373
  337loPI   GL1 5381   1.612  15.680  10.214 -0.0544  0.3146 -0.1729
  337loPI   GL2 5382   1.387  16.015  10.138 -0.0542  0.0127  0.0048
  337loPI   C1A 5383   1.748  15.324   9.820 -0.2167 -0.1531  0.1583
  337loPI   C2A 5384   1.842  15.351   9.428 -0.2622  0.0422 -0.1985
  337loPI   C3A 5385   1.764  15.466   9.024  0.0416  0.1416 -0.0502
  337loPI   C4A 5386   1.782  15.460   8.646 -0.3676 -0.0744  0.0609
  337loPI   C5A 5387   1.774  15.650   8.239  0.2087  0.1282 -0.1796
  337loPI   C6A 5388   1.674  15.720   7.782  0.0602 -0.0304  0.2469
  337loPI   C1B 5389   1.087  16.042   9.875 -0.0897 -0.1365  0.0457
  337loPI   C2B 5390   0.884  16.222   9.617 -0.0367 -0.2211 -0.0348
  337loPI   C3B 5391   0.899  16.385   9.324  0.2055 -0.0116 -0.2440
  337loPI   C4B 5392   0.796  16.486   8.907  0.1423  0.0310  0.1193
  338loPI    C1 5393   0.673  15.658  11.038 -0.0998 -0.0560  0.2170
  338loPI    C2 5394   1.041  15.638  11.193  0.0784  0.0557 -0.1771
  338loPI    C3 5395   0.779  15.907  11.332  0.1591  0.0078  0.0727
  338loPI   PO4 5396   0.841  15.595  10.747 -0.0593 -0.0072  0.0062
  338loPI   GL1 5397   0.759  15.474  10.317  0.3801  0.1595 -0.1537
  338loPI   GL2 5398   1.100  15.546  10.289  0.1671 -0.2042 -0.1625
  338loPI   C1A 5399   0.788  15.637   9.916  0.1212 -0.1400 -0.0839
  338loPI   C2A 5400   0.914  15.741   9.525  0.2652 -0.2402 -0.0750
  338loPI   C3A 5401   0.896  15.916   9.209  0.0455 -0.0250 -0.1119
  338loPI   C4A 5402   0.823  15.992   8.724  0.1141  0.4645  0.0572
  338loPI   C5A 5403   0.708  16.280   8.428 -0.1263  0.0739  0.0062
  338loPI   C6A 5404   0.567  16.538   7.975 -0.1862  0.5323 -0.2479
  338loPI   C1B 5405   1.307  15.608   9.830 -0.1625  0.0791 -0.2949
  338loPI   C2B 5406   1.348  15.685   9.389  0.1636  0.2282  0.0487
  338loPI   C3B 5407   1.258  15.713   8.914 -0.0704  0.3331  0.1579
  338loPI   C4B 5408   1.243  15.726   8.448  0.1534  0.0059 -0.1712
  339loPI    C1 5409  15.928  13.404  10.594  0.0020  0.1159 -0.0499
  339loPI    C2 5410  16.296  13.545  10.664 -0.0324  0.1173  0.1303
  339loPI    C3 5411  16.103  13.338  10.947 -0.0614 -0.1220 -0.0617
  339loPI   PO4 5412  15.933  13.701  10.408 -0.1735 -0.1142  0.1674
  339loPI   GL1 5413  15.771  13.557  10.039  0.3053  0.0467  0.0700
  339loPI   GL2 5414  15.883  13.270  10.040 -0.5566  0.3369 -0.0059
  339loPI   C1A 5415  15.593  13.405   9.692  0.3291 -0.0758 -0.2246
  339loPI   C2A 5416  15.628  13.467   9.276  0.1602 -0.0257 -0.1328
  339loPI   C3A 5417  15.756  13.492   8.883  0.2382  0.0351 -0.1453
  339loPI   C4A 5418  15.930  13.466   8.477  0.1753  0.0518 -0.1352
  339loPI   C5A 5419  16.083  13.323   8.159 -0.1552 -0.0289  0.2439
  339loPI   C6A 5420  16.472  13.283   8.031  0.1026 -0.2333  0.5017
  339loPI   C1B 5421  15.993  13.139   9.665 -0.0150 -0.1039  0.1868
  339loPI   C2B 5422  16.162  12.926   9.345 -0.0243  0.1066  0.0862
  339loPI   C3B 5423  16.057  13.035   8.907  0.0780 -0.2112  0.1815
  339loPI   C4B 5424  15.808  12.989   8.594 -0.2174 -0.0259  0.0914
  340loPI    C1 5425   1.954   4.314  10.496  0.2276 -0.2487 -0.0321
  340loPI    C2 5426   1.560   4.297  10.563  0.1802  0.1530 -0.1782
  340loPI    C3 5427   1.816   4.265  10.868  0.0433 -0.2518 -0.0994
  340loPI   PO4 5428   1.994   4.549  10.290 -0.0644  0.0038 -0.0865
  340loPI   GL1 5429   1.820   4.588   9.791  0.1434 -0.1378 -0.0786
  340loPI   GL2 5430   2.139   4.787   9.820  0.2292 -0.1792 -0.0008
  340loPI   C1A 5431   1.979   4.487   9.355 -0.1385  0.1145 -0.0128
  340loPI   C2A 5432   1.999   4.298   8.953  0.1867 -0.1743  0.1390
  340loPI   C3A 5433   1.721   4.170   8.631  0.0609  0.0140  0.0193
  340loPI   C4A 5434   1.385   4.093   8.204 -0.4556  0.1415 -0.0227
  340loPI   C5A 5435   1.261   3.766   7.980 -0.2012  0.0904  0.0501
  340loPI   C6A 5436   1.313   3.503   7.627 -0.1014 -0.0386  0.1441
  340loPI   C1B 5437   2.597   4.838   9.736  0.0737  0.0379 -0.0011
  340loPI   C2B 5438   2.973   4.900   9.612 -0.2051 -0.0481 -0.1492
  340loPI   C3B 5439   3.019   4.741   9.227  0.2956  0.0870 -0.1567
  340loPI   C4B 5440   3.077   4.414   8.985  0.0370  0.5297  0.0638
  341loPI    C1 5441  10.439   7.038  10.548  0.2022 -0.2464 -0.1964
  341loPI    C2 5442  10.294   6.810  10.844  0.0778 -0.1171 -0.1567
  341loPI    C3 5443  10.669   6.949  10.863 -0.0488  0.2000  0.1246
  341loPI   PO4 5444  10.200   7.186  10.483  0.0679  0.0952  0.1433
  341loPI   GL1 5445  10.138   7.272  10.009 -0.4395 -0.2117 -0.2179
  341loPI   GL2 5446  10.342   7.011   9.963  0.1834  0.1480  0.0531
  341loPI   C1A 5447  10.140   7.347   9.588 -0.0106  0.1886  0.0587
  341loPI   C2A 5448  10.178   7.350   9.151 -0.0241  0.0830  0.1566
  341loPI   C3A 5449  10.184   7.324   8.786 -0.0891 -0.2510 -0.1608
  341loPI   C4A 5450  10.152   7.239   8.373 -0.2252 -0.1922 -0.3407
  341loPI   C5A 5451   9.870   7.230   8.003 -0.2767  0.2028  0.2192
  341loPI   C6A 5452   9.954   6.985   7.687 -0.3850  0.2331  0.0581
  341loPI   C1B 5453  10.422   6.970   9.396 -0.0301  0.2251  0.2193
  341loPI   C2B 5454  10.445   6.980   9.022 -0.0506  0.0784 -0.2201
  341loPI   C3B 5455  10.558   6.845   8.658  0.2160  0.1984 -0.2518
  341loPI   C4B 5456  10.656   6.817   8.182  0.2015  0.1684 -0.1126
  342loPI    C1 5457   9.350  11.902  10.586  0.3366 -0.1561 -0.1030
  342loPI    C2 5458   9.063  11.629  10.638  0.2843 -0.1195 -0.1976
  342loPI    C3 5459   9.260  11.775  10.954  0.2859 -0.2381 -0.1434
  342loPI   PO4 5460   9.306  11.961  10.344  0.0252  0.4068 -0.0023
  342loPI   GL1 5461   9.230  11.765   9.994 -0.0324  0.4683  0.3345
  342loPI   GL2 5462   8.909  11.771   9.939 -0.0605  0.1346  0.3255
  342loPI   C1A 5463   9.459  11.733   9.611 -0.1921 -0.0566 -0.0197
  342loPI   C2A 5464   9.523  11.844   9.210  0.4419  0.1369 -0.0935
  342loPI   C3A 5465   9.578  11.789   8.824  0.0756 -0.0286  0.1846
  342loPI   C4A 5466   9.633  11.679   8.406  0.1503  0.0055  0.2346
  342loPI   C5A 5467   9.460  11.790   7.965 -0.3131  0.0798 -0.0798
  342loPI   C6A 5468   9.639  11.990   7.623 -0.3571 -0.0195 -0.2044
  342loPI   C1B 5469   8.949  11.752   9.463 -0.1819 -0.0291 -0.0861
  342loPI   C2B 5470   9.056  11.845   9.015 -0.2480 -0.1243 -0.1642
  342loPI   C3B 5471   9.106  11.687   8.702 -0.2139  0.1425 -0.0036
  342loPI   C4B 5472   9.163  11.601   8.284 -0.1426  0.1354 -0.0350
  343loPI    C1 5473   3.961   8.579  10.490  0.1247 -0.1232  0.1244
  343loPI    C2 5474   3.561   8.588  10.475  0.1415  0.1412 -0.3285
  343loPI    C3 5475   3.752   8.735  10.794 -0.1243 -0.2233  0.0079
  343loPI   PO4 5476   4.056   8.625  10.206 -0.0371  0.0575 -0.0114
  343loPI   GL1 5477   4.052   8.358   9.877 -0.0667 -0.1535  0.2224
  343loPI   GL2 5478   3.878   8.031   9.791  0.2165  0.0297  0.0514
  343loPI   C1A 5479   4.072   8.470   9.542 -0.1461  0.2055  0.3668
  343loPI   C2A 5480   4.124   8.426   9.056 -0.0328 -0.1535 -0.1115
  343loPI   C3A 5481   4.134   8.501   8.646 -0.1068  0.2075  0.0037
  343loPI   C4A 5482   4.160   8.872   8.349  0.1201  0.4215 -0.0470
  343loPI   C5A 5483   4.142   9.120   8.017  0.6384  0.0159 -0.4068
  343loPI   C6A 5484   4.023   9.547   7.953  0.1590 -0.0170  0.0102
  343loPI   C1B 5485   3.809   8.026   9.397  0.0202  0.1457 -0.0831
  343loPI   C2B 5486   3.853   7.981   8.923  0.1076 -0.0006 -0.2486
  343loPI   C3B 5487   3.983   8.010   8.526 -0.0235  0.2653 -0.0571
  343loPI   C4B 5488   4.199   8.213   8.212  0.1437 -0.2471 -0.0127
  344loPI    C1 5489   1.791  17.969  10.566  0.1109 -0.1558 -0.1961
  344loPI    C2 5490   1.711  18.147  10.915  0.1397 -0.1197 -0.2079
  344loPI    C3 5491   2.061  18.213  10.732  0.0061  0.0990 -0.3913
  344loPI   PO4 5492   1.603  17.762  10.553 -0.3692  0.0467 -0.0946
  344loPI   GL1 5493   1.736  17.477  10.309  0.2875 -0.1802  0.2516
  344loPI   GL2 5494   1.894  17.256  10.309 -0.2084 -0.0341  0.1245
  344loPI   C1A 5495   1.658  17.784   9.877  0.1143 -0.0687  0.0535
  344loPI   C2A 5496   1.645  17.869   9.515 -0.1160  0.3435  0.0024
  344loPI   C3A 5497   1.787  17.914   9.095  0.0435  0.0663 -0.2285
  344loPI   C4A 5498   1.864  17.873   8.647  0.0460  0.3336 -0.1603
  344loPI   C5A 5499   1.884  17.851   8.175 -0.2346 -0.1613 -0.4077
  344loPI   C6A 5500   1.888  17.961   7.706  0.0357 -0.2346 -0.2387
  344loPI   C1B 5501   2.037  17.425   9.819  0.0093  0.2083  0.0009
  344loPI   C2B 5502   2.028  17.412   9.313  0.0172 -0.1485 -0.2119
  344loPI   C3B 5503   1.949  17.403   8.858 -0.1131  0.1495  0.0904
  344loPI   C4B 5504   1.995  17.390   8.348  0.0679  0.2780  0.0069
  345loPI    C1 5505  16.918  15.961  10.834 -0.2131  0.0099  0.2841
  345loPI    C2 5506  16.951  16.304  11.037  0.2224  0.0555  0.1473
  345loPI    C3 5507  17.172  15.987  11.142  0.1058 -0.0645  0.0339
  345loPI   PO4 5508  16.916  16.024  10.612  0.0779 -0.2080 -0.3311
  345loPI   GL1 5509  17.096  15.920  10.251  0.0411  0.2884  0.0952
  345loPI   GL2 5510  16.985  15.662  10.048 -0.0066 -0.4314  0.0785
  345loPI   C1A 5511  16.894  16.213   9.889 -0.3152  0.0984  0.4674
  345loPI   C2A 5512  16.868  16.332   9.443 -0.2191  0.0580  0.1972
  345loPI   C3A 5513  16.843  16.246   8.959  0.1653  0.0666  0.2033
  345loPI   C4A 5514  16.899  16.172   8.621  0.0518 -0.0658 -0.0245
  345loPI   C5A 5515  17.110  16.171   8.246 -0.3797 -0.0746 -0.0963
  345loPI   C6A 5516  17.395  16.445   7.903  0.0440 -0.0399  0.0369
  345loPI   C1B 5517  16.963  15.724   9.663 -0.2756 -0.0377  0.2052
  345loPI   C2B 5518  16.958  15.823   9.324  0.0180 -0.1464  0.0217
  345loPI   C3B 5519  16.894  15.781   8.906  0.2041  0.1282  0.1812
  345loPI   C4B 5520  17.044  15.646   8.539  0.0363  0.1232 -0.2071
  346loPI    C1 5521   6.890  13.457  11.100 -0.1115  0.0949  0.0560
  346loPI    C2 5522   7.211  13.354  11.316 -0.0463  0.1147 -0.0313
  346loPI    C3 5523   6.926  13.582  11.478  0.0351  0.1854  0.0128
  346loPI   PO4 5524   6.961  13.406  10.837 -0.1571  0.4105  0.1835
  346loPI   GL1 5525   7.136  13.410  10.470 -0.1077 -0.1217 -0.2215
  346loPI   GL2 5526   7.478  13.311  10.454  0.1657 -0.0877  0.1900
  346loPI   C1A 5527   6.862  13.287  10.084  0.2239 -0.2186  0.2695
  346loPI   C2A 5528   6.752  13.272   9.626 -0.0059  0.1800 -0.0601
  346loPI   C3A 5529   6.802  13.335   9.233  0.1383  0.1924 -0.0133
  346loPI   C4A 5530   6.761  13.659   8.884  0.2904 -0.1174  0.1769
  346loPI   C5A 5531   6.875  13.632   8.499  0.2468  0.0706  0.0809
  346loPI   C6A 5532   7.144  13.470   8.165 -0.1303  0.0303  0.1669
  346loPI   C1B 5533   7.330  13.389  10.031 -0.2151 -0.1467 -0.1988
  346loPI   C2B 5534   7.268  13.448   9.537 -0.0455  0.0110  0.1262
  346loPI   C3B 5535   7.269  13.578   9.142  0.0718  0.2650  0.1195
  346loPI   C4B 5536   7.287  13.758   8.766 -0.1742 -0.1523 -0.1380
  347loPI    C1 5537   9.842   5.141  10.662 -0.0527  0.1350  0.0064
  347loPI    C2 5538   9.664   4.944  10.961  0.1040 -0.0326 -0.0090
  347loPI    C3 5539   9.712   5.340  10.984 -0.3336  0.0272 -0.0374
  347loPI   PO4 5540   9.746   5.017  10.478  0.1885  0.2305 -0.0990
  347loPI   GL1 5541   9.653   5.192  10.179 -0.2564  0.0370  0.2281
  347loPI   GL2 5542   9.352   5.067  10.072  0.0821  0.3838 -0.1784
  347loPI   C1A 5543   9.556   5.402   9.739 -0.1263  0.1573 -0.0213
  347loPI   C2A 5544   9.628   5.523   9.345  0.2538  0.1649 -0.0132
  347loPI   C3A 5545   9.628   5.531   8.953 -0.1274 -0.0003  0.0853
  347loPI   C4A 5546   9.929   5.540   8.669 -0.1093 -0.2481  0.0176
  347loPI   C5A 5547  10.236   5.479   8.349 -0.3968 -0.1276  0.4876
  347loPI   C6A 5548  10.204   5.442   7.971 -0.1626 -0.0020 -0.1080
  347loPI   C1B 5549   9.264   4.942   9.682  0.2223  0.0396 -0.0154
  347loPI   C2B 5550   9.353   4.924   9.318 -0.0111  0.0113 -0.0586
  347loPI   C3B 5551   9.389   4.788   8.868  0.1272 -0.3208  0.1390
  347loPI   C4B 5552   9.162   4.651   8.527  0.0719 -0.0658 -0.0824
  348loPI    C1 5553   9.410  16.747  10.488  0.1088  0.3088  0.0478
  348loPI    C2 5554   9.521  16.397  10.647 -0.2285  0.1141 -0.1336
  348loPI    C3 5555   9.597  16.738  10.842  0.4192 -0.0264 -0.1183
  348loPI   PO4 5556   9.179  16.654  10.375 -0.0936 -0.0273  0.0861
  348loPI   GL1 5557   8.952  16.507   9.976 -0.0980  0.2707  0.2269
  348loPI   GL2 5558   8.566  16.571  10.007 -0.2209  0.1149 -0.3893
  348loPI   C1A 5559   9.294  16.347   9.697 -0.2903  0.0470  0.2308
  348loPI   C2A 5560   9.421  16.220   9.265 -0.1296  0.1225 -0.3047
  348loPI   C3A 5561   9.513  16.240   8.820  0.0431 -0.0483 -0.0252
  348loPI   C4A 5562   9.543  16.221   8.364 -0.1427 -0.3013 -0.0691
  348loPI   C5A 5563   9.435  16.521   8.097  0.0603  0.0602 -0.1706
  348loPI   C6A 5564   9.218  16.919   8.023  0.2659  0.0849 -0.1447
  348loPI   C1B 5565   8.584  16.582   9.455  0.0791 -0.1340  0.0510
  348loPI   C2B 5566   8.604  16.550   8.977  0.0613  0.1979  0.0670
  348loPI   C3B 5567   8.612  16.643   8.542  0.2624 -0.0831  0.1262
  348loPI   C4B 5568   8.865  16.594   8.198  0.0438  0.1279  0.0582
  349loPI    C1 5569   4.101   0.458  10.606  0.2361  0.1692  0.0039
  349loPI    C2 5570   3.944   0.289  10.933  0.2065  0.2260  0.0191
  349loPI    C3 5571   4.044   0.677  10.936  0.2654  0.2112 -0.0188
  349loPI   PO4 5572   4.192   0.161  10.435 -0.5019 -0.1791 -0.0761
  349loPI   GL1 5573   4.057  -0.090  10.251  0.0811 -0.2320 -0.1423
  349loPI   GL2 5574   3.950  -0.319  10.348  0.0246  0.2421  0.0938
  349loPI   C1A 5575   3.728  -0.139   9.911  0.0061 -0.1935 -0.0712
  349loPI   C2A 5576   3.586  -0.297   9.586 -0.2728 -0.0485 -0.2816
  349loPI   C3A 5577   3.531  -0.217   8.999 -0.0292  0.0210  0.0015
  349loPI   C4A 5578   3.570  -0.301   8.556 -0.3613  0.1921 -0.0767
  349loPI   C5A 5579   3.329  -0.456   8.284  0.3617  0.1184  0.0468
  349loPI   C6A 5580   3.088  -0.593   8.072  0.2225 -0.3559  0.0867
  349loPI   C1B 5581   4.091  -0.544   9.901  0.0254 -0.0069 -0.0439
  349loPI   C2B 5582   4.082  -0.473   9.485  0.0120  0.2209 -0.1198
  349loPI   C3B 5583   3.964  -0.465   9.026 -0.0753 -0.0682 -0.3383
  349loPI   C4B 5584   4.101  -0.396   8.615  0.2584 -0.0077  0.2140
  350loPI    C1 5585   1.206  16.154  11.010 -0.3222 -0.0797  0.0758
  350loPI    C2 5586   1.039  16.357  11.311 -0.0286  0.0408  0.1613
  350loPI    C3 5587   1.437  16.348  11.273 -0.0633  0.0543 -0.2428
  350loPI   PO4 5588   0.972  16.088  10.876 -0.1174 -0.2145 -0.1024
  350loPI   GL1 5589   0.920  16.051  10.409  0.0691 -0.4187  0.1330
  350loPI   GL2 5590   0.813  16.404  10.460  0.4111  0.1867  0.3304
  350loPI   C1A 5591   0.635  16.332  10.030  0.4825  0.0819  0.0432
  350loPI   C2A 5592   0.367  16.477   9.636 -0.0329 -0.0201 -0.3230
  350loPI   C3A 5593   0.281  16.553   9.189 -0.2989  0.1958 -0.1681
  350loPI   C4A 5594   0.273  16.671   8.772  0.1289  0.1544 -0.0649
  350loPI   C5A 5595   0.450  16.853   8.350  0.2170  0.2126  0.1468
  350loPI   C6A 5596   0.715  17.190   8.171 -0.0479  0.0859 -0.1557
  350loPI   C1B 5597   1.128  16.534  10.098  0.0883  0.0628  0.0802
  350loPI   C2B 5598   1.239  16.580   9.742  0.1536  0.0507  0.3686
  350loPI   C3B 5599   1.308  16.674   9.254  0.0403 -0.1472 -0.1464
  350loPI   C4B 5600   1.220  16.759   8.935  0.1512 -0.3867 -0.0959
  351loPI    C1 5601  13.389   4.384  10.702 -0.1115 -0.0215  0.0974
  351loPI    C2 5602  13.515   4.007  10.744  0.0106  0.0175  0.0835
  351loPI    C3 5603  13.323   4.188  11.044  0.0733 -0.0105  0.1407
  351loPI   PO4 5604  13.427   4.389  10.401  0.3276 -0.0055 -0.0323
  351loPI   GL1 5605  13.190   4.443  10.073 -0.3606  0.1408 -0.1027
  351loPI   GL2 5606  13.264   4.816  10.138 -0.1847  0.0160  0.1885
  351loPI   C1A 5607  13.067   4.007   9.911  0.0568 -0.0896 -0.0206
  351loPI   C2A 5608  13.121   3.548   9.609 -0.2091  0.0198  0.0612
  351loPI   C3A 5609  13.220   3.596   9.191 -0.3116 -0.0770 -0.2080
  351loPI   C4A 5610  13.255   3.596   8.760  0.0144  0.1100  0.0573
  351loPI   C5A 5611  13.224   3.526   8.348 -0.2185  0.0741 -0.1692
  351loPI   C6A 5612  13.054   3.413   8.031  0.2691  0.1342  0.1350
  351loPI   C1B 5613  13.314   5.078   9.747 -0.1605 -0.0111 -0.1973
  351loPI   C2B 5614  13.137   5.077   9.372  0.0560 -0.1966  0.0848
  351loPI   C3B 5615  13.145   5.250   9.013  0.0100 -0.3937 -0.0421
  351loPI   C4B 5616  12.908   5.150   8.691 -0.0698  0.0770 -0.2780
  352loPI    C1 5617   8.737   5.829  10.741  0.1997  0.1562 -0.0397
  352loPI    C2 5618   8.690   5.848  11.137  0.0267 -0.0997 -0.0449
  352loPI    C3 5619   8.369   5.840  10.899  0.1243 -0.2641 -0.1728
  352loPI   PO4 5620   8.949   5.592  10.669 -0.3336 -0.1191 -0.0730
  352loPI   GL1 5621   9.008   5.391  10.251 -0.0550  0.0547 -0.1076
  352loPI   GL2 5622   8.851   5.181  10.145 -0.0821 -0.0713 -0.0100
  352loPI   C1A 5623   9.062   5.466   9.776  0.0490 -0.0877  0.0678
  352loPI   C2A 5624   9.152   5.400   9.377  0.1118  0.2498  0.2069
  352loPI   C3A 5625   9.115   5.207   8.952 -0.0946 -0.0961 -0.4895
  352loPI   C4A 5626   9.276   5.190   8.533  0.0029  0.0622 -0.0286
  352loPI   C5A 5627   9.116   5.255   8.247 -0.2670  0.4252  0.0503
  352loPI   C6A 5628   8.756   4.976   7.947  0.2658 -0.1453  0.0948
  352loPI   C1B 5629   8.727   5.021   9.750  0.1447 -0.0108 -0.0006
  352loPI   C2B 5630   8.876   4.988   9.388 -0.0296  0.1548  0.0220
  352loPI   C3B 5631   8.785   4.869   8.941  0.1325 -0.0671  0.0145
  352loPI   C4B 5632   8.777   4.911   8.472  0.0296  0.1712 -0.1012
  353loPI    C1 5633  10.329  14.670  10.789  0.0609 -0.0133  0.2227
  353loPI    C2 5634  10.557  14.366  10.663  0.0278 -0.0023  0.1356
  353loPI    C3 5635  10.727  14.699  10.807  0.0661 -0.0089  0.1054
  353loPI   PO4 5636  10.101  14.681  10.611  0.3137  0.3890 -0.0413
  353loPI   GL1 5637  10.110  14.804  10.153  0.4157  0.0117 -0.1096
  353loPI   GL2 5638  10.333  14.496  10.210  0.1129  0.0269 -0.0872
  353loPI   C1A 5639  10.125  14.849   9.728 -0.2320 -0.3661 -0.2002
  353loPI   C2A 5640  10.154  15.013   9.406  0.0100  0.1160 -0.0675
  353loPI   C3A 5641  10.187  14.880   8.992  0.0628 -0.1471  0.1066
  353loPI   C4A 5642  10.214  14.979   8.413 -0.1080  0.4386 -0.1874
  353loPI   C5A 5643  10.073  15.096   7.951  0.1017  0.2619 -0.2057
  353loPI   C6A 5644  10.008  15.251   7.608  0.2522 -0.0947 -0.2456
  353loPI   C1B 5645  10.399  14.449   9.773  0.0427 -0.1737 -0.1274
  353loPI   C2B 5646  10.488  14.469   9.290  0.3290  0.2236  0.1309
  353loPI   C3B 5647  10.470  14.535   8.814  0.1525  0.0308 -0.0487
  353loPI   C4B 5648  10.526  14.483   8.375  0.0410  0.0441 -0.2043
  354loPI    C1 5649   2.999   3.210  10.835 -0.1521  0.0460 -0.1010
  354loPI    C2 5650   2.928   3.556  11.023 -0.0223 -0.0054  0.0453
  354loPI    C3 5651   2.804   3.211  11.184 -0.2711 -0.0185 -0.1665
  354loPI   PO4 5652   2.938   3.241  10.504  0.0145  0.0360 -0.3807
  354loPI   GL1 5653   2.833   3.426  10.185 -0.2190 -0.0228 -0.1953
  354loPI   GL2 5654   2.436   3.345  10.216  0.2334 -0.2335  0.0169
  354loPI   C1A 5655   2.744   3.234   9.842 -0.1687 -0.0905 -0.1730
  354loPI   C2A 5656   2.643   3.225   9.473 -0.1624 -0.0256  0.1086
  354loPI   C3A 5657   2.785   3.155   9.091 -0.0133 -0.0238 -0.0648
  354loPI   C4A 5658   2.718   3.205   8.592 -0.1793  0.2351 -0.0022
  354loPI   C5A 5659   2.619   3.537   8.235 -0.1294 -0.1772 -0.0279
  354loPI   C6A 5660   2.504   3.840   7.931 -0.0361  0.1306  0.0876
  354loPI   C1B 5661   2.331   3.649   9.816  0.1647  0.1478 -0.1227
  354loPI   C2B 5662   2.258   3.606   9.375  0.1615  0.1277 -0.0543
  354loPI   C3B 5663   2.392   3.519   8.902  0.0947  0.4742  0.0684
  354loPI   C4B 5664   2.266   3.400   8.477 -0.1646 -0.2228 -0.2702
  355loPI    C1 5665  17.009   6.545  10.813  0.2109  0.0205  0.0375
  355loPI    C2 5666  16.781   6.515  11.140 -0.0099 -0.1486 -0.1287
  355loPI    C3 5667  17.149   6.670  11.166  0.0992 -0.4581  0.2592
  355loPI   PO4 5668  16.882   6.457  10.609 -0.0997  0.3234  0.0465
  355loPI   GL1 5669  16.658   6.503  10.239  0.3968 -0.3029 -0.0228
  355loPI   GL2 5670  16.577   6.810  10.250 -0.1018 -0.1185  0.3050
  355loPI   C1A 5671  16.520   6.557   9.784 -0.1500  0.0708 -0.1772
  355loPI   C2A 5672  16.572   6.511   9.327  0.0837  0.3523 -0.2626
  355loPI   C3A 5673  16.617   6.504   8.931  0.0536 -0.0964 -0.0501
  355loPI   C4A 5674  16.656   6.555   8.499 -0.2584  0.0951  0.2209
  355loPI   C5A 5675  16.512   6.510   8.179  0.0682 -0.0876  0.1382
  355loPI   C6A 5676  16.471   6.480   7.769  0.0283  0.1402  0.0078
  355loPI   C1B 5677  16.664   7.024   9.853 -0.0383 -0.1372  0.2100
  355loPI   C2B 5678  16.301   6.929   9.480 -0.0217  0.3733 -0.2576
  355loPI   C3B 5679  16.432   6.955   9.061  0.3567 -0.1158 -0.6216
  355loPI   C4B 5680  16.383   6.958   8.584  0.0080 -0.0370 -0.0452
  356loPI    C1 5681  13.747   3.589  10.640  0.0651  0.0390 -0.1046
  356loPI    C2 5682  13.818   3.198  10.686 -0.1842 -0.0048 -0.0744
  356loPI    C3 5683  13.581   3.389  10.945 -0.2073  0.1276 -0.1923
  356loPI   PO4 5684  13.776   3.640  10.426  0.3539 -0.0771  0.1789
  356loPI   GL1 5685  14.035   3.621  10.022  0.1119 -0.1766  0.1437
  356loPI   GL2 5686  14.007   3.911   9.993 -0.0773 -0.2374 -0.1379
  356loPI   C1A 5687  14.008   3.584   9.664  0.1523 -0.0690  0.0713
  356loPI   C2A 5688  14.038   3.643   9.267  0.1013  0.1594  0.1810
  356loPI   C3A 5689  14.096   3.706   8.841 -0.1178 -0.0249  0.0849
  356loPI   C4A 5690  14.207   3.772   8.441 -0.4354  0.0936 -0.0457
  356loPI   C5A 5691  14.356   3.658   8.088 -0.1239  0.1898  0.0713
  356loPI   C6A 5692  14.351   3.312   7.801  0.0505  0.1665  0.2136
  356loPI   C1B 5693  13.865   4.035   9.655 -0.1135  0.0989  0.2405
  356loPI   C2B 5694  13.538   3.795   9.525  0.1565  0.0423 -0.0502
  356loPI   C3B 5695  13.622   3.894   9.065 -0.1174 -0.0299 -0.2434
  356loPI   C4B 5696  13.894   4.201   8.848 -0.2174 -0.0469  0.0002
  357loPI    C1 5697   2.719  16.169  11.020 -0.0082 -0.1021  0.2210
  357loPI    C2 5698   2.736  16.562  10.945  0.1060 -0.1084  0.2122
  357loPI    C3 5699   2.404  16.403  11.101 -0.0392 -0.0525 -0.0341
  357loPI   PO4 5700   2.796  16.087  10.724 -0.1931 -0.0665 -0.1417
  357loPI   GL1 5701   2.694  16.103  10.387 -0.3749 -0.0931 -0.0967
  357loPI   GL2 5702   2.611  16.454  10.309 -0.1632  0.3040  0.3207
  357loPI   C1A 5703   2.635  16.119   9.921  0.0698  0.1095  0.0669
  357loPI   C2A 5704   2.579  16.138   9.413  0.1631 -0.1331  0.1381
  357loPI   C3A 5705   2.494  16.198   8.968 -0.0852  0.1750  0.0575
  357loPI   C4A 5706   2.475  16.138   8.485  0.0745  0.1503 -0.0192
  357loPI   C5A 5707   2.182  16.034   8.031  0.0239 -0.1497  0.2916
  357loPI   C6A 5708   2.228  15.929   7.529 -0.1432 -0.1784  0.0845
  357loPI   C1B 5709   2.519  16.590   9.807  0.1531 -0.3443 -0.1009
  357loPI   C2B 5710   2.414  16.654   9.351  0.0942 -0.2261 -0.1887
  357loPI   C3B 5711   2.352  16.685   8.857  0.0842  0.1219 -0.2500
  357loPI   C4B 5712   2.064  16.369   8.591 -0.0696 -0.0221  0.0769
  358loPI    C1 5713  14.032  13.074  10.917  0.0544  0.1083 -0.0705
  358loPI    C2 5714  14.312  12.968  10.651  0.1200  0.0404  0.0251
  358loPI    C3 5715  14.148  12.692  10.890 -0.1284  0.0557 -0.1240
  358loPI   PO4 5716  13.928  13.248  10.851  0.1963 -0.0489  0.1231
  358loPI   GL1 5717  13.801  13.353  10.501 -0.1508 -0.1368  0.0533
  358loPI   GL2 5718  13.792  13.590  10.340 -0.2394  0.0054 -0.0109
  358loPI   C1A 5719  13.986  13.192  10.101 -0.0891 -0.0684  0.2740
  358loPI   C2A 5720  13.924  13.227   9.648 -0.1865 -0.2105  0.1200
  358loPI   C3A 5721  14.153  13.022   9.281  0.0799 -0.0040 -0.2939
  358loPI   C4A 5722  13.945  13.252   8.877 -0.1262 -0.0938  0.1121
  358loPI   C5A 5723  14.026  13.490   8.518  0.2454  0.0545  0.0595
  358loPI   C6A 5724  14.022  13.801   8.275 -0.0357  0.1814  0.2129
  358loPI   C1B 5725  13.649  13.760   9.894 -0.1908 -0.2116 -0.1267
  358loPI   C2B 5726  13.672  13.633   9.451  0.1447  0.1799 -0.1319
  358loPI   C3B 5727  13.723  13.654   9.010 -0.1458  0.0983  0.0646
  358loPI   C4B 5728  13.683  13.805   8.577 -0.0853  0.4804 -0.2562
  359loPI    C1 5729  11.090   9.767  10.841 -0.1120  0.1138  0.0809
  359loPI    C2 5730  10.967   9.946  11.177 -0.0160  0.1030  0.1221
  359loPI    C3 5731  11.343   9.995  11.050  0.0133 -0.0747  0.1373
  359loPI   PO4 5732  10.940   9.788  10.612  0.1994 -0.2712 -0.0036
  359loPI   GL1 5733  10.964   9.895  10.239  0.1050  0.1617 -0.2090
  359loPI   GL2 5734  10.596   9.970  10.221  0.2534 -0.1872  0.2085
  359loPI   C1A 5735  11.139  10.039   9.779  0.0530 -0.0243 -0.0540
  359loPI   C2A 5736  11.099   9.998   9.288  0.0630  0.2410  0.3939
  359loPI   C3A 5737  11.182   9.959   8.882 -0.3304  0.1056  0.0958
  359loPI   C4A 5738  11.292  10.116   8.553 -0.4372  0.4169 -0.0238
  359loPI   C5A 5739  11.120  10.067   8.188 -0.2400 -0.0133  0.0173
  359loPI   C6A 5740  10.989  10.146   7.871 -0.1515 -0.0642  0.2263
  359loPI   C1B 5741  10.639   9.999   9.649  0.2718 -0.0786 -0.2469
  359loPI   C2B 5742  10.603  10.054   9.215  0.0995  0.0817 -0.0315
  359loPI   C3B 5743  10.585   9.969   8.879 -0.0796 -0.4078  0.3696
  359loPI   C4B 5744  10.710   9.911   8.468  0.0382  0.0480 -0.2884
  360loPI    C1 5745   6.613  18.351  10.772 -0.0493  0.0214 -0.1749
  360loPI    C2 5746   6.888  18.526  11.004 -0.0817  0.1034 -0.1984
  360loPI    C3 5747   6.731  18.174  11.111 -0.1224  0.1580 -0.0776
  360loPI   PO4 5748   6.702  18.358  10.536  0.2570  0.1078  0.1144
  360loPI   GL1 5749   6.704  18.684  10.177 -0.0107  0.0557  0.3929
  360loPI   GL2 5750   6.763  18.456  10.046  0.1540 -0.2539  0.4169
  360loPI   C1A 5751   6.421  18.644   9.731  0.4019 -0.1595 -0.0490
  360loPI   C2A 5752   6.188  18.698   9.347 -0.1402  0.0690  0.0353
  360loPI   C3A 5753   6.204  18.573   8.992 -0.4203 -0.0961  0.0079
  360loPI   C4A 5754   6.238  18.682   8.614  0.1370 -0.2322 -0.2751
  360loPI   C5A 5755   6.306  18.927   8.288 -0.1381 -0.1960 -0.1802
  360loPI   C6A 5756   6.756  19.022   8.104  0.1233 -0.1048 -0.0619
  360loPI   C1B 5757   6.856  18.393   9.645  0.2792 -0.0111 -0.0878
  360loPI   C2B 5758   6.686  18.373   9.188  0.0746  0.1031  0.0378
  360loPI   C3B 5759   6.779  18.368   8.781  0.2353  0.1956  0.1506
  360loPI   C4B 5760   6.565  18.431   8.337 -0.0117 -0.3529  0.1966
  361loPI    C1 5761  14.811   3.766  10.519  0.0203  0.0916 -0.0844
  361loPI    C2 5762  15.035   3.504  10.722 -0.0741  0.0995  0.0310
  361loPI    C3 5763  14.638   3.510  10.773 -0.0768  0.2356 -0.0041
  361loPI   PO4 5764  14.994   3.801  10.288  0.2497 -0.0471 -0.1023
  361loPI   GL1 5765  15.097   3.595   9.901  0.2324 -0.0093  0.1799
  361loPI   GL2 5766  15.484   3.619   9.839 -0.0941 -0.5854 -0.0222
  361loPI   C1A 5767  15.107   3.487   9.555 -0.0566 -0.0854  0.0733
  361loPI   C2A 5768  15.029   3.331   9.152 -0.3531 -0.3495  0.0021
  361loPI   C3A 5769  15.072   3.417   8.748 -0.1681 -0.0748 -0.2636
  361loPI   C4A 5770  15.178   3.449   8.350  0.1884  0.1389  0.0786
  361loPI   C5A 5771  15.307   3.667   8.013  0.0974  0.0155  0.0067
  361loPI   C6A 5772  15.418   4.036   7.883 -0.2541  0.0402  0.0896
  361loPI   C1B 5773  15.709   3.490   9.562 -0.2881 -0.0571 -0.1247
  361loPI   C2B 5774  15.544   3.205   9.285  0.0699 -0.2186  0.3578
  361loPI   C3B 5775  15.578   3.095   8.848  0.1558 -0.1160  0.1696
  361loPI   C4B 5776  15.603   3.110   8.435 -0.0661  0.2899  0.1810
  362loPI    C1 5777  13.235   2.206  10.746  0.3524 -0.0607  0.0852
  362loPI    C2 5778  13.032   2.354  11.057  0.3897  0.1448  0.0134
  362loPI    C3 5779  13.174   1.980  11.070  0.0215  0.0031  0.0713
  362loPI   PO4 5780  13.042   2.360  10.534  0.1532 -0.1624  0.1075
  362loPI   GL1 5781  13.091   2.511  10.181 -0.2668  0.2664  0.3476
  362loPI   GL2 5782  13.387   2.469  10.007 -0.0283  0.0703 -0.1137
  362loPI   C1A 5783  12.891   2.316   9.856  0.0728  0.0543 -0.0317
  362loPI   C2A 5784  12.878   2.198   9.360 -0.3046 -0.0160 -0.0691
  362loPI   C3A 5785  12.904   2.252   9.013  0.1563 -0.0593 -0.0450
  362loPI   C4A 5786  12.866   2.258   8.486 -0.1859 -0.1018 -0.2968
  362loPI   C5A 5787  12.979   2.000   8.250  0.0000  0.0359  0.0285
  362loPI   C6A 5788  13.182   1.858   7.929  0.1894 -0.5379 -0.1754
  362loPI   C1B 5789  13.345   2.512   9.532  0.0499  0.0279  0.2182
  362loPI   C2B 5790  13.312   2.576   9.084 -0.0188  0.1548  0.2877
  362loPI   C3B 5791  13.441   2.561   8.594  0.0756  0.1877 -0.0888
  362loPI   C4B 5792  13.197   2.545   8.202  0.2004  0.1312 -0.0985
  363loPI    C1 5793   8.300   9.058  10.971 -0.0415 -0.0152  0.1773
  363loPI    C2 5794   8.578   9.072  11.258  0.0453  0.0677  0.0894
  363loPI    C3 5795   8.425   8.720  11.145  0.1036  0.0232  0.1485
  363loPI   PO4 5796   8.426   9.154  10.731 -0.0754  0.0970 -0.2004
  363loPI   GL1 5797   8.382   8.941  10.351 -0.1165  0.0796 -0.0273
  363loPI   GL2 5798   8.286   8.579  10.195  0.1245 -0.0840 -0.1741
  363loPI   C1A 5799   8.554   9.009   9.970 -0.1983 -0.1205 -0.0233
  363loPI   C2A 5800   8.600   9.049   9.453  0.2387  0.0080  0.2610
  363loPI   C3A 5801   8.546   9.011   8.999  0.0426 -0.0123  0.1293
  363loPI   C4A 5802   8.652   9.007   8.575 -0.0333 -0.2531  0.1089
  363loPI   C5A 5803   8.564   8.850   8.167 -0.0704  0.1748 -0.0227
  363loPI   C6A 5804   8.853   8.583   7.915 -0.2152 -0.0339  0.0629
  363loPI   C1B 5805   8.378   8.613   9.678 -0.1500  0.4152  0.0513
  363loPI   C2B 5806   8.323   8.608   9.260 -0.1887  0.1815 -0.1370
  363loPI   C3B 5807   8.360   8.587   8.796 -0.2403 -0.2028 -0.0936
  363loPI   C4B 5808   8.327   8.480   8.394  0.1986 -0.1268 -0.0470
  364loPI    C1 5809  15.731   9.676  10.588  0.1073  0.1698  0.2538
  364loPI    C2 5810  15.690  10.017  10.382  0.0782  0.0510  0.0610
  364loPI    C3 5811  15.496   9.968  10.728 -0.0268  0.1761  0.0204
  364loPI   PO4 5812  15.696   9.497  10.404  0.3527 -0.0732 -0.2219
  364loPI   GL1 5813  15.892   9.270  10.086 -0.1286 -0.2085 -0.0413
  364loPI   GL2 5814  16.186   9.307  10.109  0.2818 -0.1719  0.0491
  364loPI   C1A 5815  15.716   9.286   9.656 -0.0610 -0.1000  0.1837
  364loPI   C2A 5816  15.665   9.302   9.204 -0.2623  0.1104 -0.1275
  364loPI   C3A 5817  15.382   9.059   8.985  0.0458 -0.2141 -0.1055
  364loPI   C4A 5818  15.075   8.835   8.815 -0.2938 -0.2578 -0.2099
  364loPI   C5A 5819  14.851   8.909   8.499 -0.1167 -0.1620  0.0781
  364loPI   C6A 5820  14.645   9.125   8.097  0.0731  0.2458 -0.0557
  364loPI   C1B 5821  16.194   9.309   9.666  0.1067  0.0063  0.1234
  364loPI   C2B 5822  16.154   9.421   9.312 -0.0573  0.0234  0.0600
  364loPI   C3B 5823  16.125   9.274   9.066  0.0798  0.1174 -0.0035
  364loPI   C4B 5824  15.815   9.127   8.775  0.0522  0.0644  0.2983
  365loPI    C1 5825   5.906  15.155  10.858 -0.3729  0.1522  0.2040
  365loPI    C2 5826   6.186  15.157  11.144  0.0197 -0.0648 -0.1652
  365loPI    C3 5827   6.066  15.501  10.979  0.0115  0.0358  0.0472
  365loPI   PO4 5828   5.988  15.021  10.717 -0.4895 -0.0852 -0.0173
  365loPI   GL1 5829   6.048  14.664  10.374  0.0119 -0.2594 -0.2374
  365loPI   GL2 5830   5.770  14.825  10.259  0.2832 -0.2136 -0.1715
  365loPI   C1A 5831   6.189  14.461  10.019 -0.3237  0.0146  0.0562
  365loPI   C2A 5832   6.204  14.437   9.569 -0.1945 -0.0405  0.1641
  365loPI   C3A 5833   6.077  14.449   9.112  0.1008 -0.2241 -0.4207
  365loPI   C4A 5834   6.130  14.284   8.694  0.0614 -0.2323 -0.0705
  365loPI   C5A 5835   6.240  14.366   8.298  0.0791 -0.0567 -0.4286
  365loPI   C6A 5836   6.508  14.700   8.044 -0.0294 -0.2216 -0.3039
  365loPI   C1B 5837   5.737  14.597   9.906 -0.1243  0.1471 -0.2080
  365loPI   C2B 5838   5.646  14.568   9.529 -0.1695  0.1390  0.3832
  365loPI   C3B 5839   5.629  14.189   9.197  0.0983 -0.1666 -0.1352
  365loPI   C4B 5840   5.769  13.991   8.783 -0.2372 -0.2651  0.2673
  366loPI    C1 5841  18.370   3.362  10.538 -0.0741 -0.0065 -0.1338
  366loPI    C2 5842  18.273   3.587  10.854 -0.0994 -0.0945 -0.0786
  366loPI    C3 5843  18.542   3.294  10.892  0.0116 -0.0064 -0.1750
  366loPI   PO4 5844  18.206   3.310  10.423 -0.1758 -0.0084  0.0012
  366loPI   GL1 5845  17.956   3.295  10.126  0.0054 -0.1128 -0.0713
  366loPI   GL2 5846  18.184   3.564   9.997  0.1513 -0.1301 -0.3526
  366loPI   C1A 5847  18.219   3.111   9.805  0.0829  0.4836 -0.0040
  366loPI   C2A 5848  18.314   3.003   9.312  0.0694  0.1058 -0.2764
  366loPI   C3A 5849  18.510   3.057   8.958  0.1376  0.1450  0.0892
  366loPI   C4A 5850  18.467   3.294   8.624  0.1107 -0.1941 -0.2083
  366loPI   C5A 5851  18.642   3.247   8.145 -0.0549 -0.0198  0.2504
  366loPI   C6A 5852  18.818   2.882   7.893 -0.1417 -0.2034 -0.1164
  366loPI   C1B 5853  18.001   3.398   9.475  0.2942 -0.0099 -0.3435
  366loPI   C2B 5854  17.941   3.188   9.020  0.2801 -0.0928 -0.1042
  366loPI   C3B 5855  17.911   3.138   8.606 -0.1282 -0.0107 -0.0429
  366loPI   C4B 5856  18.078   3.119   8.264  0.1049  0.0248  0.0595
  367loPI    C1 5857  15.316   7.312  10.620 -0.0091 -0.1038 -0.0286
  367loPI    C2 5858  15.236   7.387  11.005 -0.2032 -0.0108 -0.0856
  367loPI    C3 5859  15.289   7.010  10.882  0.0524 -0.0274  0.0665
  367loPI   PO4 5860  15.483   7.558  10.566 -0.1124 -0.0372 -0.2065
  367loPI   GL1 5861  15.435   7.756  10.253 -0.1442 -0.1854 -0.0626
  367loPI   GL2 5862  15.164   7.758  10.130  0.1356  0.2377  0.0309
  367loPI   C1A 5863  15.568   7.899   9.900 -0.1816 -0.1799  0.2234
  367loPI   C2A 5864  15.615   8.035   9.462 -0.1684 -0.0521 -0.3228
  367loPI   C3A 5865  15.748   8.160   9.029  0.0662  0.0784 -0.2972
  367loPI   C4A 5866  15.687   8.158   8.583 -0.0001 -0.0285  0.3067
  367loPI   C5A 5867  15.924   8.185   8.131 -0.2535 -0.1629 -0.2560
  367loPI   C6A 5868  16.089   8.385   7.704  0.2384 -0.3281 -0.0944
  367loPI   C1B 5869  15.158   7.866   9.637 -0.1185 -0.1567  0.1404
  367loPI   C2B 5870  15.178   8.039   9.276  0.2294  0.1384  0.0150
  367loPI   C3B 5871  15.269   7.914   8.796 -0.0876  0.2439 -0.0851
  367loPI   C4B 5872  14.991   8.012   8.529 -0.0520  0.1220 -0.0142
  368loPI    C1 5873   3.767  16.228  11.277 -0.1898 -0.1206  0.0396
  368loPI    C2 5874   3.445  16.377  11.462 -0.0505 -0.0241  0.2070
  368loPI    C3 5875   3.785  16.588  11.450 -0.0247 -0.0780 -0.0639
  368loPI   PO4 5876   3.590  16.121  11.036 -0.2746  0.1860 -0.1888
  368loPI   GL1 5877   3.590  15.849  10.656 -0.1259 -0.3480  0.0346
  368loPI   GL2 5878   3.283  16.029  10.568 -0.1197 -0.2114  0.0784
  368loPI   C1A 5879   3.602  15.728  10.232 -0.1077 -0.0598 -0.1171
  368loPI   C2A 5880   3.587  15.672   9.856 -0.1919 -0.1534  0.1929
  368loPI   C3A 5881   3.559  15.693   9.400 -0.4256 -0.1413  0.0017
  368loPI   C4A 5882   3.430  15.770   8.919  0.2227  0.0974 -0.0104
  368loPI   C5A 5883   3.363  15.892   8.485 -0.0028 -0.1155 -0.2046
  368loPI   C6A 5884   3.457  15.971   8.112 -0.0628  0.2557  0.0336
  368loPI   C1B 5885   3.432  16.188  10.198  0.2545 -0.1673  0.1912
  368loPI   C2B 5886   3.490  16.262   9.696 -0.1403  0.1661  0.0732
  368loPI   C3B 5887   3.472  16.220   9.254 -0.0420  0.2086  0.1000
  368loPI   C4B 5888   3.396  16.298   8.802  0.0131 -0.0350 -0.0481
  369loPI    C1 5889   4.719   3.570  10.916  0.0254  0.1830 -0.1259
  369loPI    C2 5890   4.780   3.732  11.276 -0.0620 -0.0510 -0.0036
  369loPI    C3 5891   5.064   3.505  11.109 -0.1367 -0.1850  0.0500
  369loPI   PO4 5892   4.714   3.758  10.703 -0.1512 -0.3553  0.2453
  369loPI   GL1 5893   4.715   3.506  10.411  0.0919 -0.0170  0.0298
  369loPI   GL2 5894   5.004   3.439  10.482  0.0067  0.0303  0.1697
  369loPI   C1A 5895   4.488   3.444  10.010  0.4940  0.2359 -0.3398
  369loPI   C2A 5896   4.459   3.596   9.645 -0.0816 -0.1074  0.0228
  369loPI   C3A 5897   4.361   3.411   9.241  0.2077 -0.0285 -0.1076
  369loPI   C4A 5898   4.138   3.381   8.918  0.2386 -0.1222 -0.1994
  369loPI   C5A 5899   4.018   3.552   8.564 -0.2344  0.0039  0.0169
  369loPI   C6A 5900   4.014   3.831   8.169 -0.1355  0.1371 -0.1654
  369loPI   C1B 5901   5.090   3.472  10.024  0.1432 -0.0986 -0.1294
  369loPI   C2B 5902   4.969   3.525   9.559  0.0686 -0.4639  0.0374
  369loPI   C3B 5903   4.817   3.469   9.188 -0.0196 -0.0294 -0.0113
  369loPI   C4B 5904   4.693   3.563   8.865  0.1366 -0.1779 -0.1015
  370loPI    C1 5905   3.560   0.779  10.760  0.0691  0.0383  0.0759
  370loPI    C2 5906   3.817   1.068  10.659  0.2166 -0.1091  0.0244
  370loPI    C3 5907   3.464   1.162  10.823  0.1474  0.1130 -0.2436
  370loPI   PO4 5908   3.611   0.635  10.601  0.0077  0.3445 -0.0647
  370loPI   GL1 5909   3.663   0.649  10.189  0.0710 -0.1761  0.2561
  370loPI   GL2 5910   3.948   0.406  10.098 -0.0408  0.1375  0.2105
  370loPI   C1A 5911   3.560   0.479   9.833  0.1219 -0.1070 -0.0540
  370loPI   C2A 5912   3.606   0.243   9.504  0.0942  0.0777 -0.2283
  370loPI   C3A 5913   3.418   0.268   9.069  0.3801 -0.1305 -0.0541
  370loPI   C4A 5914   3.400   0.285   8.689 -0.0350 -0.0746 -0.1632
  370loPI   C5A 5915   3.616   0.503   8.468  0.1768  0.0746  0.1501
  370loPI   C6A 5916   3.778   0.848   8.402 -0.0651  0.0232  0.1753
  370loPI   C1B 5917   4.068   0.147   9.660 -0.2720  0.0894 -0.3820
  370loPI   C2B 5918   3.978  -0.001   9.271 -0.1445  0.0769  0.2654
  370loPI   C3B 5919   3.893   0.086   8.828 -0.1250 -0.1864  0.0160
  370loPI   C4B 5920   3.938   0.062   8.406  0.1460 -0.1790  0.1069
  371loPI    C1 5921   9.074  15.668  10.716  0.1449 -0.0168  0.2032
  371loPI    C2 5922   8.734  15.458  10.740  0.0652  0.1036  0.1400
  371loPI    C3 5923   8.790  15.775  10.977  0.0461  0.2065  0.0074
  371loPI   PO4 5924   9.219  15.606  10.451 -0.2538 -0.2016 -0.0821
  371loPI   GL1 5925   9.557  15.202  10.298  0.1582  0.2538  0.1267
  371loPI   GL2 5926   9.346  15.225  10.131  0.2283 -0.1639 -0.0474
  371loPI   C1A 5927   9.878  15.221   9.972  0.0867 -0.1056  0.1001
  371loPI   C2A 5928   9.839  15.392   9.547 -0.2412  0.0475  0.0274
  371loPI   C3A 5929   9.969  15.413   9.159 -0.0703  0.0068 -0.2011
  371loPI   C4A 5930   9.961  15.403   8.801  0.1969  0.2261 -0.1224
  371loPI   C5A 5931   9.996  15.407   8.373 -0.2724  0.3154 -0.0272
  371loPI   C6A 5932   9.702  15.531   8.055  0.3353  0.0068 -0.2339
  371loPI   C1B 5933   9.335  15.356   9.745  0.0967 -0.1332  0.0209
  371loPI   C2B 5934   9.344  15.248   9.329  0.0874 -0.0176 -0.2579
  371loPI   C3B 5935   9.439  15.385   8.848  0.1944  0.1002 -0.0782
  371loPI   C4B 5936   9.422  15.374   8.457 -0.3223  0.1825 -0.0231
  372loPI    C1 5937  13.381  13.733  10.647  0.1875  0.2075 -0.0494
  372loPI    C2 5938  13.384  13.370  10.816 -0.2747  0.1927 -0.0592
  372loPI    C3 5939  13.661  13.640  10.917 -0.1098 -0.0591  0.1758
  372loPI   PO4 5940  13.200  13.890  10.688 -0.0190 -0.0603 -0.0291
  372loPI   GL1 5941  13.076  14.105  10.354 -0.0939 -0.3252 -0.1575
  372loPI   GL2 5942  13.238  13.765  10.162 -0.1869  0.1836 -0.0515
  372loPI   C1A 5943  12.822  14.045   9.908  0.2907 -0.1723  0.0482
  372loPI   C2A 5944  12.888  14.023   9.481 -0.0961  0.1287 -0.0732
  372loPI   C3A 5945  12.846  14.036   8.982 -0.0115  0.3935 -0.2103
  372loPI   C4A 5946  12.960  14.004   8.621  0.2459  0.0775 -0.0056
  372loPI   C5A 5947  12.984  14.064   8.188 -0.1093  0.3353 -0.2028
  372loPI   C6A 5948  13.071  13.669   7.934  0.0470  0.0724  0.0078
  372loPI   C1B 5949  13.194  13.689   9.732  0.0080 -0.0707 -0.2150
  372loPI   C2B 5950  13.222  13.655   9.312  0.0684  0.3309  0.0389
  372loPI   C3B 5951  13.226  13.659   8.882  0.0727  0.0460 -0.2986
  372loPI   C4B 5952  13.196  13.611   8.417 -0.1777  0.1472  0.1635
  373loPI    C1 5953  11.385   3.371  10.856  0.0158 -0.0894  0.0124
  373loPI    C2 5954  11.021   3.235  10.954 -0.1269  0.2765  0.0093
  373loPI    C3 5955  11.257   3.395  11.235  0.1367 -0.1826  0.0596
  373loPI   PO4 5956  11.525   3.212  10.719  0.4247 -0.2323 -0.1221
  373loPI   GL1 5957  11.227   3.005  10.418 -0.2427  0.1663  0.3922
  373loPI   GL2 5958  11.453   2.744  10.580  0.0676 -0.1238 -0.2166
  373loPI   C1A 5959  11.362   3.042  10.048  0.0039  0.0016 -0.0546
  373loPI   C2A 5960  11.332   2.859   9.712 -0.2417  0.1090  0.1179
  373loPI   C3A 5961  11.461   2.914   9.285 -0.0802  0.1480 -0.0103
  373loPI   C4A 5962  11.473   2.943   8.838 -0.2051 -0.0046 -0.0023
  373loPI   C5A 5963  11.658   2.769   8.499 -0.1327 -0.0368  0.2984
  373loPI   C6A 5964  12.073   2.715   8.500  0.2185  0.0324 -0.2922
  373loPI   C1B 5965  11.731   2.735  10.173 -0.0780  0.1299 -0.1023
  373loPI   C2B 5966  11.859   2.575   9.792 -0.1387  0.0682  0.0829
  373loPI   C3B 5967  11.910   2.642   9.428  0.1609 -0.1040 -0.3422
  373loPI   C4B 5968  11.924   2.722   8.969 -0.0969 -0.0355 -0.2321
  374loPI    C1 5969   8.515   6.434  10.955 -0.0123 -0.0050  0.0862
  374loPI    C2 5970   8.725   6.329  11.279  0.2999 -0.0365 -0.1211
  374loPI    C3 5971   8.624   6.712  11.222  0.0386 -0.0644  0.1276
  374loPI   PO4 5972   8.632   6.291  10.748 -0.2238  0.3295 -0.1008
  374loPI   GL1 5973   8.761   6.314  10.348  0.1165 -0.2473  0.0190
  374loPI   GL2 5974   9.048   6.274  10.434 -0.2854  0.1837 -0.2013
  374loPI   C1A 5975   8.651   6.300   9.953 -0.0355  0.1088 -0.1810
  374loPI   C2A 5976   8.577   6.344   9.496 -0.0072 -0.0037  0.2935
  374loPI   C3A 5977   8.597   6.412   9.065  0.0619  0.4509  0.2317
  374loPI   C4A 5978   8.581   6.492   8.676  0.0937  0.0015 -0.1044
  374loPI   C5A 5979   8.571   6.437   8.252 -0.2585 -0.0082  0.1153
  374loPI   C6A 5980   8.609   6.441   7.768  0.2661  0.1095  0.1451
  374loPI   C1B 5981   9.131   6.226  10.013  0.1054 -0.0293  0.0394
  374loPI   C2B 5982   9.136   6.305   9.494 -0.0937  0.0979  0.0729
  374loPI   C3B 5983   9.173   6.403   9.056 -0.3421 -0.1961  0.1687
  374loPI   C4B 5984   9.027   6.232   8.773  0.2327  0.0750 -0.2918
  375loPI    C1 5985  15.058   8.029  10.528 -0.2708 -0.0383 -0.0527
  375loPI    C2 5986  14.962   7.650  10.608 -0.0465 -0.0311  0.2693
  375loPI    C3 5987  15.115   7.882  10.895  0.2894  0.1555 -0.0526
  375loPI   PO4 5988  14.864   8.174  10.402  0.0424 -0.1139 -0.0456
  375loPI   GL1 5989  14.583   8.080  10.050  0.2133 -0.0982 -0.3465
  375loPI   GL2 5990  14.316   7.936   9.958  0.1445 -0.0254  0.0496
  375loPI   C1A 5991  14.734   8.069   9.638  0.1305  0.1021  0.1358
  375loPI   C2A 5992  14.715   8.001   9.282 -0.1827  0.0763  0.1058
  375loPI   C3A 5993  14.680   7.946   8.950  0.0009  0.1656 -0.3397
  375loPI   C4A 5994  14.630   7.641   8.584  0.0385 -0.0770  0.0603
  375loPI   C5A 5995  15.140   7.573   8.401  0.2025  0.0967 -0.0910
  375loPI   C6A 5996  15.604   7.604   8.238  0.1233  0.0948 -0.3976
  375loPI   C1B 5997  14.218   7.843   9.499  0.0002  0.1957  0.2212
  375loPI   C2B 5998  14.174   7.823   9.120  0.0190  0.2155 -0.2789
  375loPI   C3B 5999  14.084   7.712   8.676 -0.1654 -0.1567  0.0494
  375loPI   C4B 6000  14.244   7.729   8.294  0.2285 -0.0527  0.0213
  376loPI    C1 6001   1.036   0.520  10.602 -0.0775 -0.2764  0.0521
  376loPI    C2 6002   0.858   0.785  10.843 -0.0090 -0.0953 -0.0942
  376loPI    C3 6003   1.170   0.573  10.975 -0.0424 -0.0784  0.0125
  376loPI   PO4 6004   0.800   0.576  10.390 -0.1623 -0.3599  0.1218
  376loPI   GL1 6005   0.487   0.303  10.257  0.3213 -0.5136 -0.1216
  376loPI   GL2 6006   0.263   0.584  10.194 -0.1349 -0.1490  0.0036
  376loPI   C1A 6007   0.482   0.210   9.837  0.1217 -0.0520  0.0829
  376loPI   C2A 6008   0.435   0.128   9.339 -0.0348 -0.1241  0.1546
  376loPI   C3A 6009   0.421   0.146   8.825 -0.0052  0.1417 -0.0547
  376loPI   C4A 6010   0.436   0.169   8.403  0.0785  0.0725 -0.3147
  376loPI   C5A 6011   0.882   0.255   8.110  0.0858 -0.0017  0.1658
  376loPI   C6A 6012   1.228   0.564   8.016  0.3571 -0.0113  0.0846
  376loPI   C1B 6013   0.328   0.695   9.722 -0.0807 -0.0283 -0.0623
  376loPI   C2B 6014   0.326   0.663   9.281 -0.2432 -0.1358 -0.0861
  376loPI   C3B 6015   0.209   0.627   8.854  0.0851 -0.0482 -0.1783
  376loPI   C4B 6016   0.374   0.671   8.425  0.3016  0.2493 -0.0766
  377loPI    C1 6017   3.612   9.175  10.575 -0.0808 -0.0019  0.0975
  377loPI    C2 6018   3.799   9.342  10.887  0.0169  0.1314 -0.0309
  377loPI    C3 6019   3.399   9.339  10.872  0.0045 -0.1465  0.2406
  377loPI   PO4 6020   3.814   9.126  10.438 -0.0897 -0.0956  0.0325
  377loPI   GL1 6021   3.913   9.171   9.992  0.1093  0.0262 -0.0632
  377loPI   GL2 6022   4.007   9.422  10.002 -0.0008  0.4353  0.5045
  377loPI   C1A 6023   3.828   8.971   9.615  0.1124 -0.4209  0.3079
  377loPI   C2A 6024   3.835   8.917   9.203 -0.0725 -0.2033  0.2835
  377loPI   C3A 6025   3.846   9.011   8.709  0.0252  0.2442 -0.0390
  377loPI   C4A 6026   3.683   8.984   8.341  0.1256  0.1928  0.4924
  377loPI   C5A 6027   3.574   9.003   7.921 -0.1615  0.0351 -0.0136
  377loPI   C6A 6028   3.555   9.335   7.637 -0.3077  0.1338 -0.0276
  377loPI   C1B 6029   4.112   9.377   9.590 -0.1904 -0.1846 -0.0513
  377loPI   C2B 6030   4.572   9.450   9.365 -0.1014 -0.0425 -0.1219
  377loPI   C3B 6031   4.759   9.412   8.891  0.0712 -0.0444  0.1519
  377loPI   C4B 6032   4.647   9.479   8.504  0.1678  0.2522  0.1081
  378loPI    C1 6033  17.105  15.516  10.626 -0.0601 -0.0293  0.2260
  378loPI    C2 6034  17.387  15.799  10.605 -0.1947  0.0939  0.0422
  378loPI    C3 6035  17.371  15.555  10.922  0.1903  0.0078 -0.0003
  378loPI   PO4 6036  17.128  15.384  10.375  0.1257  0.1419 -0.1541
  378loPI   GL1 6037  17.318  15.289  10.060  0.0390 -0.0479  0.0527
  378loPI   GL2 6038  17.493  15.096  10.135 -0.0569 -0.0112 -0.0368
  378loPI   C1A 6039  17.547  15.126   9.583  0.0020  0.2617 -0.2452
  378loPI   C2A 6040  17.568  15.143   9.167  0.2743 -0.2423  0.0670
  378loPI   C3A 6041  17.540  15.082   8.730  0.0453 -0.0115 -0.1812
  378loPI   C4A 6042  17.478  14.895   8.276 -0.1988 -0.0863 -0.2046
  378loPI   C5A 6043  17.183  15.017   7.882 -0.2592  0.0286 -0.0840
  378loPI   C6A 6044  16.937  15.301   7.683  0.0698  0.2670 -0.6985
  378loPI   C1B 6045  17.834  15.275  10.040  0.1878  0.0893 -0.0373
  378loPI   C2B 6046  17.952  15.445   9.663 -0.1140 -0.0078 -0.0691
  378loPI   C3B 6047  17.904  15.484   9.250  0.2081 -0.0712 -0.0998
  378loPI   C4B 6048  17.983  15.507   8.796  0.2031  0.0617 -0.0527
  379loPI    C1 6049   7.058   1.560  10.916 -0.0625  0.5114  0.2078
  379loPI    C2 6050   6.873   1.228  11.043  0.2364  0.2539 -0.0122
  379loPI    C3 6051   6.784   1.583  11.206  0.0098  0.0491  0.3206
  379loPI   PO4 6052   7.119   1.477  10.618  0.1955  0.2100  0.0165
  379loPI   GL1 6053   7.261   1.556  10.234  0.0113 -0.0611  0.1221
  379loPI   GL2 6054   7.007   1.756  10.216 -0.0526  0.0726 -0.0406
  379loPI   C1A 6055   7.330   1.348   9.838 -0.2480 -0.1958  0.0291
  379loPI   C2A 6056   7.332   1.383   9.412 -0.4405 -0.2251  0.0486
  379loPI   C3A 6057   7.574   1.331   8.983  0.1527  0.2200 -0.2265
  379loPI   C4A 6058   7.851   1.388   8.621  0.0516  0.1112 -0.1644
  379loPI   C5A 6059   7.775   1.696   8.354  0.2444  0.0933  0.2643
  379loPI   C6A 6060   7.846   1.747   7.975 -0.0895  0.0459  0.0128
  379loPI   C1B 6061   6.846   1.811   9.913  0.2869 -0.0883  0.2559
  379loPI   C2B 6062   6.930   2.222   9.747 -0.0483 -0.1358 -0.3682
  379loPI   C3B 6063   6.805   2.393   9.418 -0.2814 -0.1377  0.1215
  379loPI   C4B 6064   6.559   2.598   9.127  0.0223 -0.1752 -0.2032
  380loPI    C1 6065  10.713  12.465  10.758  0.0211 -0.0215 -0.2158
  380loPI    C2 6066  10.383  12.245  10.812 -0.0105  0.0649 -0.0493
  380loPI    C3 6067  10.586  12.381  11.128  0.0125  0.2697 -0.1506
  380loPI   PO4 6068  10.774  12.470  10.460  0.0034 -0.1022 -0.0503
  380loPI   GL1 6069  10.636  12.800  10.140  0.0607  0.0936  0.2947
  380loPI   GL2 6070  10.553  12.475   9.975  0.3580 -0.2479  0.1061
  380loPI   C1A 6071  10.525  12.853   9.682 -0.1240  0.1150 -0.1289
  380loPI   C2A 6072  10.600  12.677   9.335  0.1555  0.1107 -0.0828
  380loPI   C3A 6073  10.657  12.660   8.886 -0.1450  0.1157  0.2392
  380loPI   C4A 6074  10.581  12.607   8.481 -0.1106 -0.0575  0.3377
  380loPI   C5A 6075  10.771  12.458   8.054 -0.0186 -0.1867  0.0990
  380loPI   C6A 6076  10.614  12.421   7.611 -0.0209  0.0017  0.0413
  380loPI   C1B 6077  10.772  12.344   9.747  0.2385  0.0653 -0.0970
  380loPI   C2B 6078  10.880  12.180   9.367 -0.1368  0.0717 -0.0609
  380loPI   C3B 6079  10.933  12.178   8.979 -0.1841 -0.2485 -0.1732
  380loPI   C4B 6080  10.887  12.160   8.547  0.2568 -0.3011 -0.2328
  381loPI    C1 6081   0.592   5.142  10.641 -0.3258  0.0627  0.4822
  381loPI    C2 6082   0.975   5.257  10.625 -0.3264  0.0105 -0.3435
  381loPI    C3 6083   0.876   4.919  10.813 -0.0095  0.1497  0.0895
  381loPI   PO4 6084   0.538   5.159  10.388  0.2137  0.0942  0.0447
  381loPI   GL1 6085   0.489   5.201   9.874 -0.1476  0.0674  0.2388
  381loPI   GL2 6086   0.338   5.454   9.913 -0.2593 -0.0217  0.0751
  381loPI   C1A 6087   0.561   5.230   9.499  0.1796  0.0549 -0.1736
  381loPI   C2A 6088   0.447   5.344   9.017  0.0324  0.1439  0.5518
  381loPI   C3A 6089   0.256   5.511   8.726 -0.3786  0.0907 -0.1706
  381loPI   C4A 6090   0.141   5.515   8.313  0.1398  0.1718 -0.1151
  381loPI   C5A 6091  -0.238   5.572   8.070  0.0740 -0.2887  0.0778
  381loPI   C6A 6092  -0.683   5.368   8.120 -0.0240 -0.2257 -0.0138
  381loPI   C1B 6093   0.137   5.504   9.517  0.0268  0.0736  0.0940
  381loPI   C2B 6094  -0.057   5.613   9.072  0.1519 -0.0300  0.0964
  381loPI   C3B 6095  -0.281   5.473   8.672 -0.0351  0.1163  0.5347
  381loPI   C4B 6096  -0.273   5.165   8.336  0.0451  0.1933  0.0336
  382loPI    C1 6097  12.229  15.571  10.982 -0.1138 -0.0030 -0.0664
  382loPI    C2 6098  12.237  15.348  11.314 -0.2509 -0.0559 -0.0978
  382loPI    C3 6099  12.025  15.687  11.306  0.0970  0.1696  0.0069
  382loPI   PO4 6100  12.242  15.479  10.782  0.0563 -0.1205 -0.1136
  382loPI   GL1 6101  12.150  15.356  10.369 -0.2372  0.0223  0.0273
  382loPI   GL2 6102  12.441  15.516  10.225  0.0455  0.0148  0.0176
  382loPI   C1A 6103  12.026  15.511   9.942  0.0354 -0.0341 -0.1324
  382loPI   C2A 6104  12.012  15.283   9.575 -0.0523  0.0232  0.0017
  382loPI   C3A 6105  12.089  15.256   9.095 -0.0305 -0.3438  0.1233
  382loPI   C4A 6106  12.057  15.298   8.646 -0.0841  0.2911  0.0459
  382loPI   C5A 6107  11.994  15.392   8.170  0.3326  0.1819  0.0941
  382loPI   C6A 6108  11.854  15.839   7.944 -0.2837  0.2713  0.0111
  382loPI   C1B 6109  12.329  15.115   9.971  0.0879  0.1481  0.0197
  382loPI   C2B 6110  12.267  14.844   9.617 -0.2395 -0.0275  0.5575
  382loPI   C3B 6111  12.379  14.900   9.178 -0.0910 -0.1633  0.0821
  382loPI   C4B 6112  12.249  14.838   8.752 -0.2777 -0.3049 -0.0975
  383loPI    C1 6113  11.192   5.640  10.777 -0.2164  0.0252 -0.0676
  383loPI    C2 6114  11.278   6.000  10.929  0.0974 -0.0332 -0.1010
  383loPI    C3 6115  11.147   5.708  11.169 -0.0022  0.0550 -0.0471
  383loPI   PO4 6116  11.117   5.704  10.524 -0.2139 -0.2570 -0.0419
  383loPI   GL1 6117  11.167   6.072  10.344  0.0424 -0.1394  0.1060
  383loPI   GL2 6118  11.342   5.863  10.092 -0.0827  0.0219 -0.1221
  383loPI   C1A 6119  10.959   6.102   9.924 -0.0665 -0.0114  0.1851
  383loPI   C2A 6120  10.998   5.970   9.482 -0.3974  0.2651  0.0306
  383loPI   C3A 6121  10.956   5.910   9.063 -0.0234  0.2679  0.0222
  383loPI   C4A 6122  10.984   5.586   8.870  0.0793 -0.2410  0.1996
  383loPI   C5A 6123  11.275   5.443   8.530 -0.0177 -0.0121 -0.0751
  383loPI   C6A 6124  11.515   5.179   8.250  0.1291 -0.1559  0.1506
  383loPI   C1B 6125  11.297   5.631   9.799 -0.1848  0.3231  0.2495
  383loPI   C2B 6126  11.228   5.532   9.341  0.4216  0.0424  0.2635
  383loPI   C3B 6127  11.465   5.433   8.970 -0.0836 -0.2234 -0.2937
  383loPI   C4B 6128  11.709   5.299   8.703 -0.2081 -0.0689  0.0364
  384loPI    C1 6129  16.386   6.275  10.793  0.1116  0.1458  0.1920
  384loPI    C2 6130  16.131   6.415  11.067  0.0470  0.2075  0.1011
  384loPI    C3 6131  16.429   6.173  11.177 -0.0790  0.0963  0.2010
  384loPI   PO4 6132  16.308   6.457  10.597  0.0617 -0.0212  0.3157
  384loPI   GL1 6133  16.128   6.445  10.244  0.0826 -0.2231  0.1925
  384loPI   GL2 6134  16.020   6.606  10.246  0.1454  0.3863  0.0170
  384loPI   C1A 6135  16.051   6.519   9.746  0.0378  0.0577 -0.0166
  384loPI   C2A 6136  16.107   6.398   9.350  0.1024 -0.1057 -0.0555
  384loPI   C3A 6137  16.164   6.358   8.937 -0.0573 -0.4421  0.0375
  384loPI   C4A 6138  16.043   6.533   8.568  0.2579  0.0891  0.4008
  384loPI   C5A 6139  16.031   6.706   8.175  0.3323 -0.0139  0.5137
  384loPI   C6A 6140  16.040   6.826   7.741 -0.0399 -0.3186  0.1443
  384loPI   C1B 6141  16.079   6.947   9.987  0.1148  0.0411 -0.1155
  384loPI   C2B 6142  15.893   7.162   9.709 -0.1878  0.1656  0.1607
  384loPI   C3B 6143  15.864   7.253   9.300  0.1818 -0.0470  0.2635
  384loPI   C4B 6144  16.085   7.410   8.876  0.0179 -0.1088  0.0397
  385loPI    C1 6145   2.306   8.329  10.742  0.0942  0.0022  0.1871
  385loPI    C2 6146   2.060   8.480  11.018 -0.0605  0.0372  0.0319
  385loPI    C3 6147   2.014   8.103  10.894 -0.0241  0.0380  0.0159
  385loPI   PO4 6148   2.332   8.426  10.496  0.0651  0.0489  0.1055
  385loPI   GL1 6149   2.393   8.351  10.044 -0.1510 -0.1381  0.1064
  385loPI   GL2 6150   2.317   8.072   9.945 -0.1134  0.0046 -0.0045
  385loPI   C1A 6151   2.615   8.377   9.752  0.2670 -0.0550  0.0104
  385loPI   C2A 6152   2.637   8.511   9.371  0.1437  0.3121  0.3395
  385loPI   C3A 6153   2.542   8.435   9.012 -0.2037  0.1316  0.1116
  385loPI   C4A 6154   2.631   8.373   8.590  0.4389 -0.1022 -0.1462
  385loPI   C5A 6155   2.730   8.380   8.140  0.0234  0.0112 -0.0480
  385loPI   C6A 6156   3.033   8.287   7.951  0.1939 -0.1449 -0.1258
  385loPI   C1B 6157   2.333   8.043   9.434  0.3518  0.1129 -0.2086
  385loPI   C2B 6158   2.187   8.014   9.039 -0.2471 -0.0011  0.1092
  385loPI   C3B 6159   2.123   8.236   8.671 -0.1320  0.3656 -0.1084
  385loPI   C4B 6160   2.215   8.580   8.329 -0.0295 -0.0913 -0.2236
  386loPI    C1 6161   7.479   7.773  10.897  0.1452  0.0338  0.0662
  386loPI    C2 6162   7.643   7.537  11.175 -0.0486 -0.1444  0.0318
  386loPI    C3 6163   7.281   7.696  11.236  0.1447  0.2734  0.1219
  386loPI   PO4 6164   7.409   7.584  10.719  0.1395 -0.0196  0.2788
  386loPI   GL1 6165   7.655   7.570  10.356  0.2912  0.0820  0.1908
  386loPI   GL2 6166   7.833   7.845  10.282  0.0015  0.2941  0.3665
  386loPI   C1A 6167   7.771   7.636   9.785 -0.0309  0.0109 -0.2164
  386loPI   C2A 6168   7.837   7.673   9.307 -0.4352 -0.0646 -0.0554
  386loPI   C3A 6169   7.839   7.704   8.893 -0.0233 -0.0001 -0.1219
  386loPI   C4A 6170   7.824   7.699   8.435 -0.2663  0.0738  0.2048
  386loPI   C5A 6171   7.831   7.427   8.120 -0.0137  0.2868  0.3726
  386loPI   C6A 6172   7.902   7.187   7.782 -0.1269 -0.2846 -0.1728
  386loPI   C1B 6173   8.017   8.198   9.916  0.0894 -0.1246 -0.3636
  386loPI   C2B 6174   8.158   8.087   9.436 -0.0297  0.0009 -0.0185
  386loPI   C3B 6175   8.087   8.171   8.995 -0.3839 -0.3785  0.2334
  386loPI   C4B 6176   8.084   8.098   8.561 -0.1491  0.0141 -0.0306
  387loPI    C1 6177  14.727   7.249  10.844 -0.2874 -0.1237  0.1929
  387loPI    C2 6178  14.401   7.474  10.894 -0.2186  0.0057  0.0678
  387loPI    C3 6179  14.732   7.553  11.103 -0.1690  0.0724 -0.0354
  387loPI   PO4 6180  14.758   7.193  10.619  0.4331  0.3230 -0.2377
  387loPI   GL1 6181  14.968   7.332  10.236 -0.0773  0.3090  0.1713
  387loPI   GL2 6182  14.802   7.122  10.117  0.1797  0.0320  0.3118
  387loPI   C1A 6183  14.873   7.489   9.783  0.1375  0.0067 -0.1249
  387loPI   C2A 6184  15.043   7.538   9.296  0.2690  0.0702 -0.0641
  387loPI   C3A 6185  15.030   7.471   8.894  0.0157 -0.0005  0.1216
  387loPI   C4A 6186  14.890   7.204   8.574 -0.3478  0.0259  0.3810
  387loPI   C5A 6187  14.636   7.323   8.161 -0.0092 -0.0981 -0.0342
  387loPI   C6A 6188  14.223   7.348   7.882 -0.0435 -0.1020 -0.1610
  387loPI   C1B 6189  14.864   6.982   9.667 -0.0961 -0.1017  0.1325
  387loPI   C2B 6190  14.838   7.015   9.176 -0.0894 -0.0422 -0.3994
  387loPI   C3B 6191  14.799   6.836   8.874  0.1340  0.0233 -0.1355
  387loPI   C4B 6192  14.587   6.776   8.533 -0.2599  0.3229  0.2297
  388loPI    C1 6193   5.897   5.241  10.889  0.0658 -0.1102 -0.0271
  388loPI    C2 6194   5.713   4.951  11.093  0.0646 -0.0312  0.0846
  388loPI    C3 6195   5.550   5.316  11.073  0.0105 -0.0667 -0.1476
  388loPI   PO4 6196   5.926   5.021  10.592  0.2202 -0.0700 -0.4149
  388loPI   GL1 6197   5.973   4.993  10.141 -0.1993 -0.0873  0.0397
  388loPI   GL2 6198   5.845   5.069   9.899 -0.1201  0.0909  0.0463
  388loPI   C1A 6199   6.258   4.921   9.749 -0.2568 -0.0215  0.1396
  388loPI   C2A 6200   6.359   4.859   9.313 -0.0701 -0.0774  0.1134
  388loPI   C3A 6201   6.349   4.680   8.950 -0.0257  0.3831  0.3313
  388loPI   C4A 6202   6.209   4.452   8.544 -0.1583 -0.3526 -0.2944
  388loPI   C5A 6203   6.380   4.105   8.328 -0.2344 -0.0862 -0.2387
  388loPI   C6A 6204   6.469   3.736   7.991 -0.0615 -0.2189  0.0661
  388loPI   C1B 6205   5.831   4.850   9.537  0.0242 -0.0398  0.0531
  388loPI   C2B 6206   5.937   4.935   9.064  0.1355  0.2731  0.1840
  388loPI   C3B 6207   5.920   4.863   8.658  0.1059 -0.0309  0.0558
  388loPI   C4B 6208   6.130   4.855   8.241  0.2761  0.0253 -0.0122
  389loPI    C1 6209  15.459  18.024  11.196 -0.1382 -0.0615 -0.0420
  389loPI    C2 6210  15.630  18.364  11.316  0.0380 -0.1596 -0.0123
  389loPI    C3 6211  15.851  18.034  11.270 -0.0911 -0.2143 -0.2605
  389loPI   PO4 6212  15.341  18.021  11.088 -0.1279  0.1024  0.0645
  389loPI   GL1 6213  15.198  18.007  10.680 -0.2940 -0.1502  0.4366
  389loPI   GL2 6214  15.122  18.217  10.487 -0.3011  0.0006  0.1027
  389loPI   C1A 6215  15.565  18.099  10.237  0.2638 -0.0716 -0.0212
  389loPI   C2A 6216  15.552  18.207   9.773 -0.1109 -0.0804  0.3156
  389loPI   C3A 6217  15.621  18.145   9.388 -0.0218  0.1708 -0.1483
  389loPI   C4A 6218  15.629  18.072   8.893  0.1537  0.4300  0.2797
  389loPI   C5A 6219  15.599  18.023   8.383  0.2431 -0.2512  0.2027
  389loPI   C6A 6220  15.397  18.309   8.151 -0.0793 -0.2862 -0.0533
  389loPI   C1B 6221  15.097  18.297  10.036  0.0746  0.1084 -0.0689
  389loPI   C2B 6222  15.072  18.249   9.572 -0.2316  0.1545 -0.1246
  389loPI   C3B 6223  15.130  18.323   9.149 -0.5360 -0.0136  0.2391
  389loPI   C4B 6224  15.159  18.400   8.804  0.0688 -0.1917 -0.3065
  390loPI    C1 6225  12.908   1.589  10.966 -0.0661 -0.0514 -0.1939
  390loPI    C2 6226  12.985   1.791  10.630 -0.1476 -0.1128 -0.2500
  390loPI    C3 6227  12.686   1.907  10.869  0.0445  0.0593 -0.0886
  390loPI   PO4 6228  12.872   1.357  10.889 -0.4462  0.2934 -0.1759
  390loPI   GL1 6229  12.832   1.266  10.534 -0.2212 -0.0926  0.0232
  390loPI   GL2 6230  13.074   1.095  10.353  0.0341 -0.1907 -0.2238
  390loPI   C1A 6231  12.774   1.580  10.243  0.1573  0.1156  0.0593
  390loPI   C2A 6232  12.971   1.728   9.861  0.3195  0.0946  0.0033
  390loPI   C3A 6233  13.008   1.722   9.454 -0.0270 -0.2270 -0.1133
  390loPI   C4A 6234  12.936   1.721   9.005 -0.3020 -0.1357 -0.0883
  390loPI   C5A 6235  12.951   1.666   8.568 -0.2253  0.6450 -0.0812
  390loPI   C6A 6236  12.892   1.417   8.207  0.0933 -0.2752  0.0527
  390loPI   C1B 6237  13.056   1.219   9.960  0.0603 -0.3688 -0.1337
  390loPI   C2B 6238  12.981   1.209   9.529 -0.2677 -0.2821  0.1150
  390loPI   C3B 6239  13.007   1.253   9.132 -0.1325  0.0276  0.0515
  390loPI   C4B 6240  12.965   1.137   8.664  0.2060 -0.2354  0.2114
  391loPI    C1 6241   1.573   3.403  10.740  0.1992 -0.0903  0.1335
  391loPI    C2 6242   1.475   3.103  10.986 -0.1947 -0.1023 -0.0300
  391loPI    C3 6243   1.612   3.448  11.136  0.1967 -0.3343  0.1630
  391loPI   PO4 6244   1.424   3.411  10.544  0.1526 -0.0549 -0.1357
  391loPI   GL1 6245   1.327   3.605  10.139  0.0425 -0.1193 -0.2639
  391loPI   GL2 6246   1.628   3.523  10.044 -0.1803  0.3458 -0.0201
  391loPI   C1A 6247   1.164   3.492   9.771  0.3490  0.0825  0.2633
  391loPI   C2A 6248   0.793   3.507   9.582  0.0647 -0.0698 -0.1827
  391loPI   C3A 6249   0.441   3.771   9.392  0.1488  0.1619  0.3653
  391loPI   C4A 6250   0.057   3.663   9.282 -0.1540  0.1242 -0.2890
  391loPI   C5A 6251  -0.189   3.575   9.028  0.2139  0.0296  0.0827
  391loPI   C6A 6252  -0.293   3.633   8.567 -0.1461 -0.1966  0.0186
  391loPI   C1B 6253   1.817   3.575   9.655 -0.4348 -0.0235  0.3808
  391loPI   C2B 6254   1.840   3.408   9.265  0.0019 -0.0610 -0.2163
  391loPI   C3B 6255   1.842   3.329   8.804 -0.1228  0.2140 -0.1568
  391loPI   C4B 6256   1.768   3.041   8.497 -0.0655  0.0252 -0.0372
  392loPI    C1 6257   4.878  12.388  10.699  0.1987 -0.0491  0.0946
  392loPI    C2 6258   4.751  12.190  10.376  0.0966 -0.0335  0.1249
  392loPI    C3 6259   4.532  12.189  10.710  0.1688  0.0068  0.1726
  392loPI   PO4 6260   5.007  12.562  10.577  0.0659  0.0294 -0.0354
  392loPI   GL1 6261   5.023  12.849  10.224 -0.1100  0.1770  0.0727
  392loPI   GL2 6262   4.731  12.657  10.095 -0.1902 -0.2569  0.2488
  392loPI   C1A 6263   4.918  12.852   9.720 -0.1656  0.3230  0.1064
  392loPI   C2A 6264   4.918  12.879   9.288  0.1852  0.2412  0.0325
  392loPI   C3A 6265   5.068  12.831   8.853 -0.2075 -0.0407 -0.3403
  392loPI   C4A 6266   5.080  12.770   8.347 -0.0645  0.1730  0.1010
  392loPI   C5A 6267   4.898  12.972   8.011  0.1447 -0.0362 -0.0944
  392loPI   C6A 6268   4.651  13.196   7.762 -0.3352 -0.1332  0.1315
  392loPI   C1B 6269   4.591  12.374   9.795 -0.2659 -0.1353 -0.0188
  392loPI   C2B 6270   4.620  12.513   9.390 -0.2165  0.2050  0.2040
  392loPI   C3B 6271   4.704  12.447   9.025  0.1241  0.3823 -0.0869
  392loPI   C4B 6272   4.729  12.453   8.588  0.0790 -0.0174  0.2646
  393loPI    C1 6273  16.376   1.910  10.662 -0.0064 -0.0062  0.0681
  393loPI    C2 6274  16.691   2.141  10.578  0.1765 -0.2449  0.0864
  393loPI    C3 6275  16.711   1.879  10.879 -0.0184 -0.3046  0.0485
  393loPI   PO4 6276  16.307   1.845  10.440  0.0332  0.1049 -0.1292
  393loPI   GL1 6277  16.232   1.973  10.075 -0.0891  0.2987 -0.0375
  393loPI   GL2 6278  16.541   2.162  10.087  0.0302 -0.0730  0.2639
  393loPI   C1A 6279  16.091   1.942   9.650  0.1398  0.0703 -0.0734
  393loPI   C2A 6280  15.991   1.983   9.311  0.1997  0.2279  0.0873
  393loPI   C3A 6281  16.088   2.023   8.939 -0.1056  0.0518 -0.1307
  393loPI   C4A 6282  16.060   1.944   8.486 -0.1801 -0.0513 -0.0715
  393loPI   C5A 6283  16.207   2.089   8.101 -0.2360 -0.1989 -0.1239
  393loPI   C6A 6284  16.531   2.101   7.886 -0.1803  0.1863 -0.0136
  393loPI   C1B 6285  16.493   2.266   9.707 -0.2745  0.0545 -0.1701
  393loPI   C2B 6286  16.915   2.313   9.487  0.5061  0.2169  0.0818
  393loPI   C3B 6287  17.370   2.412   9.463  0.0948 -0.1959  0.0250
  393loPI   C4B 6288  17.760   2.283   9.549  0.0184 -0.2398 -0.1142
  394loPI    C1 6289   5.356  16.161  10.887 -0.1143 -0.1260 -0.1403
  394loPI    C2 6290   5.655  16.151  11.153 -0.0600 -0.0660 -0.1988
  394loPI    C3 6291   5.282  16.064  11.268 -0.0613  0.1059 -0.0693
  394loPI   PO4 6292   5.367  16.482  10.801  0.0274  0.0915 -0.0571
  394loPI   GL1 6293   5.164  16.691  10.412 -0.0172  0.3225  0.2154
  394loPI   GL2 6294   4.911  16.909  10.363  0.2478 -0.1307 -0.2758
  394loPI   C1A 6295   5.324  16.673  10.058 -0.0505  0.3734 -0.0680
  394loPI   C2A 6296   5.180  16.626   9.663 -0.2772 -0.0220  0.4631
  394loPI   C3A 6297   5.193  16.620   9.194 -0.1118  0.1162 -0.1655
  394loPI   C4A 6298   5.123  16.684   8.714 -0.1775 -0.0710  0.2960
  394loPI   C5A 6299   4.909  16.579   8.455 -0.1202 -0.1390  0.0664
  394loPI   C6A 6300   4.699  16.521   8.055  0.2189  0.0075  0.1445
  394loPI   C1B 6301   4.701  16.802  10.042  0.2194  0.0123 -0.0033
  394loPI   C2B 6302   4.736  16.775   9.608 -0.0722  0.0996 -0.0968
  394loPI   C3B 6303   4.656  16.776   9.129 -0.0033 -0.0064 -0.0146
  394loPI   C4B 6304   4.538  16.930   8.662  0.3467 -0.2652  0.1824
  395loPI    C1 6305   7.885  16.818  11.026  0.0001 -0.0526 -0.0270
  395loPI    C2 6306   8.123  16.594  11.257  0.0508 -0.0557 -0.0819
  395loPI    C3 6307   7.736  16.500  11.217  0.0962 -0.1984 -0.1925
  395loPI   PO4 6308   7.946  16.803  10.677  0.0622 -0.2906  0.0091
  395loPI   GL1 6309   7.692  16.863  10.396 -0.0523 -0.0688  0.1325
  395loPI   GL2 6310   7.331  16.804  10.339 -0.0248  0.0676  0.0192
  395loPI   C1A 6311   7.798  16.921   9.964  0.2012  0.3249 -0.1779
  395loPI   C2A 6312   7.877  16.967   9.413  0.1531  0.0738 -0.0973
  395loPI   C3A 6313   7.960  17.118   8.940  0.1457  0.0891  0.1175
  395loPI   C4A 6314   7.825  17.269   8.608  0.3192 -0.0605  0.2505
  395loPI   C5A 6315   7.527  17.502   8.334 -0.0370 -0.2295 -0.0235
  395loPI   C6A 6316   7.176  17.651   8.193 -0.0141 -0.0328  0.0890
  395loPI   C1B 6317   7.289  17.014  10.022 -0.4066  0.0525 -0.0247
  395loPI   C2B 6318   7.289  17.158   9.643 -0.1417 -0.0625  0.0548
  395loPI   C3B 6319   7.450  17.210   9.290  0.0638 -0.0732 -0.0709
  395loPI   C4B 6320   7.421  17.283   8.940 -0.2042  0.1282  0.1215
  396loPI    C1 6321  16.449   7.314  10.898  0.0440  0.0482 -0.0453
  396loPI    C2 6322  16.707   7.575  10.739 -0.0062  0.0382 -0.1439
  396loPI    C3 6323  16.460   7.692  11.030  0.0692  0.0631 -0.0895
  396loPI   PO4 6324  16.269   7.244  10.745  0.1115 -0.1626 -0.2880
  396loPI   GL1 6325  16.257   7.154  10.335 -0.1598 -0.0573 -0.1320
  396loPI   GL2 6326  15.927   7.302  10.371  0.0756  0.1712  0.2875
  396loPI   C1A 6327  16.381   7.431  10.069  0.1284 -0.2328 -0.1208
  396loPI   C2A 6328  16.460   7.479   9.692 -0.2790 -0.3270 -0.2588
  396loPI   C3A 6329  16.410   7.409   9.315 -0.0722  0.0627  0.0107
  396loPI   C4A 6330  16.530   7.540   8.958  0.1317 -0.2157 -0.1517
  396loPI   C5A 6331  16.595   7.363   8.603 -0.1410  0.0108 -0.2855
  396loPI   C6A 6332  16.994   7.454   8.389  0.0932  0.5852  0.0874
  396loPI   C1B 6333  15.838   7.533  10.022 -0.0052  0.1387 -0.0089
  396loPI   C2B 6334  15.601   7.535   9.560 -0.3341 -0.1425  0.0516
  396loPI   C3B 6335  15.509   7.598   9.128 -0.1873  0.2523  0.0233
  396loPI   C4B 6336  15.680   7.684   8.711  0.0281 -0.1857  0.0676
  397loPI    C1 6337  13.342   7.085  10.523 -0.1815  0.0420  0.1179
  397loPI    C2 6338  12.970   7.227  10.555 -0.2058  0.0300 -0.0983
  397loPI    C3 6339  13.097   6.942  10.805 -0.3099  0.1008  0.0370
  397loPI   PO4 6340  13.375   7.013  10.352  0.3571 -0.1251  0.0567
  397loPI   GL1 6341  13.311   6.991  10.008  0.1429  0.2448 -0.1172
  397loPI   GL2 6342  12.975   7.162  10.081  0.0127  0.1159 -0.0335
  397loPI   C1A 6343  13.119   7.042   9.527 -0.1727  0.3450  0.0500
  397loPI   C2A 6344  13.084   7.029   9.147  0.1329  0.2033 -0.1332
  397loPI   C3A 6345  13.045   6.879   8.744  0.1996  0.0919 -0.0942
  397loPI   C4A 6346  12.762   6.743   8.418  0.0904  0.2671 -0.2353
  397loPI   C5A 6347  12.294   6.718   8.253  0.3551 -0.2086 -0.1319
  397loPI   C6A 6348  12.011   6.459   8.079 -0.3481  0.0232  0.0625
  397loPI   C1B 6349  12.688   7.298   9.768 -0.1143 -0.1530 -0.2185
  397loPI   C2B 6350  12.629   7.156   9.379 -0.0124  0.2591  0.0940
  397loPI   C3B 6351  12.677   7.224   8.866 -0.4529 -0.2764  0.0812
  397loPI   C4B 6352  12.945   7.352   8.509  0.0726 -0.3441 -0.0483
  398loPI    C1 6353   7.021   0.959  10.601  0.0857  0.0215 -0.1951
  398loPI    C2 6354   7.028   0.793  10.965 -0.1808  0.2973 -0.0604
  398loPI    C3 6355   7.302   1.067  10.864 -0.0664  0.1718 -0.0923
  398loPI   PO4 6356   6.742   0.949  10.607  0.1555  0.0359 -0.0881
  398loPI   GL1 6357   6.435   0.886  10.264  0.0790 -0.2545  0.2677
  398loPI   GL2 6358   6.778   0.779  10.132 -0.2381  0.2181 -0.0004
  398loPI   C1A 6359   6.396   0.956   9.847 -0.1751 -0.0307 -0.4475
  398loPI   C2A 6360   6.465   0.691   9.546  0.0554 -0.3180 -0.4195
  398loPI   C3A 6361   6.168   0.724   9.134 -0.2866  0.2390 -0.0605
  398loPI   C4A 6362   5.919   0.901   8.718  0.0359 -0.2421 -0.2274
  398loPI   C5A 6363   5.652   0.727   8.433  0.2346 -0.0921  0.4068
  398loPI   C6A 6364   5.421   0.801   8.073 -0.2706 -0.0293 -0.0415
  398loPI   C1B 6365   6.977   0.512   9.825 -0.1206  0.0490  0.2156
  398loPI   C2B 6366   6.855   0.455   9.406  0.0416 -0.2029  0.0746
  398loPI   C3B 6367   6.628   0.429   9.008 -0.2143 -0.1424  0.1029
  398loPI   C4B 6368   6.667   0.435   8.584  0.0076  0.2836 -0.4573
  399loPI    C1 6369   7.823   2.994  10.473  0.1595  0.0350  0.1975
  399loPI    C2 6370   7.818   2.637  10.653  0.2446 -0.0176  0.0963
  399loPI    C3 6371   7.476   2.836  10.596  0.2059 -0.0460  0.2249
  399loPI   PO4 6372   8.077   2.967  10.360  0.1624  0.0413 -0.0164
  399loPI   GL1 6373   8.232   2.748   9.982 -0.1093  0.2566 -0.0498
  399loPI   GL2 6374   8.240   2.326   9.847  0.2037 -0.1516  0.0937
  399loPI   C1A 6375   7.861   2.598   9.653 -0.3974  0.1573 -0.0722
  399loPI   C2A 6376   7.728   2.703   9.253 -0.2422 -0.1136 -0.2361
  399loPI   C3A 6377   7.578   2.789   8.828 -0.0174 -0.0219 -0.0664
  399loPI   C4A 6378   7.283   2.899   8.445  0.1005 -0.0021  0.0270
  399loPI   C5A 6379   7.035   2.900   8.043  0.2646 -0.0338 -0.2430
  399loPI   C6A 6380   7.218   2.850   7.617  0.0140 -0.2689  0.0303
  399loPI   C1B 6381   8.337   2.038   9.509  0.1505 -0.0425  0.0339
  399loPI   C2B 6382   8.187   1.813   9.369 -0.4124  0.2391 -0.1333
  399loPI   C3B 6383   8.059   1.496   9.244  0.0206 -0.2202  0.0725
  399loPI   C4B 6384   8.177   1.087   8.865 -0.1821  0.1958  0.0366
  400loPI    C1 6385   9.519   0.183  10.960  0.0557 -0.2289 -0.2445
  400loPI    C2 6386   9.681  -0.164  11.078 -0.1519 -0.2896 -0.1323
  400loPI    C3 6387   9.294  -0.147  10.978 -0.2302 -0.0197  0.1969
  400loPI   PO4 6388   9.605   0.254  10.684  0.0534  0.3109  0.0148
  400loPI   GL1 6389   9.715   0.450  10.333  0.0725 -0.0667 -0.0008
  400loPI   GL2 6390  10.051   0.384  10.416 -0.0030  0.0806 -0.0394
  400loPI   C1A 6391   9.813   0.603   9.902 -0.1479  0.0056 -0.0225
  400loPI   C2A 6392   9.880   0.661   9.390 -0.0386  0.0788  0.1964
  400loPI   C3A 6393   9.964   0.638   8.985 -0.0331 -0.1710  0.2002
  400loPI   C4A 6394   9.799   0.740   8.675  0.0501 -0.1352 -0.0237
  400loPI   C5A 6395   9.779   0.589   8.257  0.2165 -0.0465 -0.0311
  400loPI   C6A 6396   9.653   0.439   7.784 -0.1396 -0.1802  0.1353
  400loPI   C1B 6397  10.430   0.608  10.077 -0.0798  0.2376  0.0413
  400loPI   C2B 6398  10.643   0.695   9.764 -0.0732  0.0362 -0.0024
  400loPI   C3B 6399  10.835   0.716   9.393  0.2220 -0.2532 -0.0438
  400loPI   C4B 6400  10.898   0.762   9.006 -0.1081 -0.1776 -0.0072
  401loPI    C1 6401  17.803  16.100  10.787  0.2617 -0.0072  0.0058
  401loPI    C2 6402  17.627  15.911  11.093 -0.2090  0.1181 -0.1785
  401loPI    C3 6403  17.906  16.189  11.164  0.0789 -0.2347  0.1118
  401loPI   PO4 6404  17.925  15.905  10.606  0.0245 -0.2189  0.0322
  401loPI   GL1 6405  17.848  15.824  10.149  0.0924  0.1259 -0.0724
  401loPI   GL2 6406  17.528  15.762  10.149  0.2033 -0.1562 -0.3207
  401loPI   C1A 6407  17.932  16.005   9.764  0.0090  0.0425  0.0499
  401loPI   C2A 6408  17.926  15.968   9.383 -0.1088 -0.1164 -0.1362
  401loPI   C3A 6409  17.756  15.980   9.030 -0.1966  0.3014  0.0589
  401loPI   C4A 6410  17.890  15.928   8.610  0.0618 -0.0982 -0.1949
  401loPI   C5A 6411  17.600  15.984   8.232  0.1997 -0.0708  0.1937
  401loPI   C6A 6412  17.674  15.654   7.921 -0.0604 -0.3718  0.1736
  401loPI   C1B 6413  17.475  15.650   9.740  0.3766 -0.2066 -0.1377
  401loPI   C2B 6414  17.439  15.654   9.342  0.0476  0.0683 -0.0640
  401loPI   C3B 6415  17.474  15.536   8.894  0.1010 -0.1002 -0.1680
  401loPI   C4B 6416  17.576  15.510   8.424 -0.0677 -0.2244  0.1977
  402loPI    C1 6417  10.377  10.830  10.603 -0.1928 -0.0841 -0.0645
  402loPI    C2 6418  10.484  11.123  10.353  0.3225 -0.1225  0.0985
  402loPI    C3 6419  10.548  11.162  10.746 -0.0083 -0.2757  0.1711
  402loPI   PO4 6420  10.105  10.773  10.520 -0.1778  0.1572  0.0708
  402loPI   GL1 6421   9.957  10.548  10.162  0.0067  0.0478  0.1359
  402loPI   GL2 6422  10.316  10.448  10.126  0.1102  0.0959 -0.1553
  402loPI   C1A 6423   9.862  10.299   9.788  0.1076 -0.1147  0.0868
  402loPI   C2A 6424   9.827  10.460   9.487 -0.1374  0.1611  0.4467
  402loPI   C3A 6425   9.828  10.514   8.984 -0.0239  0.2213  0.0085
  402loPI   C4A 6426   9.934  10.490   8.544  0.0970  0.1260  0.1577
  402loPI   C5A 6427  10.030  10.474   8.047 -0.0553 -0.1737  0.0603
  402loPI   C6A 6428  10.058  10.396   7.574  0.2556 -0.2676 -0.0891
  402loPI   C1B 6429  10.335  10.436   9.727  0.0275 -0.0330 -0.0585
  402loPI   C2B 6430  10.268  10.492   9.227  0.0293 -0.0141 -0.0324
  402loPI   C3B 6431  10.376  10.428   8.760  0.1245 -0.1433  0.4324
  402loPI   C4B 6432  10.418  10.470   8.360  0.1006 -0.1447  0.0416
  403loPI    C1 6433   4.186  11.846  10.767  0.3311  0.0008  0.2755
  403loPI    C2 6434   3.813  11.937  10.877  0.2902  0.4494 -0.1927
  403loPI    C3 6435   3.986  11.603  11.014 -0.2420  0.2833  0.1065
  403loPI   PO4 6436   4.174  11.857  10.494  0.1396 -0.3452  0.3145
  403loPI   GL1 6437   4.006  11.910  10.024 -0.1359  0.4098 -0.0752
  403loPI   GL2 6438   3.830  12.014   9.817  0.0229  0.1063 -0.0521
  403loPI   C1A 6439   4.280  12.036   9.616 -0.4216 -0.1818  0.2942
  403loPI   C2A 6440   4.349  12.147   9.119 -0.3817  0.2114  0.2956
  403loPI   C3A 6441   4.564  12.042   8.674 -0.0958  0.0464 -0.0323
  403loPI   C4A 6442   4.765  12.028   8.302 -0.3059 -0.6183 -0.1262
  403loPI   C5A 6443   4.713  11.721   7.966 -0.1429  0.1237  0.0182
  403loPI   C6A 6444   4.932  11.445   7.907 -0.0456  0.0325  0.0644
  403loPI   C1B 6445   3.742  12.208   9.390  0.1264  0.0503 -0.0232
  403loPI   C2B 6446   3.739  12.507   9.041  0.4880 -0.0308  0.0969
  403loPI   C3B 6447   4.192  12.466   8.824 -0.1340 -0.0223  0.1252
  403loPI   C4B 6448   4.245  12.412   8.343  0.0362  0.0317  0.0005
  404loPI    C1 6449   3.700  11.129  10.597 -0.1141 -0.0403  0.0094
  404loPI    C2 6450   4.017  10.993  10.800 -0.0160  0.0788 -0.0625
  404loPI    C3 6451   3.724  11.186  10.992 -0.0239  0.0075 -0.0027
  404loPI   PO4 6452   3.808  11.125  10.373  0.1114  0.0994  0.1526
  404loPI   GL1 6453   3.833  10.782  10.055  0.1289  0.2755  0.0027
  404loPI   GL2 6454   3.855  10.417   9.946 -0.4045  0.0245  0.1117
  404loPI   C1A 6455   3.886  11.058   9.616  0.1301 -0.2402 -0.0689
  404loPI   C2A 6456   3.697  11.357   9.253 -0.1249  0.5160 -0.1463
  404loPI   C3A 6457   3.635  11.611   8.819  0.1478 -0.2076  0.0551
  404loPI   C4A 6458   3.854  11.780   8.445  0.0608 -0.2196 -0.0535
  404loPI   C5A 6459   3.602  12.112   8.249 -0.1671 -0.0381 -0.1688
  404loPI   C6A 6460   3.399  12.099   7.847 -0.0455 -0.0577  0.3103
  404loPI   C1B 6461   3.776  10.457   9.552 -0.1454  0.1917 -0.1239
  404loPI   C2B 6462   3.723  10.456   9.011  0.1395  0.0042 -0.0694
  404loPI   C3B 6463   3.952  10.739   8.823 -0.0748 -0.1976 -0.0088
  404loPI   C4B 6464   4.185  10.726   8.399  0.1287 -0.3886  0.0193
  405loPI    C1 6465  15.871   4.065  10.216 -0.1047 -0.0565 -0.2147
  405loPI    C2 6466  15.927   4.183  10.594  0.2085 -0.2751 -0.1891
  405loPI    C3 6467  15.978   4.442  10.294 -0.2091 -0.0542 -0.0782
  405loPI   PO4 6468  15.659   3.930  10.175  0.0291 -0.1802  0.3648
  405loPI   GL1 6469  15.362   4.088   9.934  0.0194 -0.2700 -0.3015
  405loPI   GL2 6470  15.061   4.145   9.965  0.1032  0.2785  0.3332
  405loPI   C1A 6471  15.495   3.972   9.481  0.0694  0.2057  0.1543
  405loPI   C2A 6472  15.441   3.711   9.158 -0.2061 -0.1618  0.4601
  405loPI   C3A 6473  15.564   3.631   8.645  0.0782 -0.0012 -0.2167
  405loPI   C4A 6474  15.771   3.573   8.275 -0.1685  0.1621  0.2021
  405loPI   C5A 6475  16.014   3.214   8.044 -0.1655  0.1706 -0.1285
  405loPI   C6A 6476  16.010   2.907   7.712  0.2905 -0.0496  0.1056
  405loPI   C1B 6477  14.837   3.968   9.497 -0.2126  0.0842  0.1202
  405loPI   C2B 6478  14.961   3.837   9.065  0.1407  0.0618 -0.1874
  405loPI   C3B 6479  15.039   3.898   8.609 -0.1454  0.0546  0.1785
  405loPI   C4B 6480  14.961   3.951   8.205  0.3246  0.1316 -0.0654
  406loPI    C1 6481  11.603  14.970  11.138  0.0204  0.1558 -0.0411
  406loPI    C2 6482  11.235  14.915  11.284  0.0930 -0.0358  0.0741
  406loPI    C3 6483  11.552  14.893  11.527  0.1885  0.0193 -0.0443
  406loPI   PO4 6484  11.655  14.654  10.969  0.1533 -0.0466 -0.0124
  406loPI   GL1 6485  11.596  14.434  10.575 -0.2184  0.2569 -0.1324
  406loPI   GL2 6486  11.477  14.717  10.462  0.0134 -0.1470 -0.0982
  406loPI   C1A 6487  11.947  14.386  10.346  0.1216 -0.0879  0.0711
  406loPI   C2A 6488  12.148  14.523  10.028 -0.0679  0.1567 -0.0569
  406loPI   C3A 6489  12.026  14.406   9.539 -0.0849  0.1447  0.1460
  406loPI   C4A 6490  12.081  14.424   9.042 -0.0606  0.0180  0.0869
  406loPI   C5A 6491  12.043  14.429   8.513 -0.2521  0.1853 -0.0931
  406loPI   C6A 6492  12.052  14.376   8.037  0.0006 -0.0223  0.0028
  406loPI   C1B 6493  11.576  14.504  10.068 -0.0485  0.1461  0.1249
  406loPI   C2B 6494  11.490  14.485   9.551  0.1817 -0.0754 -0.1326
  406loPI   C3B 6495  11.601  14.491   9.224 -0.1347  0.0437 -0.0605
  406loPI   C4B 6496  11.531  14.445   8.826  0.1112  0.0704  0.0351
  407loPI    C1 6497   9.605   0.687  10.888 -0.1436 -0.1387 -0.0812
  407loPI    C2 6498   9.469   0.956  11.152 -0.1932 -0.0096 -0.2363
  407loPI    C3 6499   9.678   0.639  11.278 -0.4159 -0.0737 -0.0195
  407loPI   PO4 6500   9.808   0.803  10.708 -0.0882  0.2312  0.0123
  407loPI   GL1 6501   9.672   0.927  10.296  0.0028  0.0914  0.2664
  407loPI   GL2 6502  10.038   0.871  10.233  0.0298 -0.1281 -0.4523
  407loPI   C1A 6503   9.667   1.053   9.926 -0.0220 -0.0644  0.1794
  407loPI   C2A 6504   9.773   1.152   9.450  0.2036  0.1162  0.0791
  407loPI   C3A 6505   9.909   1.161   9.073  0.1714  0.0091  0.1529
  407loPI   C4A 6506  10.066   1.108   8.616 -0.0736 -0.1794  0.1246
  407loPI   C5A 6507  10.152   1.098   8.227  0.0003  0.0414  0.0299
  407loPI   C6A 6508  10.137   1.318   7.784 -0.1990  0.1927  0.1707
  407loPI   C1B 6509  10.146   0.951   9.736  0.2390  0.1482  0.2364
  407loPI   C2B 6510  10.352   0.945   9.302  0.2371 -0.3926  0.0396
  407loPI   C3B 6511  10.411   0.889   8.879  0.1515 -0.4570 -0.1172
  407loPI   C4B 6512  10.626   1.009   8.512 -0.0764  0.2265 -0.1248
  408loPI    C1 6513   3.606  17.547  11.214 -0.2419  0.0086  0.1009
  408loPI    C2 6514   3.941  17.440  11.406 -0.2080  0.1051  0.0963
  408loPI    C3 6515   3.634  17.184  11.381 -0.0068 -0.1149 -0.1960
  408loPI   PO4 6516   3.743  17.706  10.999  0.0900 -0.1714  0.0757
  408loPI   GL1 6517   3.983  17.631  10.558  0.1580 -0.2269 -0.0520
  408loPI   GL2 6518   3.646  17.573  10.405 -0.0510  0.2028  0.1271
  408loPI   C1A 6519   4.113  17.488  10.197  0.2111 -0.0390 -0.0497
  408loPI   C2A 6520   4.172  17.430   9.647 -0.2492  0.3013 -0.1392
  408loPI   C3A 6521   4.079  17.504   9.260  0.0532 -0.3385  0.0553
  408loPI   C4A 6522   4.025  17.506   8.840 -0.0658  0.1267  0.3502
  408loPI   C5A 6523   3.918  17.562   8.442 -0.1379  0.0676  0.1980
  408loPI   C6A 6524   3.747  17.178   8.179 -0.1864 -0.0990  0.1485
  408loPI   C1B 6525   3.627  17.542  10.070 -0.2152 -0.0399  0.1772
  408loPI   C2B 6526   3.682  17.569   9.603  0.0719 -0.1503 -0.0795
  408loPI   C3B 6527   3.596  17.722   9.259  0.1283  0.0538  0.0579
  408loPI   C4B 6528   3.581  17.617   8.852  0.2170  0.1639  0.0457
  409loPI    C1 6529   2.359   6.630  10.527  0.1510 -0.0578 -0.0795
  409loPI    C2 6530   2.570   6.535  10.853  0.0060  0.1029  0.0635
  409loPI    C3 6531   2.232   6.745  10.888 -0.2849 -0.3172 -0.1431
  409loPI   PO4 6532   2.595   6.755  10.331  0.1313  0.4384  0.0676
  409loPI   GL1 6533   2.699   6.661   9.941 -0.1540  0.0169 -0.1232
  409loPI   GL2 6534   2.993   6.827   9.931 -0.0581  0.2477  0.2142
  409loPI   C1A 6535   2.550   6.785   9.444 -0.1748 -0.1799 -0.0644
  409loPI   C2A 6536   2.638   6.665   9.010 -0.0039 -0.1047  0.1932
  409loPI   C3A 6537   2.557   6.475   8.575  0.4398 -0.2418 -0.0198
  409loPI   C4A 6538   2.317   6.434   8.200  0.0504 -0.0817 -0.3072
  409loPI   C5A 6539   1.962   6.294   7.908 -0.4287 -0.0022 -0.0776
  409loPI   C6A 6540   1.764   5.862   7.863  0.1376 -0.2254 -0.0462
  409loPI   C1B 6541   3.143   6.803   9.594 -0.2745 -0.0904  0.2518
  409loPI   C2B 6542   3.143   6.681   9.147 -0.0769 -0.1542  0.1202
  409loPI   C3B 6543   3.128   6.617   8.728  0.0294  0.1263 -0.2186
  409loPI   C4B 6544   3.321   6.432   8.481 -0.1259 -0.0235 -0.0328
  410loPI    C1 6545  14.683  13.302  10.655 -0.0433 -0.0482 -0.1328
  410loPI    C2 6546  14.888  13.308  10.999  0.0029  0.0857 -0.1618
  410loPI    C3 6547  14.488  13.286  11.005  0.0110 -0.0619 -0.1031
  410loPI   PO4 6548  14.932  13.063  10.540 -0.5572 -0.1675  0.1940
  410loPI   GL1 6549  15.183  12.977  10.114 -0.0223  0.3217  0.1754
  410loPI   GL2 6550  15.477  12.882  10.004  0.0204 -0.0616  0.0765
  410loPI   C1A 6551  15.062  13.051   9.755 -0.4172  0.0161  0.0242
  410loPI   C2A 6552  15.172  13.339   9.453  0.1231 -0.1323 -0.0650
  410loPI   C3A 6553  14.923  13.275   9.114  0.0190 -0.1923 -0.1538
  410loPI   C4A 6554  14.881  13.434   8.789 -0.1856  0.5371  0.3466
  410loPI   C5A 6555  14.981  13.790   8.560  0.0610 -0.3180  0.2307
  410loPI   C6A 6556  15.086  14.095   8.276 -0.1124 -0.1133  0.0692
  410loPI   C1B 6557  15.542  12.951   9.598 -0.1065  0.0430  0.2103
  410loPI   C2B 6558  15.629  12.984   9.198 -0.0546 -0.0743  0.0245
  410loPI   C3B 6559  15.450  13.094   8.921 -0.0419  0.0643  0.0180
  410loPI   C4B 6560  15.390  13.355   8.607 -0.0522  0.1502 -0.1084
  411loPI    C1 6561  17.229   0.713  10.739  0.0649  0.0946 -0.0611
  411loPI    C2 6562  17.281   0.646  11.130 -0.1025  0.0131 -0.0519
  411loPI    C3 6563  17.257   0.338  10.875  0.0610  0.0676 -0.1343
  411loPI   PO4 6564  17.487   0.903  10.693 -0.4291 -0.1370 -0.1225
  411loPI   GL1 6565  17.713   1.087  10.339  0.0876  0.1192  0.1236
  411loPI   GL2 6566  17.707   0.759  10.291 -0.1099  0.0636 -0.0542
  411loPI   C1A 6567  18.051   1.200  10.047  0.2693 -0.1881  0.2317
  411loPI   C2A 6568  18.046   1.210   9.610 -0.2054  0.0278  0.2748
  411loPI   C3A 6569  17.965   1.199   9.183 -0.0531  0.1351 -0.0288
  411loPI   C4A 6570  18.201   1.366   8.820 -0.0714 -0.0107  0.1234
  411loPI   C5A 6571  18.231   1.733   8.521  0.0084  0.1999 -0.0288
  411loPI   C6A 6572  17.962   2.012   8.473  0.0555  0.2556  0.0827
  411loPI   C1B 6573  17.719   0.805   9.882  0.2837  0.1300  0.1413
  411loPI   C2B 6574  17.664   0.798   9.464  0.0410 -0.1982  0.1331
  411loPI   C3B 6575  17.519   0.917   9.079 -0.2478 -0.3558  0.1032
  411loPI   C4B 6576  17.754   1.020   8.736 -0.0261  0.2062 -0.4529
  412loPI    C1 6577   8.603   1.228  10.851 -0.3493 -0.0734  0.2164
  412loPI    C2 6578   8.596   1.625  10.898 -0.3327 -0.0407 -0.0412
  412loPI    C3 6579   8.705   1.389  11.202  0.0674  0.1751 -0.0102
  412loPI   PO4 6580   8.802   1.183  10.571  0.0618 -0.0437  0.0249
  412loPI   GL1 6581   8.825   1.318  10.129  0.1404 -0.0511 -0.1415
  412loPI   GL2 6582   8.529   1.247  10.043 -0.0237 -0.0863  0.1029
  412loPI   C1A 6583   9.196   1.321   9.834 -0.0050 -0.1252 -0.0126
  412loPI   C2A 6584   9.329   1.370   9.384 -0.0849 -0.1067 -0.0098
  412loPI   C3A 6585   9.495   1.419   9.003 -0.2114 -0.1275 -0.0972
  412loPI   C4A 6586   9.532   1.176   8.685 -0.2460  0.1063  0.3127
  412loPI   C5A 6587   9.567   1.039   8.301  0.1481  0.2238  0.0435
  412loPI   C6A 6588   9.572   1.254   7.925  0.1415  0.0376 -0.0494
  412loPI   C1B 6589   8.771   0.980   9.637 -0.0327  0.1061  0.2194
  412loPI   C2B 6590   8.969   1.030   9.241 -0.1086 -0.2252 -0.1176
  412loPI   C3B 6591   9.092   0.994   8.852 -0.2755 -0.0979 -0.0436
  412loPI   C4B 6592   9.340   0.643   8.615 -0.2154  0.3562 -0.1793
  413loPI    C1 6593  16.069  15.437  10.857  0.0430  0.1794  0.0721
  413loPI    C2 6594  16.410  15.376  11.057  0.0802  0.0648 -0.0254
  413loPI    C3 6595  16.059  15.312  11.237  0.1091  0.2157  0.0859
  413loPI   PO4 6596  16.110  15.304  10.612  0.2980 -0.0435  0.0305
  413loPI   GL1 6597  16.399  15.411  10.240  0.0291 -0.0261  0.0317
  413loPI   GL2 6598  16.149  15.267  10.114  0.0219  0.2760 -0.0115
  413loPI   C1A 6599  16.507  15.511   9.823 -0.0866 -0.0249 -0.3582
  413loPI   C2A 6600  16.534  15.506   9.366 -0.2165 -0.0213  0.3021
  413loPI   C3A 6601  16.502  15.404   8.929  0.0585 -0.1704 -0.3344
  413loPI   C4A 6602  16.418  15.535   8.499 -0.3834 -0.3739  0.2366
  413loPI   C5A 6603  16.591  15.311   8.160  0.1889  0.0988  0.1007
  413loPI   C6A 6604  16.395  14.966   7.906  0.0883  0.1252  0.1766
  413loPI   C1B 6605  15.758  15.371   9.832  0.3868 -0.1684 -0.2847
  413loPI   C2B 6606  15.621  15.708   9.451 -0.1298 -0.0962 -0.1827
  413loPI   C3B 6607  15.336  15.870   9.187  0.0361 -0.0021 -0.2936
  413loPI   C4B 6608  14.889  15.891   9.111 -0.0569 -0.0326 -0.2937
  414loPI    C1 6609  12.093   5.973  10.803 -0.1922  0.2239 -0.0673
  414loPI    C2 6610  12.119   5.992  11.202 -0.1706  0.2340 -0.0692
  414loPI    C3 6611  12.257   6.293  10.978 -0.0905  0.1837 -0.0880
  414loPI   PO4 6612  12.104   5.747  10.761 -0.1901 -0.0311 -0.1504
  414loPI   GL1 6613  11.953   5.768  10.308 -0.2364 -0.0895 -0.0264
  414loPI   GL2 6614  12.143   5.502  10.202  0.0503 -0.0445 -0.2507
  414loPI   C1A 6615  11.701   5.552  10.019  0.0189  0.1916  0.1022
  414loPI   C2A 6616  11.704   5.496   9.549 -0.1358 -0.0454  0.0844
  414loPI   C3A 6617  11.892   5.524   9.178 -0.1470 -0.2366  0.0402
  414loPI   C4A 6618  11.884   5.927   8.786  0.3282 -0.0298  0.1193
  414loPI   C5A 6619  12.041   5.949   8.245 -0.0693 -0.0375 -0.0633
  414loPI   C6A 6620  12.184   5.827   7.829 -0.1163 -0.0483  0.0686
  414loPI   C1B 6621  12.171   5.437   9.772  0.1370 -0.1164  0.2322
  414loPI   C2B 6622  12.173   5.122   9.366 -0.5296  0.1168 -0.1217
  414loPI   C3B 6623  12.187   5.054   8.854  0.0470  0.3523 -0.0132
  414loPI   C4B 6624  12.153   5.087   8.425 -0.2117 -0.0758 -0.1560
  415loPI    C1 6625  10.964   0.587  10.890  0.1107 -0.0596  0.0339
  415loPI    C2 6626  10.716   0.731  11.168  0.1722  0.0530  0.0314
  415loPI    C3 6627  10.939   0.409  11.247  0.1252  0.0324  0.0813
  415loPI   PO4 6628  11.123   0.759  10.784  0.0303 -0.1020  0.1699
  415loPI   GL1 6629  10.784   0.968  10.549  0.5887  0.1327  0.1978
  415loPI   GL2 6630  10.847   1.243  10.637 -0.1319  0.1415  0.1527
  415loPI   C1A 6631  10.920   1.001  10.094 -0.1549 -0.0278 -0.1434
  415loPI   C2A 6632  11.117   0.979   9.739  0.2067  0.0157  0.0393
  415loPI   C3A 6633  11.237   1.013   9.346 -0.0075  0.1324  0.2662
  415loPI   C4A 6634  11.295   0.970   8.857  0.1901 -0.2683  0.0362
  415loPI   C5A 6635  11.122   0.843   8.446  0.3401  0.0859 -0.2650
  415loPI   C6A 6636  11.297   0.824   8.052  0.1155  0.1149 -0.0820
  415loPI   C1B 6637  10.926   1.484  10.260 -0.0218 -0.2141 -0.1250
  415loPI   C2B 6638  11.068   1.485   9.748 -0.1429  0.1448 -0.0042
  415loPI   C3B 6639  11.189   1.547   9.293 -0.2117  0.1070  0.0588
  415loPI   C4B 6640  11.292   1.638   8.898  0.1581 -0.0321 -0.3119
  416loPI    C1 6641   6.462   7.407  11.062  0.0526  0.0181  0.2492
  416loPI    C2 6642   6.655   7.604  11.352  0.1629  0.0829  0.1327
  416loPI    C3 6643   6.722   7.214  11.296  0.1103  0.0611  0.2208
  416loPI   PO4 6644   6.516   7.562  10.876 -0.1375 -0.0945  0.0914
  416loPI   GL1 6645   6.704   7.511  10.500 -0.2720  0.4147  0.1245
  416loPI   GL2 6646   7.022   7.483  10.396 -0.1616 -0.3578 -0.0948
  416loPI   C1A 6647   6.631   7.646  10.135  0.2021 -0.3295 -0.1638
  416loPI   C2A 6648   6.787   7.741   9.810 -0.1130 -0.2791 -0.1440
  416loPI   C3A 6649   6.735   7.710   9.452 -0.1291  0.2047  0.0714
  416loPI   C4A 6650   6.843   7.660   9.015 -0.1330 -0.0276 -0.1381
  416loPI   C5A 6651   6.857   7.795   8.602  0.3773 -0.2779  0.1150
  416loPI   C6A 6652   7.090   8.097   8.444  0.1269 -0.1091 -0.0868
  416loPI   C1B 6653   6.965   7.296  10.058  0.1430  0.1463  0.2444
  416loPI   C2B 6654   7.032   7.339   9.649  0.2369  0.0528 -0.0858
  416loPI   C3B 6655   7.128   7.206   9.291  0.2183 -0.0272  0.1637
  416loPI   C4B 6656   7.105   7.259   8.833 -0.0656  0.2988  0.0939
  417loPI    C1 6657  14.151   6.129  10.105  0.1227  0.1223  0.0020
  417loPI    C2 6658  14.546   6.183  10.135  0.1279  0.0075  0.1519
  417loPI    C3 6659  14.383   5.835  10.246  0.0022 -0.0006 -0.0529
  417loPI   PO4 6660  14.093   6.442  10.233  0.2909 -0.1708 -0.1204
  417loPI   GL1 6661  13.852   6.647   9.980 -0.0428 -0.0173 -0.1678
  417loPI   GL2 6662  14.044   6.921   9.948  0.0656  0.2152 -0.0509
  417loPI   C1A 6663  13.678   6.463   9.689  0.1528 -0.0303  0.0968
  417loPI   C2A 6664  13.810   6.392   9.265 -0.0509 -0.3600 -0.2702
  417loPI   C3A 6665  13.959   6.209   8.851 -0.0822 -0.2496  0.4463
  417loPI   C4A 6666  14.366   6.123   8.652  0.0771 -0.0770 -0.2710
  417loPI   C5A 6667  14.511   5.660   8.473  0.1000  0.1990 -0.1068
  417loPI   C6A 6668  14.653   5.245   8.489  0.0912  0.0619  0.0287
  417loPI   C1B 6669  14.374   6.999   9.709 -0.0228 -0.1667 -0.1416
  417loPI   C2B 6670  14.339   6.978   9.253 -0.0962  0.4219 -0.1678
  417loPI   C3B 6671  14.293   6.715   8.934 -0.1179  0.0205 -0.0093
  417loPI   C4B 6672  14.092   6.732   8.543  0.0160 -0.2853 -0.0393
  418loPI    C1 6673   5.498   2.788  10.793  0.0733  0.1786  0.2179
  418loPI    C2 6674   5.489   2.406  10.911 -0.1974  0.1490  0.1076
  418loPI    C3 6675   5.742   2.662  11.085  0.3174 -0.1815 -0.1295
  418loPI   PO4 6676   5.492   2.798  10.611 -0.0889 -0.0002  0.0661
  418loPI   GL1 6677   5.283   3.034  10.239 -0.0634  0.3075 -0.0133
  418loPI   GL2 6678   5.461   3.214  10.308  0.1932  0.0772  0.3250
  418loPI   C1A 6679   5.282   3.072   9.748 -0.0690 -0.0660  0.1582
  418loPI   C2A 6680   5.096   3.100   9.313 -0.2627  0.1832 -0.4327
  418loPI   C3A 6681   5.024   3.171   8.862  0.0744 -0.0998  0.2748
  418loPI   C4A 6682   4.998   3.352   8.462 -0.0391  0.1125  0.1218
  418loPI   C5A 6683   5.027   3.633   8.035  0.1863 -0.0106 -0.0266
  418loPI   C6A 6684   4.805   3.784   7.668  0.0131 -0.3436 -0.0902
  418loPI   C1B 6685   5.745   3.223   9.928 -0.0638  0.1818  0.1988
  418loPI   C2B 6686   5.725   3.126   9.464  0.0690  0.1177 -0.0142
  418loPI   C3B 6687   5.480   3.391   9.225 -0.2367 -0.0638 -0.1165
  418loPI   C4B 6688   5.438   3.446   8.820 -0.0409  0.0937  0.1588
  419loPI    C1 6689  11.402   8.365  10.388  0.1300 -0.0650 -0.1673
  419loPI    C2 6690  11.583   8.185  10.697  0.1209  0.0686 -0.0832
  419loPI    C3 6691  11.570   8.005  10.340  0.4020  0.0483 -0.0853
  419loPI   PO4 6692  11.181   8.368  10.405 -0.2129 -0.0792 -0.1307
  419loPI   GL1 6693  11.001   8.157  10.076 -0.1291  0.0126 -0.0286
  419loPI   GL2 6694  11.161   8.354   9.922  0.1108  0.1417  0.0255
  419loPI   C1A 6695  10.847   7.947   9.686  0.1134  0.2540  0.1568
  419loPI   C2A 6696  10.808   8.135   9.332 -0.3349 -0.0530  0.0118
  419loPI   C3A 6697  10.715   8.171   8.934 -0.0209 -0.0538  0.0346
  419loPI   C4A 6698  10.619   8.201   8.502  0.2036 -0.0846 -0.0403
  419loPI   C5A 6699  10.715   8.286   8.118 -0.0548 -0.5048  0.1226
  419loPI   C6A 6700  10.790   8.672   7.912 -0.2142 -0.0312 -0.2591
  419loPI   C1B 6701  11.233   8.394   9.458 -0.3914  0.0523  0.1343
  419loPI   C2B 6702  11.201   8.235   9.036 -0.0575  0.0244 -0.2195
  419loPI   C3B 6703  11.172   8.208   8.558  0.0742  0.0653 -0.2306
  419loPI   C4B 6704  11.190   8.393   8.107 -0.0131  0.0659  0.0638
  420loPI    C1 6705  17.966  13.092  10.950  0.1916  0.1750  0.1630
  420loPI    C2 6706  17.738  13.387  10.805  0.3370  0.2213  0.0255
  420loPI    C3 6707  17.789  13.349  11.200 -0.1112  0.0580  0.0733
  420loPI   PO4 6708  18.142  13.111  10.796 -0.1931 -0.2341 -0.3500
  420loPI   GL1 6709  18.507  13.134  10.415 -0.0048 -0.2115 -0.0237
  420loPI   GL2 6710  18.780  13.103  10.430  0.1231  0.1637  0.0599
  420loPI   C1A 6711  18.506  12.850  10.021 -0.1880  0.1994 -0.0264
  420loPI   C2A 6712  18.575  12.965   9.512 -0.1443  0.2660  0.0255
  420loPI   C3A 6713  18.652  12.975   9.111  0.1604 -0.0962 -0.3369
  420loPI   C4A 6714  18.712  13.182   8.701 -0.3707  0.0867  0.2899
  420loPI   C5A 6715  18.659  13.322   8.227 -0.1552  0.3912 -0.0999
  420loPI   C6A 6716  18.685  13.358   7.709 -0.3468 -0.1277  0.0383
  420loPI   C1B 6717  18.881  13.135  10.012 -0.0343  0.0376  0.0538
  420loPI   C2B 6718  18.929  13.368   9.622  0.0555 -0.0245  0.0277
  420loPI   C3B 6719  18.987  13.451   9.133 -0.0633  0.0743  0.0075
  420loPI   C4B 6720  19.033  13.576   8.758  0.1817  0.1006  0.1373
  421loPI    C1 6721   6.467  14.121  10.975  0.3833 -0.1924  0.1836
  421loPI    C2 6722   6.489  13.722  10.982 -0.0958 -0.2268  0.0427
  421loPI    C3 6723   6.381  13.922  11.311 -0.2855 -0.2462 -0.0069
  421loPI   PO4 6724   6.503  14.193  10.759 -0.0999  0.0283 -0.0161
  421loPI   GL1 6725   6.758  14.332  10.454  0.1400 -0.0109 -0.0145
  421loPI   GL2 6726   6.987  14.568  10.486  0.0233  0.0479 -0.0932
  421loPI   C1A 6727   6.721  14.309  10.051 -0.0503 -0.0233 -0.1543
  421loPI   C2A 6728   6.741  14.527   9.703  0.1793 -0.1645 -0.1027
  421loPI   C3A 6729   6.545  14.787   9.368 -0.0721 -0.0124 -0.1548
  421loPI   C4A 6730   6.297  14.974   9.054  0.0330  0.1226  0.1156
  421loPI   C5A 6731   6.042  14.779   8.709  0.2253 -0.0136 -0.0449
  421loPI   C6A 6732   6.014  14.820   8.258  0.2230  0.1050  0.0023
  421loPI   C1B 6733   7.009  14.672  10.090 -0.4493  0.0211  0.0710
  421loPI   C2B 6734   7.039  14.923   9.700 -0.0082  0.0083 -0.2832
  421loPI   C3B 6735   7.117  15.118   9.358  0.1200  0.0253  0.1299
  421loPI   C4B 6736   7.299  15.287   9.052  0.2953  0.3163 -0.1246
  422loPI    C1 6737   3.756   7.678  10.740  0.1309  0.0197 -0.2512
  422loPI    C2 6738   3.881   7.372  10.965 -0.1768  0.0318 -0.0585
  422loPI    C3 6739   3.751   7.709  11.139 -0.0032  0.2085 -0.2660
  422loPI   PO4 6740   3.883   7.674  10.485  0.3015 -0.3023 -0.2608
  422loPI   GL1 6741   3.764   7.538  10.160 -0.1720 -0.3151  0.1074
  422loPI   GL2 6742   3.574   7.757  10.079 -0.1301  0.1080 -0.2265
  422loPI   C1A 6743   4.131   7.571   9.803  0.0243  0.0570  0.2659
  422loPI   C2A 6744   4.076   7.530   9.443 -0.3128  0.2312  0.3389
  422loPI   C3A 6745   4.185   7.572   9.016  0.0465  0.1882  0.0212
  422loPI   C4A 6746   4.201   7.567   8.563  0.1324  0.1775  0.1409
  422loPI   C5A 6747   4.391   7.622   8.113 -0.0050  0.0968 -0.0892
  422loPI   C6A 6748   4.571   7.578   7.623 -0.1167  0.2464  0.2661
  422loPI   C1B 6749   3.634   7.625   9.693  0.1068  0.1825 -0.2060
  422loPI   C2B 6750   3.698   7.553   9.171  0.3913  0.0166 -0.0704
  422loPI   C3B 6751   3.603   7.496   8.732 -0.0470 -0.1189  0.0466
  422loPI   C4B 6752   3.570   7.828   8.459 -0.1122 -0.0302 -0.0942
  423loPI    C1 6753  11.247   1.572  11.251 -0.3818 -0.1339  0.0029
  423loPI    C2 6754  11.359   1.260  11.476  0.1126  0.0552  0.0317
  423loPI    C3 6755  11.281   1.613  11.648 -0.1207  0.0386 -0.0352
  423loPI   PO4 6756  11.449   1.435  11.017  0.0439 -0.3939 -0.1864
  423loPI   GL1 6757  11.320   1.424  10.620 -0.0313 -0.1275  0.1462
  423loPI   GL2 6758  11.315   1.136  10.476 -0.1332  0.1081  0.0789
  423loPI   C1A 6759  11.393   1.756  10.200  0.0059  0.1631 -0.2716
  423loPI   C2A 6760  11.486   1.731   9.851  0.2587 -0.1231  0.0264
  423loPI   C3A 6761  11.567   1.881   9.450 -0.0887  0.0539  0.6159
  423loPI   C4A 6762  11.681   1.876   9.024 -0.0728 -0.4073  0.0593
  423loPI   C5A 6763  11.603   1.835   8.552 -0.3291  0.0438  0.0839
  423loPI   C6A 6764  11.359   1.802   8.269 -0.1914  0.0630  0.1967
  423loPI   C1B 6765  11.331   1.249  10.118  0.1541 -0.0738  0.1920
  423loPI   C2B 6766  11.531   1.285   9.655  0.2013 -0.1938  0.0809
  423loPI   C3B 6767  11.675   1.335   9.199  0.3922 -0.0836 -0.0539
  423loPI   C4B 6768  11.674   1.240   8.738 -0.1146 -0.1117 -0.0834
  424loPI    C1 6769  15.797  14.976  10.850 -0.1625 -0.2409 -0.0140
  424loPI    C2 6770  15.607  15.284  10.680 -0.1107 -0.1607  0.0731
  424loPI    C3 6771  15.620  15.253  11.079  0.1085 -0.1339  0.0690
  424loPI   PO4 6772  15.619  14.738  10.599  0.1045 -0.0019 -0.0744
  424loPI   GL1 6773  15.303  14.668  10.328  0.0236 -0.1581  0.3070
  424loPI   GL2 6774  15.303  14.301  10.247 -0.0632  0.0303 -0.0495
  424loPI   C1A 6775  15.236  14.843   9.941  0.0026  0.0007 -0.0811
  424loPI   C2A 6776  15.371  15.075   9.611  0.2198 -0.1211  0.1091
  424loPI   C3A 6777  15.680  15.230   9.347  0.1022 -0.2929 -0.0669
  424loPI   C4A 6778  15.711  15.129   8.939 -0.1632  0.0716 -0.0317
  424loPI   C5A 6779  15.737  14.926   8.480  0.3265  0.0846 -0.0895
  424loPI   C6A 6780  15.768  14.778   8.084  0.1697 -0.0406  0.0433
  424loPI   C1B 6781  15.334  14.267   9.791 -0.1162  0.0947 -0.1811
  424loPI   C2B 6782  15.629  14.306   9.395  0.0017 -0.2001  0.2495
  424loPI   C3B 6783  15.486  14.273   9.033 -0.3701 -0.2127  0.2578
  424loPI   C4B 6784  15.204  14.408   8.817 -0.1677  0.3612 -0.2727
  425loPI    C1 6785   4.747   0.870  11.085 -0.1274  0.4132  0.1247
  425loPI    C2 6786   4.941   1.217  11.128 -0.0651  0.3607  0.2723
  425loPI    C3 6787   4.805   1.023  11.450  0.1564  0.1029  0.2142
  425loPI   PO4 6788   4.520   0.887  10.901 -0.1171 -0.2774 -0.0167
  425loPI   GL1 6789   4.313   0.931  10.519 -0.1500 -0.3986 -0.0113
  425loPI   GL2 6790   4.502   1.226  10.416  0.1377 -0.0197  0.1697
  425loPI   C1A 6791   4.067   0.951  10.203  0.0241  0.3376 -0.0394
  425loPI   C2A 6792   3.924   0.916   9.836  0.3937  0.1326 -0.0426
  425loPI   C3A 6793   3.825   1.097   9.404 -0.0036 -0.2314  0.1189
  425loPI   C4A 6794   3.646   1.231   9.051 -0.2355 -0.3072  0.0111
  425loPI   C5A 6795   3.476   1.258   8.538  0.2703  0.2717  0.2561
  425loPI   C6A 6796   3.470   1.376   8.104  0.0930 -0.0883 -0.1357
  425loPI   C1B 6797   4.463   1.095   9.965 -0.3711  0.1455 -0.1423
  425loPI   C2B 6798   4.382   1.003   9.570  0.3405  0.1215  0.2831
  425loPI   C3B 6799   4.473   0.782   9.225  0.1221  0.1228 -0.0467
  425loPI   C4B 6800   4.320   0.370   9.046 -0.2724  0.0286  0.1817
  426loPI    C1 6801  13.113   5.366  10.754 -0.0418  0.1415  0.0307
  426loPI    C2 6802  13.388   5.634  10.866 -0.1170  0.1614  0.1703
  426loPI    C3 6803  13.361   5.283  11.057  0.1003 -0.0227 -0.1284
  426loPI   PO4 6804  13.150   5.319  10.470  0.1318  0.1126 -0.1326
  426loPI   GL1 6805  13.073   5.481  10.037  0.0476  0.1302  0.0526
  426loPI   GL2 6806  12.872   5.246  10.011  0.1975 -0.1639  0.1416
  426loPI   C1A 6807  13.117   5.633   9.668 -0.0260 -0.1313 -0.1081
  426loPI   C2A 6808  13.228   5.699   9.216  0.0513 -0.2177 -0.2907
  426loPI   C3A 6809  12.902   5.712   8.957 -0.2742 -0.1378  0.0317
  426loPI   C4A 6810  12.758   5.822   8.534 -0.1048 -0.0874 -0.1484
  426loPI   C5A 6811  12.550   5.823   8.127  0.2546  0.0251 -0.2745
  426loPI   C6A 6812  12.478   6.231   7.863 -0.1693 -0.1803 -0.0095
  426loPI   C1B 6813  12.660   5.286   9.651  0.0467 -0.0794 -0.2349
  426loPI   C2B 6814  12.591   5.354   9.172  0.1689  0.1144  0.0422
  426loPI   C3B 6815  12.489   5.459   8.770  0.0174  0.2344  0.1749
  426loPI   C4B 6816  12.185   5.620   8.518  0.0766  0.0824 -0.4119
  427loPI    C1 6817   6.825   1.916  10.642  0.1064 -0.0679 -0.1314
  427loPI    C2 6818   6.619   1.952  10.983 -0.0049 -0.1039 -0.1941
  427loPI    C3 6819   7.001   2.070  10.967  0.0384 -0.2168 -0.0224
  427loPI   PO4 6820   6.539   1.874  10.491  0.2219 -0.1944 -0.2413
  427loPI   GL1 6821   6.499   1.484  10.258 -0.1464  0.2098 -0.2834
  427loPI   GL2 6822   6.854   1.274  10.149  0.1811  0.0184  0.0892
  427loPI   C1A 6823   6.490   1.476   9.869  0.2377  0.0151 -0.0686
  427loPI   C2A 6824   6.678   1.612   9.498 -0.1262  0.4059  0.3352
  427loPI   C3A 6825   6.491   1.613   9.114  0.1781  0.0273 -0.3632
  427loPI   C4A 6826   6.482   1.727   8.711 -0.0620 -0.2284  0.0432
  427loPI   C5A 6827   6.275   1.991   8.328 -0.4458 -0.0680  0.3188
  427loPI   C6A 6828   6.364   2.385   8.142 -0.1733 -0.2774 -0.1755
  427loPI   C1B 6829   6.879   1.163   9.804  0.1230  0.0470 -0.0614
  427loPI   C2B 6830   6.853   1.126   9.390  0.1928 -0.3964  0.0792
  427loPI   C3B 6831   6.695   0.918   9.139  0.2706 -0.0538 -0.0876
  427loPI   C4B 6832   6.494   0.825   8.734  0.4304 -0.4715  0.1652
  428loPI    C1 6833  17.022   1.213  10.770  0.0257  0.0274 -0.0859
  428loPI    C2 6834  16.882   0.979  11.063  0.1090 -0.1535 -0.1885
  428loPI    C3 6835  16.842   1.377  11.088  0.0832 -0.1694  0.0498
  428loPI   PO4 6836  16.990   1.112  10.560  0.0074 -0.0475  0.0454
  428loPI   GL1 6837  17.181   0.907  10.228 -0.0886 -0.3015  0.1408
  428loPI   GL2 6838  16.812   0.774  10.071 -0.0560 -0.2386  0.1873
  428loPI   C1A 6839  17.155   1.029   9.826 -0.0988 -0.2017  0.1107
  428loPI   C2A 6840  17.196   1.049   9.426  0.2352 -0.3432 -0.0866
  428loPI   C3A 6841  17.096   1.121   9.006  0.1606 -0.1360 -0.1349
  428loPI   C4A 6842  17.308   1.172   8.555 -0.0210  0.1186  0.0291
  428loPI   C5A 6843  17.246   1.289   8.184 -0.1053 -0.0380  0.1951
  428loPI   C6A 6844  16.912   1.252   7.935  0.1045  0.1092 -0.2969
  428loPI   C1B 6845  16.721   0.744   9.658  0.2179  0.0175 -0.0265
  428loPI   C2B 6846  16.762   0.732   9.106  0.1842  0.2861 -0.1937
  428loPI   C3B 6847  17.001   0.706   8.711  0.1364  0.1459 -0.1285
  428loPI   C4B 6848  17.237   0.668   8.354  0.0549  0.4288 -0.0005
  429loPI    C1 6849  17.868   8.751  10.499 -0.0095 -0.1771 -0.0621
  429loPI    C2 6850  17.680   8.871  10.831  0.1266 -0.3257  0.0704
  429loPI    C3 6851  18.078   8.895  10.807  0.1056 -0.1632 -0.1464
  429loPI   PO4 6852  17.653   8.652  10.334 -0.1901 -0.3017  0.0510
  429loPI   GL1 6853  17.695   8.762   9.874 -0.0861 -0.3584 -0.2710
  429loPI   GL2 6854  17.715   8.496   9.872  0.0775 -0.1169 -0.1827
  429loPI   C1A 6855  17.863   8.890   9.535 -0.0989  0.2339 -0.0508
  429loPI   C2A 6856  17.910   8.820   9.061  0.2813  0.0456  0.0163
  429loPI   C3A 6857  17.888   8.803   8.552 -0.1649 -0.1247  0.1095
  429loPI   C4A 6858  17.860   8.636   8.111 -0.0714  0.0981 -0.0784
  429loPI   C5A 6859  17.903   8.541   7.687 -0.2012  0.0579  0.1724
  429loPI   C6A 6860  17.967   8.585   7.232  0.2174  0.1558 -0.2633
  429loPI   C1B 6861  17.700   8.385   9.408 -0.2846 -0.0596  0.0013
  429loPI   C2B 6862  17.803   8.332   8.952 -0.1222 -0.1690 -0.1779
  429loPI   C3B 6863  17.830   8.370   8.637 -0.2478  0.2292  0.0373
  429loPI   C4B 6864  17.836   8.091   8.334  0.0531  0.1096 -0.1508
  430loPI    C1 6865   2.878   1.570  10.608  0.0131  0.2496 -0.1738
  430loPI    C2 6866   3.216   1.624  10.814  0.0240  0.1743 -0.1716
  430loPI    C3 6867   2.890   1.835  10.907 -0.0453 -0.0442  0.0953
  430loPI   PO4 6868   2.943   1.597  10.351  0.0377 -0.1097 -0.1413
  430loPI   GL1 6869   3.173   1.411  10.010  0.1057 -0.0526 -0.1029
  430loPI   GL2 6870   2.999   1.110   9.939  0.0674  0.2841 -0.1097
  430loPI   C1A 6871   3.251   1.346   9.575 -0.1332  0.1360 -0.0180
  430loPI   C2A 6872   3.233   1.444   9.191  0.1271  0.1177 -0.2623
  430loPI   C3A 6873   3.028   1.360   8.765 -0.3290  0.1512 -0.0749
  430loPI   C4A 6874   3.004   1.327   8.319 -0.0702 -0.3020 -0.0805
  430loPI   C5A 6875   2.896   1.244   7.884 -0.2512  0.2217 -0.1330
  430loPI   C6A 6876   2.850   0.886   7.659  0.3178  0.0381  0.1098
  430loPI   C1B 6877   2.890   1.000   9.506 -0.1297 -0.1137 -0.2263
  430loPI   C2B 6878   2.928   0.966   9.057  0.2499 -0.0397 -0.0747
  430loPI   C3B 6879   2.998   0.901   8.573  0.1199  0.0603  0.0264
  430loPI   C4B 6880   3.277   0.922   8.163 -0.2853  0.2886 -0.1633
  431loPI    C1 6881   6.325   6.654  10.588  0.2129  0.1544  0.0985
  431loPI    C2 6882   6.095   6.463  10.854  0.0712 -0.1025 -0.2007
  431loPI    C3 6883   6.408   6.276  10.689  0.1843  0.0698 -0.1851
  431loPI   PO4 6884   6.188   6.849  10.352 -0.0198  0.2655  0.2559
  431loPI   GL1 6885   6.169   6.874   9.908 -0.1701 -0.0050  0.1268
  431loPI   GL2 6886   5.995   6.595   9.907  0.0670  0.0206 -0.2743
  431loPI   C1A 6887   6.305   6.870   9.518  0.2029 -0.1786  0.2002
  431loPI   C2A 6888   6.262   6.812   9.098  0.0814 -0.2329 -0.0672
  431loPI   C3A 6889   6.362   6.714   8.718  0.1982  0.1732 -0.2325
  431loPI   C4A 6890   6.334   6.707   8.339 -0.0523  0.0951  0.1357
  431loPI   C5A 6891   6.565   7.020   8.105 -0.2215 -0.1428  0.1560
  431loPI   C6A 6892   6.244   7.219   7.815  0.0210 -0.2421  0.0785
  431loPI   C1B 6893   5.981   6.466   9.455 -0.3166 -0.0128 -0.1240
  431loPI   C2B 6894   6.052   6.382   9.030  0.1397 -0.0659 -0.0878
  431loPI   C3B 6895   6.078   6.292   8.543  0.0513 -0.3298  0.3428
  431loPI   C4B 6896   6.147   6.299   8.107  0.1120 -0.0050 -0.0153
  432loPI    C1 6897  15.070   9.124  10.315  0.0061 -0.3424 -0.0682
  432loPI    C2 6898  15.345   9.298  10.083  0.0088  0.1304  0.2749
  432loPI    C3 6899  15.458   9.045  10.371  0.0590  0.0829  0.2139
  432loPI   PO4 6900  14.900   9.333  10.327 -0.0621  0.1209  0.1051
  432loPI   GL1 6901  14.529   9.488  10.065 -0.3318 -0.0492 -0.0001
  432loPI   GL2 6902  14.986   9.643   9.870 -0.0569 -0.2637  0.1351
  432loPI   C1A 6903  14.506   9.344   9.565  0.1855 -0.0461 -0.1632
  432loPI   C2A 6904  14.566   8.910   9.340 -0.0439  0.1926  0.0433
  432loPI   C3A 6905  14.469   8.814   8.925 -0.0931  0.1713  0.0357
  432loPI   C4A 6906  14.410   8.665   8.458  0.1212 -0.2262 -0.0701
  432loPI   C5A 6907  14.213   8.764   8.012  0.2019  0.1131 -0.2538
  432loPI   C6A 6908  14.048   8.990   7.696  0.2794 -0.0249  0.0744
  432loPI   C1B 6909  15.266   9.503   9.478 -0.0591 -0.0795 -0.0061
  432loPI   C2B 6910  15.172   9.578   9.103 -0.0839  0.1241  0.0679
  432loPI   C3B 6911  15.065   9.876   8.840 -0.2549 -0.1168 -0.0042
  432loPI   C4B 6912  15.003  10.114   8.384  0.1104  0.1310  0.3279
  433loPI    C1 6913   5.168  15.233  11.282 -0.1437  0.1495 -0.0531
  433loPI    C2 6914   5.150  15.613  11.404 -0.1270  0.1144  0.0595
  433loPI    C3 6915   5.391  15.354  11.591 -0.1715  0.0381  0.0112
  433loPI   PO4 6916   5.072  15.283  11.035  0.1313  0.1817  0.1172
  433loPI   GL1 6917   4.958  15.328  10.647 -0.2682  0.1485 -0.0211
  433loPI   GL2 6918   5.280  15.382  10.554 -0.0855  0.1046  0.0674
  433loPI   C1A 6919   5.036  15.318  10.119  0.1923 -0.0457  0.0088
  433loPI   C2A 6920   5.046  15.274   9.607  0.3172  0.0367 -0.2740
  433loPI   C3A 6921   4.963  15.289   9.238  0.0416  0.2946 -0.1050
  433loPI   C4A 6922   4.925  15.161   8.765  0.1929 -0.1387  0.1372
  433loPI   C5A 6923   5.078  15.265   8.240  0.2379  0.0156  0.1996
  433loPI   C6A 6924   5.043  15.344   7.760 -0.5402 -0.0781  0.0129
  433loPI   C1B 6925   5.389  15.092  10.266  0.1476  0.2273 -0.0099
  433loPI   C2B 6926   5.492  15.052   9.852 -0.0869 -0.2062  0.0998
  433loPI   C3B 6927   5.412  15.111   9.401 -0.3202  0.2030  0.1904
  433loPI   C4B 6928   5.427  15.066   8.947 -0.1339 -0.2075 -0.2438
  434loPI    C1 6929  11.083  12.134  10.728  0.2530 -0.0340 -0.0177
  434loPI    C2 6930  10.800  11.954  10.946 -0.0248  0.3134 -0.0838
  434loPI    C3 6931  11.185  11.862  11.005 -0.1415 -0.1096  0.0592
  434loPI   PO4 6932  11.076  12.047  10.442 -0.1853  0.0969  0.1949
  434loPI   GL1 6933  10.980  12.122  10.113 -0.0403 -0.0364 -0.1448
  434loPI   GL2 6934  11.069  12.414  10.097  0.0630  0.3318 -0.0938
  434loPI   C1A 6935  10.685  11.906   9.858  0.0863 -0.1504 -0.1951
  434loPI   C2A 6936  10.578  11.741   9.520  0.2432 -0.0867 -0.0913
  434loPI   C3A 6937  10.572  11.710   9.023  0.0585  0.2456  0.1997
  434loPI   C4A 6938  10.563  11.744   8.580  0.1792 -0.0407  0.3070
  434loPI   C5A 6939  10.727  11.895   8.149 -0.0425 -0.1916  0.0965
  434loPI   C6A 6940  11.023  12.008   7.901 -0.0036 -0.0999 -0.0039
  434loPI   C1B 6941  11.062  12.767   9.899 -0.1152 -0.1012  0.2887
  434loPI   C2B 6942  11.040  12.748   9.469  0.0801 -0.0084  0.0779
  434loPI   C3B 6943  11.117  12.722   9.093 -0.2024  0.0188  0.0564
  434loPI   C4B 6944  11.114  12.746   8.711  0.2594  0.0377 -0.2615
  435loPI    C1 6945   8.115   6.553  11.170 -0.0646 -0.1448  0.0130
  435loPI    C2 6946   8.157   6.157  11.213  0.2650 -0.1159 -0.0205
  435loPI    C3 6947   8.285   6.404  11.500 -0.0933 -0.0373  0.0764
  435loPI   PO4 6948   7.852   6.506  10.999  0.1868  0.1136 -0.0451
  435loPI   GL1 6949   7.736   6.744  10.674 -0.1025 -0.0673 -0.1729
  435loPI   GL2 6950   7.702   6.525  10.456 -0.1208  0.0289 -0.0418
  435loPI   C1A 6951   8.044   6.920  10.445 -0.0845  0.0478 -0.1047
  435loPI   C2A 6952   8.321   6.844  10.196  0.0488  0.0454 -0.3313
  435loPI   C3A 6953   8.315   6.784   9.787 -0.2489  0.1775  0.2553
  435loPI   C4A 6954   8.332   6.786   9.340 -0.4693 -0.3452 -0.0665
  435loPI   C5A 6955   8.406   6.907   8.944 -0.1449 -0.1498 -0.2287
  435loPI   C6A 6956   8.712   6.987   8.606  0.0929  0.3980 -0.0717
  435loPI   C1B 6957   7.672   6.659  10.067  0.1326  0.0941 -0.3560
  435loPI   C2B 6958   7.786   6.788   9.647 -0.0934  0.2308  0.1436
  435loPI   C3B 6959   7.828   6.759   9.194  0.1529  0.0220  0.1960
  435loPI   C4B 6960   7.802   6.887   8.832  0.0478  0.0808  0.1684
  436loPI    C1 6961  16.593  11.020  10.752  0.0319  0.0083  0.1757
  436loPI    C2 6962  16.659  11.365  10.942  0.1792 -0.0435  0.2198
  436loPI    C3 6963  16.324  11.315  10.730  0.1441  0.1159  0.2362
  436loPI   PO4 6964  16.781  10.944  10.666 -0.1689  0.0623  0.3679
  436loPI   GL1 6965  16.944  11.000  10.227  0.1824 -0.3101 -0.1652
  436loPI   GL2 6966  16.551  11.057  10.172 -0.2133  0.3644  0.0627
  436loPI   C1A 6967  17.167  10.793   9.907 -0.0261 -0.3270  0.2222
  436loPI   C2A 6968  17.442  10.789   9.587 -0.2943 -0.2837  0.4448
  436loPI   C3A 6969  17.425  10.907   9.150  0.0218 -0.1084 -0.1409
  436loPI   C4A 6970  17.293  10.812   8.634  0.0142  0.1282  0.0145
  436loPI   C5A 6971  17.518  10.672   8.294 -0.0752 -0.1388  0.1742
  436loPI   C6A 6972  17.886  10.465   8.201  0.1653  0.0255  0.1437
  436loPI   C1B 6973  16.688  11.044   9.732 -0.2293  0.1365  0.0893
  436loPI   C2B 6974  16.589  11.142   9.289  0.0103 -0.0527  0.0413
  436loPI   C3B 6975  16.940  10.984   8.963 -0.2131  0.0802  0.1151
  436loPI   C4B 6976  17.280  11.290   8.767  0.0258  0.0906 -0.0547
  437loPI    C1 6977   7.107   2.391  10.604 -0.1397 -0.0762 -0.0044
  437loPI    C2 6978   7.329   2.477  10.925  0.0636 -0.0620 -0.1463
  437loPI    C3 6979   6.973   2.653  10.875  0.0726  0.0068  0.0225
  437loPI   PO4 6980   7.297   2.397  10.391  0.2716  0.0262 -0.3322
  437loPI   GL1 6981   7.410   2.062  10.054  0.2671 -0.1309 -0.1990
  437loPI   GL2 6982   7.362   2.418   9.906  0.0233 -0.2570 -0.0404
  437loPI   C1A 6983   7.274   1.853   9.660 -0.0791 -0.1347  0.0877
  437loPI   C2A 6984   7.031   1.904   9.391 -0.1340  0.1850  0.2044
  437loPI   C3A 6985   6.747   2.052   9.047  0.1260 -0.0315 -0.0687
  437loPI   C4A 6986   6.657   2.191   8.570  0.1214 -0.0097 -0.0220
  437loPI   C5A 6987   6.853   2.269   8.163  0.0429 -0.0873  0.1580
  437loPI   C6A 6988   7.330   2.462   8.186  0.1665 -0.3213 -0.2139
  437loPI   C1B 6989   7.289   2.305   9.475 -0.1448  0.0918  0.2603
  437loPI   C2B 6990   7.187   2.288   9.088  0.3256 -0.0642 -0.1581
  437loPI   C3B 6991   7.194   2.259   8.622  0.1542  0.0009  0.0520
  437loPI   C4B 6992   7.297   1.913   8.414  0.0026  0.2001  0.1466
  438loPI    C1 6993   3.812  13.778  10.977 -0.2677 -0.1648 -0.0280
  438loPI    C2 6994   3.533  13.815  11.262  0.0198  0.1005  0.2264
  438loPI    C3 6995   3.864  14.041  11.275  0.1896 -0.1183 -0.1410
  438loPI   PO4 6996   3.721  13.792  10.666 -0.1976  0.0585  0.1633
  438loPI   GL1 6997   3.452  13.909  10.345  0.1174  0.0473  0.1740
  438loPI   GL2 6998   3.289  14.177  10.369  0.1563 -0.0064  0.2069
  438loPI   C1A 6999   3.103  13.940   9.993 -0.1268 -0.2782 -0.1228
  438loPI   C2A 7000   2.962  14.086   9.629 -0.1248 -0.3170  0.0614
  438loPI   C3A 7001   2.906  14.170   9.200  0.1553  0.0917  0.0108
  438loPI   C4A 7002   2.981  14.233   8.711 -0.0689  0.2462 -0.1616
  438loPI   C5A 7003   2.807  14.266   8.231 -0.0045  0.0106  0.0554
  438loPI   C6A 7004   2.828  14.629   8.045  0.1272 -0.1344 -0.0734
  438loPI   C1B 7005   3.402  14.396   9.981 -0.0937 -0.1271  0.2155
  438loPI   C2B 7006   3.404  14.371   9.586  0.1038  0.3174 -0.1227
  438loPI   C3B 7007   3.371  14.402   9.104 -0.1834  0.0235  0.1015
  438loPI   C4B 7008   3.424  14.484   8.709 -0.0285 -0.1121 -0.4300
  439loPI    C1 7009   1.470  11.106  10.574 -0.2049 -0.1664  0.0521
  439loPI    C2 7010   1.142  11.021  10.361 -0.2632 -0.2323  0.1668
  439loPI    C3 7011   1.107  11.171  10.730 -0.1623  0.0558  0.0620
  439loPI   PO4 7012   1.614  10.880  10.509 -0.2112 -0.2428  0.0877
  439loPI   GL1 7013   1.871  10.937  10.284 -0.0495  0.2206 -0.3037
  439loPI   GL2 7014   1.934  10.625  10.172  0.0199 -0.1539  0.0053
  439loPI   C1A 7015   1.718  10.900   9.838  0.2135  0.1030  0.3002
  439loPI   C2A 7016   1.640  10.921   9.426 -0.1948 -0.1626  0.1454
  439loPI   C3A 7017   1.628  11.254   9.059 -0.3740 -0.0438 -0.1774
  439loPI   C4A 7018   1.558  11.367   8.704  0.1899 -0.1963 -0.1260
  439loPI   C5A 7019   1.688  11.520   8.347 -0.1305  0.0618  0.0774
  439loPI   C6A 7020   2.080  11.353   8.025 -0.0739  0.0567 -0.2931
  439loPI   C1B 7021   1.568  10.445   9.879 -0.2447 -0.1951 -0.2344
  439loPI   C2B 7022   1.346  10.320   9.516 -0.1484  0.3382 -0.0717
  439loPI   C3B 7023   1.404  10.455   9.004  0.1383 -0.3276  0.2612
  439loPI   C4B 7024   1.283  10.540   8.550  0.0602 -0.0353  0.0290
  440loPI    C1 7025   5.265   2.015  10.717 -0.0580 -0.1139 -0.0438
  440loPI    C2 7026   4.882   2.062  10.822  0.0326  0.1254  0.1933
  440loPI    C3 7027   5.108   1.790  11.008 -0.0816 -0.1876 -0.1130
  440loPI   PO4 7028   5.271   2.078  10.531 -0.0154 -0.1300  0.3438
  440loPI   GL1 7029   5.251   2.030  10.177  0.3379  0.0187 -0.1455
  440loPI   GL2 7030   5.044   2.339  10.186 -0.3894 -0.0487  0.1026
  440loPI   C1A 7031   5.295   2.116   9.750  0.2268 -0.1045  0.1036
  440loPI   C2A 7032   5.316   2.130   9.259  0.0292 -0.0803 -0.0330
  440loPI   C3A 7033   5.366   2.408   8.853  0.0588  0.2649 -0.2365
  440loPI   C4A 7034   5.449   2.624   8.574  0.1143  0.0604 -0.3981
  440loPI   C5A 7035   5.843   2.581   8.456  0.3304 -0.3704 -0.1647
  440loPI   C6A 7036   6.285   2.750   8.429 -0.0111 -0.2505  0.1022
  440loPI   C1B 7037   5.090   2.637   9.922 -0.2597  0.2406  0.0469
  440loPI   C2B 7038   5.096   2.614   9.488 -0.0816 -0.0887 -0.0821
  440loPI   C3B 7039   4.953   2.674   9.030  0.2135  0.0254  0.1653
  440loPI   C4B 7040   5.002   2.720   8.624  0.2084 -0.0061 -0.0866
  441loPI    C1 7041   2.133   2.137  10.426  0.2102 -0.0148  0.0187
  441loPI    C2 7042   2.041   2.392  10.131  0.3189 -0.0612 -0.0558
  441loPI    C3 7043   1.929   2.472  10.506 -0.1218 -0.1691 -0.1581
  441loPI   PO4 7044   2.040   1.968  10.363  0.2207  0.1220  0.3125
  441loPI   GL1 7045   1.919   1.895   9.908  0.1581 -0.1431  0.4465
  441loPI   GL2 7046   1.661   2.144   9.798  0.1315 -0.1647  0.2470
  441loPI   C1A 7047   2.206   2.021   9.655 -0.3760  0.3579 -0.2735
  441loPI   C2A 7048   2.203   1.941   9.305  0.1520 -0.1347 -0.1149
  441loPI   C3A 7049   2.186   1.985   8.897 -0.2341  0.1284 -0.2538
  441loPI   C4A 7050   2.157   1.896   8.456 -0.4006  0.2351 -0.1178
  441loPI   C5A 7051   1.917   1.963   8.201 -0.0158  0.0746 -0.0020
  441loPI   C6A 7052   1.473   2.240   8.181  0.0977  0.4024 -0.0061
  441loPI   C1B 7053   1.733   1.866   9.461 -0.0669  0.1370 -0.1175
  441loPI   C2B 7054   1.737   1.827   9.092  0.5502  0.2075 -0.0309
  441loPI   C3B 7055   1.473   1.573   8.875 -0.3469 -0.2523 -0.4307
  441loPI   C4B 7056   1.584   1.308   8.523 -0.3111 -0.3879  0.0631
  442loPI    C1 7057   5.706  12.643  10.820  0.1568 -0.0276  0.0239
  442loPI    C2 7058   5.338  12.557  10.950  0.2044  0.1212  0.2643
  442loPI    C3 7059   5.634  12.293  11.000  0.1684  0.0738  0.2286
  442loPI   PO4 7060   5.723  12.612  10.604 -0.0065  0.0887 -0.0820
  442loPI   GL1 7061   5.477  12.524  10.278  0.0242  0.1011 -0.2105
  442loPI   GL2 7062   5.180  12.354  10.161  0.1014 -0.2926 -0.0187
  442loPI   C1A 7063   5.410  12.727   9.904 -0.0062 -0.0364 -0.1410
  442loPI   C2A 7064   5.333  12.712   9.472 -0.0182 -0.0283  0.4611
  442loPI   C3A 7065   5.177  12.479   9.150 -0.3202  0.0643 -0.0522
  442loPI   C4A 7066   5.269  12.393   8.654 -0.0432 -0.3182  0.2084
  442loPI   C5A 7067   5.166  12.282   8.239 -0.0452 -0.1022 -0.2920
  442loPI   C6A 7068   5.147  11.903   8.010  0.1710 -0.2339  0.3157
  442loPI   C1B 7069   5.063  12.353   9.772 -0.0227  0.1038 -0.0153
  442loPI   C2B 7070   4.942  12.111   9.437 -0.2570 -0.1772  0.0208
  442loPI   C3B 7071   4.964  12.013   9.055 -0.1432 -0.0939  0.0637
  442loPI   C4B 7072   5.071  11.919   8.640  0.1644 -0.1287  0.0980
  443loPI    C1 7073  11.155   7.056  10.814 -0.0515  0.1440  0.0189
  443loPI    C2 7074  11.301   6.739  11.008 -0.0999  0.1469  0.0601
  443loPI    C3 7075  11.508   7.081  10.999  0.0050  0.0807 -0.0794
  443loPI   PO4 7076  11.079   6.878  10.575 -0.0483  0.1353  0.1843
  443loPI   GL1 7077  10.837   6.927  10.249  0.1180 -0.0102  0.1535
  443loPI   GL2 7078  11.078   7.036  10.055 -0.2658  0.1285  0.3038
  443loPI   C1A 7079  10.566   6.618   9.996 -0.2147  0.1493  0.1604
  443loPI   C2A 7080  10.606   6.504   9.601  0.1339 -0.1957 -0.0152
  443loPI   C3A 7081  10.753   6.409   9.153  0.0377  0.2257  0.0669
  443loPI   C4A 7082  10.894   6.373   8.746 -0.0246 -0.2064  0.2308
  443loPI   C5A 7083  10.859   6.275   8.298  0.2466  0.1743 -0.0084
  443loPI   C6A 7084  10.690   6.398   7.924  0.0885  0.4727 -0.4843
  443loPI   C1B 7085  10.828   6.920   9.701 -0.2789  0.2746  0.2060
  443loPI   C2B 7086  10.948   6.873   9.300 -0.0516  0.0014 -0.2076
  443loPI   C3B 7087  11.018   6.768   8.969  0.1544  0.1567 -0.3217
  443loPI   C4B 7088  11.082   6.811   8.508 -0.2261  0.1991 -0.0130
  444loPI    C1 7089   2.034  11.977  10.694  0.0490  0.0036 -0.0703
  444loPI    C2 7090   2.403  12.118  10.632  0.0585 -0.0202 -0.0683
  444loPI    C3 7091   2.288  12.012  11.000  0.0720 -0.0769 -0.0803
  444loPI   PO4 7092   1.959  11.863  10.502 -0.2355 -0.0257 -0.3129
  444loPI   GL1 7093   1.603  11.949  10.250  0.0228 -0.2513 -0.0734
  444loPI   GL2 7094   1.751  12.140  10.103  0.0439 -0.1843  0.0483
  444loPI   C1A 7095   1.326  12.134   9.880 -0.2256 -0.0808 -0.1328
  444loPI   C2A 7096   1.432  12.245   9.570 -0.0381  0.1270 -0.0302
  444loPI   C3A 7097   1.715  12.175   9.156  0.0630 -0.2001 -0.1253
  444loPI   C4A 7098   1.713  11.980   8.739 -0.4376 -0.1612 -0.1125
  444loPI   C5A 7099   1.793  12.074   8.284 -0.0970  0.2526  0.1218
  444loPI   C6A 7100   2.014  12.325   7.950 -0.0292  0.1463 -0.0803
  444loPI   C1B 7101   1.942  12.125   9.645 -0.0312 -0.4244  0.0609
  444loPI   C2B 7102   2.142  11.998   9.367  0.2532 -0.0759 -0.0988
  444loPI   C3B 7103   2.190  12.077   8.856  0.1776 -0.0633 -0.2488
  444loPI   C4B 7104   2.195  12.241   8.467 -0.1000  0.0205  0.1831
  445loPI    C1 7105   6.654  17.167  10.939 -0.0922  0.0791  0.1040
  445loPI    C2 7106   6.519  16.918  11.221 -0.0117 -0.0498  0.0301
  445loPI    C3 7107   6.617  17.294  11.316 -0.3798  0.0344  0.0937
  445loPI   PO4 7108   6.531  17.045  10.741  0.0570 -0.2243 -0.0943
  445loPI   GL1 7109   6.509  16.756  10.344 -0.2880  0.0906 -0.2812
  445loPI   GL2 7110   6.875  16.763  10.206  0.3286  0.4749  0.1436
  445loPI   C1A 7111   6.415  17.020  10.083 -0.0313  0.1319  0.1133
  445loPI   C2A 7112   6.497  17.105   9.670 -0.2712  0.0650  0.1568
  445loPI   C3A 7113   6.432  17.023   9.281  0.1261  0.2005  0.1472
  445loPI   C4A 7114   6.535  16.986   8.859  0.0994  0.0006  0.2291
  445loPI   C5A 7115   6.940  16.974   8.585 -0.2007  0.0108  0.0095
  445loPI   C6A 7116   7.265  17.098   8.335 -0.2430  0.1398 -0.0869
  445loPI   C1B 7117   6.601  16.649   9.844 -0.4586 -0.2720 -0.1417
  445loPI   C2B 7118   6.548  16.549   9.494 -0.0025  0.1160 -0.1154
  445loPI   C3B 7119   6.578  16.519   8.994  0.2507 -0.0758 -0.3876
  445loPI   C4B 7120   6.643  16.493   8.555  0.0081  0.2315 -0.1547
  446loPI    C1 7121   2.033  14.406  11.194 -0.2006 -0.0304  0.0895
  446loPI    C2 7122   2.403  14.546  11.254 -0.1126 -0.1404 -0.1834
  446loPI    C3 7123   2.224  14.327  11.536 -0.0037 -0.0152 -0.0154
  446loPI   PO4 7124   2.009  14.329  10.916  0.0245  0.0437 -0.3779
  446loPI   GL1 7125   1.996  14.393  10.546 -0.0926  0.1340  0.0473
  446loPI   GL2 7126   1.688  14.252  10.412  0.1661  0.2214 -0.1316
  446loPI   C1A 7127   2.080  14.353  10.018 -0.1425  0.2310 -0.2194
  446loPI   C2A 7128   1.997  14.405   9.581  0.0687 -0.0382 -0.1746
  446loPI   C3A 7129   1.925  14.372   9.281 -0.2492 -0.1150  0.2027
  446loPI   C4A 7130   1.875  14.485   8.871  0.0647  0.2340 -0.1767
  446loPI   C5A 7131   1.921  14.586   8.465  0.1834 -0.2622  0.0485
  446loPI   C6A 7132   1.881  14.671   8.004  0.4258 -0.0586  0.2454
  446loPI   C1B 7133   1.743  14.020  10.002  0.2816 -0.0338 -0.0332
  446loPI   C2B 7134   1.488  14.027   9.570 -0.1200  0.0285 -0.0762
  446loPI   C3B 7135   1.555  14.087   9.140  0.0150  0.1406 -0.1830
  446loPI   C4B 7136   1.492  14.188   8.714  0.1388 -0.1107  0.1975
  447loPI    C1 7137  18.204  18.041  11.082  0.1856 -0.3329 -0.1185
  447loPI    C2 7138  18.490  17.874  11.307  0.2373 -0.0650  0.0184
  447loPI    C3 7139  18.447  18.272  11.301 -0.1242 -0.1012 -0.0123
  447loPI   PO4 7140  18.188  17.995  10.944  0.1575  0.1474 -0.0796
  447loPI   GL1 7141  18.338  17.944  10.585  0.1813  0.1602  0.1059
  447loPI   GL2 7142  18.646  17.841  10.448 -0.1445 -0.2790  0.1753
  447loPI   C1A 7143  18.281  17.999  10.109 -0.0312 -0.0516  0.1439
  447loPI   C2A 7144  18.021  18.224   9.828  0.1578 -0.1295 -0.1550
  447loPI   C3A 7145  17.917  18.278   9.476  0.0161  0.3709 -0.0708
  447loPI   C4A 7146  18.005  18.343   9.114 -0.0904  0.2147 -0.1097
  447loPI   C5A 7147  17.887  18.332   8.666  0.0327 -0.0352  0.0706
  447loPI   C6A 7148  17.932  18.489   8.180 -0.2474  0.2487  0.0710
  447loPI   C1B 7149  18.614  17.688  10.089 -0.1471 -0.1602 -0.1232
  447loPI   C2B 7150  18.449  17.613   9.686  0.2508 -0.0697 -0.2214
  447loPI   C3B 7151  18.621  17.592   9.265 -0.0289 -0.1702 -0.0460
  447loPI   C4B 7152  18.482  17.664   8.884 -0.2269 -0.0419 -0.0794
  448loPI    C1 7153  11.367   2.490  10.999 -0.0081 -0.1245 -0.1794
  448loPI    C2 7154  11.389   2.615  11.378 -0.1180 -0.2512 -0.1305
  448loPI    C3 7155  11.343   2.880  11.082  0.1664 -0.1354 -0.0737
  448loPI   PO4 7156  11.618   2.331  10.997  0.3542 -0.1940 -0.2048
  448loPI   GL1 7157  11.801   2.228  10.724  0.1631 -0.1490  0.1375
  448loPI   GL2 7158  12.059   2.432  10.550  0.1152 -0.1322 -0.0595
  448loPI   C1A 7159  11.861   2.013  10.308 -0.2110 -0.0666 -0.0910
  448loPI   C2A 7160  11.986   2.030   9.871  0.1226  0.1107  0.1188
  448loPI   C3A 7161  12.067   2.149   9.479  0.2899  0.1409  0.1499
  448loPI   C4A 7162  12.104   2.133   8.996  0.2588 -0.0836 -0.0270
  448loPI   C5A 7163  12.008   2.113   8.512 -0.4120 -0.0539 -0.0311
  448loPI   C6A 7164  11.993   2.384   8.112  0.1274 -0.1016 -0.1537
  448loPI   C1B 7165  12.192   2.378  10.160 -0.0627  0.1611  0.2015
  448loPI   C2B 7166  12.376   2.446   9.755  0.0320 -0.1431 -0.1179
  448loPI   C3B 7167  12.399   2.457   9.290 -0.0522  0.2593 -0.1691
  448loPI   C4B 7168  12.519   2.481   8.829 -0.0329 -0.0495 -0.1579
  449loPI    C1 7169  14.327   3.034  10.763 -0.0740 -0.3434 -0.0072
  449loPI    C2 7170  14.348   2.788  11.078 -0.0629 -0.0198  0.2496
  449loPI    C3 7171  14.449   3.173  11.117  0.1111 -0.0144 -0.1956
  449loPI   PO4 7172  14.438   2.903  10.587 -0.2372  0.0472 -0.2124
  449loPI   GL1 7173  14.544   2.939  10.152  0.1476 -0.1999 -0.0838
  449loPI   GL2 7174  14.326   3.104  10.092  0.0181 -0.1226  0.2553
  449loPI   C1A 7175  14.304   2.662   9.782  0.0004  0.2429 -0.0062
  449loPI   C2A 7176  14.203   2.584   9.371 -0.2105  0.0958 -0.3012
  449loPI   C3A 7177  14.239   2.627   8.903  0.1658 -0.1854 -0.0750
  449loPI   C4A 7178  14.281   2.688   8.455  0.1962 -0.1592  0.1621
  449loPI   C5A 7179  14.376   2.335   8.198 -0.0211 -0.2952  0.4412
  449loPI   C6A 7180  14.196   1.963   7.990 -0.1003 -0.1791 -0.2502
  449loPI   C1B 7181  14.120   3.136   9.767 -0.0905  0.1691 -0.0093
  449loPI   C2B 7182  14.186   3.230   9.424 -0.3632  0.0073 -0.2216
  449loPI   C3B 7183  14.225   3.258   9.014  0.1047  0.0773 -0.1087
  449loPI   C4B 7184  14.096   3.268   8.514 -0.5410  0.0082  0.1630
  450loPI    C1 7185  17.679   1.886  10.627  0.0137 -0.3558  0.1068
  450loPI    C2 7186  17.977   2.079  10.811 -0.1541  0.0640 -0.0485
  450loPI    C3 7187  17.716   1.864  11.025 -0.0219  0.0878  0.1400
  450loPI   PO4 7188  17.588   2.056  10.507 -0.0055  0.1634 -0.1137
  450loPI   GL1 7189  17.487   2.024  10.082  0.1324  0.0144  0.0764
  450loPI   GL2 7190  17.234   1.825  10.071  0.2426  0.0040 -0.1079
  450loPI   C1A 7191  17.352   1.982   9.655 -0.0771  0.2326  0.2598
  450loPI   C2A 7192  17.446   1.892   9.173  0.0319 -0.0445 -0.1288
  450loPI   C3A 7193  17.458   1.953   8.697  0.0859 -0.0465  0.0247
  450loPI   C4A 7194  17.476   2.241   8.417 -0.3395 -0.2558 -0.0144
  450loPI   C5A 7195  17.552   2.309   8.035  0.0203  0.0066  0.0061
  450loPI   C6A 7196  17.590   2.293   7.723  0.0973 -0.0959  0.4558
  450loPI   C1B 7197  16.921   1.978   9.877  0.2203 -0.3448  0.2169
  450loPI   C2B 7198  16.605   1.794   9.593  0.2942 -0.1056  0.0128
  450loPI   C3B 7199  16.576   1.682   9.203 -0.0618 -0.0341 -0.3518
  450loPI   C4B 7200  16.536   1.799   8.864  0.0151 -0.2371  0.1820
  451loPI    C1 7201  15.378   5.488  10.524  0.0089 -0.0984 -0.0715
  451loPI    C2 7202  15.673   5.619  10.760  0.0024  0.0524 -0.1456
  451loPI    C3 7203  15.387   5.383  10.910  0.2178 -0.1838 -0.0984
  451loPI   PO4 7204  15.444   5.453  10.344  0.1177  0.1382  0.1234
  451loPI   GL1 7205  15.551   5.604  10.018  0.0613 -0.1500  0.0049
  451loPI   GL2 7206  15.482   5.803   9.982 -0.0298 -0.2021 -0.0988
  451loPI   C1A 7207  15.693   5.470   9.569 -0.1093  0.0792  0.2198
  451loPI   C2A 7208  15.835   5.331   9.190  0.1788  0.1832  0.0559
  451loPI   C3A 7209  15.497   5.243   8.843 -0.1592 -0.0353  0.0517
  451loPI   C4A 7210  15.191   5.065   8.554  0.1764  0.0203  0.4403
  451loPI   C5A 7211  15.220   4.816   8.197  0.3523  0.0503 -0.1935
  451loPI   C6A 7212  15.037   4.438   8.068  0.0906 -0.2737  0.2211
  451loPI   C1B 7213  15.408   5.849   9.583  0.1167  0.1774  0.0402
  451loPI   C2B 7214  15.572   5.725   9.163  0.3004  0.2714  0.0721
  451loPI   C3B 7215  15.380   5.703   8.716 -0.0476 -0.1381  0.1805
  451loPI   C4B 7216  15.112   5.612   8.352 -0.2819  0.0655 -0.0095
  452loPI    C1 7217   4.718  15.643  11.089  0.3502  0.1624 -0.0960
  452loPI    C2 7218   4.752  15.978  11.304  0.0839  0.1574 -0.0421
  452loPI    C3 7219   4.656  15.634  11.484  0.0591  0.1127 -0.1404
  452loPI   PO4 7220   4.585  15.724  10.876 -0.1097 -0.3388 -0.2354
  452loPI   GL1 7221   4.697  15.776  10.430  0.0183  0.1470 -0.0196
  452loPI   GL2 7222   5.032  15.785  10.362 -0.0797  0.3653 -0.4654
  452loPI   C1A 7223   4.450  15.949  10.080  0.0748  0.0704 -0.2866
  452loPI   C2A 7224   4.439  15.976   9.585  0.1692 -0.4182  0.0230
  452loPI   C3A 7225   4.441  15.897   9.112 -0.1815 -0.2427  0.0555
  452loPI   C4A 7226   4.424  15.863   8.673 -0.1653 -0.0484 -0.0597
  452loPI   C5A 7227   4.348  15.879   8.270  0.0878  0.2234  0.1576
  452loPI   C6A 7228   3.963  15.769   7.991 -0.0997 -0.2017 -0.0020
  452loPI   C1B 7229   4.934  15.816   9.955 -0.0794  0.1862  0.2162
  452loPI   C2B 7230   4.883  15.810   9.483 -0.0817 -0.0476 -0.1493
  452loPI   C3B 7231   4.954  15.728   8.997  0.4872 -0.1127  0.0599
  452loPI   C4B 7232   4.913  15.709   8.607 -0.1171 -0.0529 -0.0089
  453loPI    C1 7233   6.032  12.901  11.090  0.2108  0.0930 -0.1094
  453loPI    C2 7234   6.341  12.647  11.100 -0.0008 -0.1652 -0.0041
  453loPI    C3 7235   5.981  12.530  11.229 -0.1053  0.1875  0.0374
  453loPI   PO4 7236   6.062  13.076  10.767  0.3056  0.1486  0.1268
  453loPI   GL1 7237   6.087  13.149  10.324 -0.1819  0.0632  0.0444
  453loPI   GL2 7238   5.824  12.941  10.285 -0.3884 -0.0959  0.1650
  453loPI   C1A 7239   6.348  13.353   9.964 -0.2322  0.2227 -0.2601
  453loPI   C2A 7240   6.275  13.190   9.581  0.1534  0.2736 -0.0785
  453loPI   C3A 7241   6.183  13.254   9.182 -0.0655  0.3051 -0.1881
  453loPI   C4A 7242   6.404  13.340   8.823  0.0010 -0.0866 -0.3428
  453loPI   C5A 7243   6.377  13.492   8.433  0.1894 -0.1368  0.2392
  453loPI   C6A 7244   6.577  13.617   7.989  0.1450 -0.0791  0.2063
  453loPI   C1B 7245   5.934  12.942   9.885  0.0605  0.0224  0.1012
  453loPI   C2B 7246   5.759  12.948   9.431 -0.0490 -0.2068 -0.0047
  453loPI   C3B 7247   5.642  12.899   9.034  0.0500 -0.2027 -0.0396
  453loPI   C4B 7248   5.575  12.796   8.598  0.2092 -0.2526  0.3784
  454loPI    C1 7249   2.581  15.233  10.989  0.0243  0.1113  0.3086
  454loPI    C2 7250   2.944  15.286  11.150  0.1802 -0.0581  0.0206
  454loPI    C3 7251   2.717  14.978  11.265  0.1538  0.0105  0.1537
  454loPI   PO4 7252   2.617  15.281  10.742  0.1120 -0.2737  0.1619
  454loPI   GL1 7253   2.656  14.975  10.351 -0.4287  0.0640 -0.1669
  454loPI   GL2 7254   2.814  15.094  10.131  0.2526  0.0500 -0.0860
  454loPI   C1A 7255   2.400  14.766  10.053  0.1006  0.0149 -0.0025
  454loPI   C2A 7256   2.404  14.703   9.640 -0.2282  0.0764 -0.1850
  454loPI   C3A 7257   2.330  14.696   9.189  0.0720 -0.3854 -0.1919
  454loPI   C4A 7258   2.287  14.786   8.712 -0.0855  0.0175 -0.1032
  454loPI   C5A 7259   2.313  14.814   8.320 -0.1655  0.0163 -0.0452
  454loPI   C6A 7260   2.415  14.895   7.883  0.3175 -0.1631 -0.1669
  454loPI   C1B 7261   2.769  15.051   9.698  0.1328 -0.1129 -0.2324
  454loPI   C2B 7262   2.741  15.092   9.227 -0.0440  0.3389  0.0973
  454loPI   C3B 7263   2.690  15.139   8.813 -0.0624  0.1941  0.0459
  454loPI   C4B 7264   2.715  15.107   8.366 -0.0748 -0.0933  0.1312
  455loPI    C1 7265   1.506   6.806  10.823 -0.0945 -0.0791 -0.0816
  455loPI    C2 7266   1.430   6.472  11.029  0.0943 -0.0125  0.0996
  455loPI    C3 7267   1.296   6.824  11.163 -0.0318 -0.0039 -0.0466
  455loPI   PO4 7268   1.568   6.771  10.569 -0.1126 -0.2294  0.0530
  455loPI   GL1 7269   1.502   6.506  10.206  0.2011  0.1727 -0.0854
  455loPI   GL2 7270   1.316   6.250  10.072 -0.0683  0.2279 -0.2867
  455loPI   C1A 7271   1.569   6.677   9.876  0.1639  0.0954 -0.0065
  455loPI   C2A 7272   1.645   6.584   9.537 -0.0211 -0.0036  0.0305
  455loPI   C3A 7273   1.655   6.605   9.090  0.0376 -0.0236 -0.1900
  455loPI   C4A 7274   1.588   6.669   8.682  0.1333  0.1947 -0.0335
  455loPI   C5A 7275   1.597   6.622   8.213 -0.3056 -0.0902 -0.0185
  455loPI   C6A 7276   1.437   6.381   7.814  0.1460  0.0065 -0.1308
  455loPI   C1B 7277   1.468   6.145   9.646 -0.1047 -0.1034 -0.2130
  455loPI   C2B 7278   1.470   6.114   9.204  0.1276  0.0927 -0.1172
  455loPI   C3B 7279   1.461   6.200   8.767 -0.0215  0.0821  0.0022
  455loPI   C4B 7280   1.514   6.138   8.309 -0.1460 -0.2714 -0.0287
  456loPI    C1 7281   2.805   9.321  10.636  0.0308 -0.0283  0.0127
  456loPI    C2 7282   2.603   9.163  10.943 -0.0810 -0.2517 -0.1735
  456loPI    C3 7283   2.928   9.386  11.011 -0.0897 -0.3210  0.1052
  456loPI   PO4 7284   2.731   9.159  10.490  0.2582 -0.3960  0.0527
  456loPI   GL1 7285   2.800   9.133  10.016 -0.1477  0.3502 -0.0230
  456loPI   GL2 7286   2.859   8.812   9.800 -0.0484  0.2432  0.0195
  456loPI   C1A 7287   3.017   9.305   9.713  0.1366  0.1066 -0.1624
  456loPI   C2A 7288   3.154   9.399   9.269  0.0045 -0.1487  0.2876
  456loPI   C3A 7289   3.100   9.529   8.799  0.2724 -0.0401 -0.0135
  456loPI   C4A 7290   3.072   9.684   8.453  0.2128  0.1265 -0.0448
  456loPI   C5A 7291   3.098  10.035   8.157 -0.3438 -0.1491  0.0703
  456loPI   C6A 7292   2.904  10.267   7.870 -0.0245  0.1619  0.2672
  456loPI   C1B 7293   2.921   8.902   9.368 -0.0638  0.1854  0.3781
  456loPI   C2B 7294   2.749   8.966   8.982 -0.1606  0.0127  0.1105
  456loPI   C3B 7295   2.360   8.939   8.737 -0.0940 -0.2807 -0.0837
  456loPI   C4B 7296   2.077   9.344   8.492 -0.1809  0.1384 -0.0400
  457loPI    C1 7297   5.833   7.861  10.568  0.1197 -0.0270 -0.2073
  457loPI    C2 7298   5.697   7.487  10.608  0.1801 -0.0238  0.0429
  457loPI    C3 7299   5.509   7.789  10.791  0.1730  0.0597 -0.1006
  457loPI   PO4 7300   6.126   7.748  10.557 -0.0427  0.1221  0.0672
  457loPI   GL1 7301   6.153   7.452  10.119 -0.0681 -0.0766  0.2015
  457loPI   GL2 7302   5.891   7.260  10.150 -0.1594  0.0775 -0.1313
  457loPI   C1A 7303   6.287   7.657   9.768  0.0054 -0.2606  0.3566
  457loPI   C2A 7304   6.200   7.675   9.417  0.1287 -0.1693  0.0986
  457loPI   C3A 7305   6.278   7.633   8.969 -0.0916  0.1232  0.3003
  457loPI   C4A 7306   6.439   7.568   8.602 -0.0181  0.2237  0.1956
  457loPI   C5A 7307   6.622   7.566   8.188 -0.0305 -0.0061  0.1955
  457loPI   C6A 7308   6.818   7.411   7.869 -0.1140 -0.2658  0.0393
  457loPI   C1B 7309   5.952   7.241   9.632 -0.1121  0.1100  0.2561
  457loPI   C2B 7310   5.999   7.207   9.199 -0.1522 -0.1335 -0.4250
  457loPI   C3B 7311   6.131   7.172   8.654  0.0569  0.0952 -0.0430
  457loPI   C4B 7312   6.017   7.140   8.236  0.0702  0.0526  0.2768
  458loPI    C1 7313  14.056   9.890  10.897  0.1658 -0.0400 -0.0572
  458loPI    C2 7314  14.362   9.689  11.060  0.1220 -0.0509  0.0120
  458loPI    C3 7315  13.991   9.637  11.201  0.1537  0.3136  0.2412
  458loPI   PO4 7316  14.095   9.921  10.657 -0.1166 -0.2471 -0.0748
  458loPI   GL1 7317  14.125   9.993  10.296 -0.1096 -0.2850  0.2265
  458loPI   GL2 7318  14.388  10.228  10.193  0.0472 -0.0953 -0.1353
  458loPI   C1A 7319  14.335   9.885   9.853 -0.0943  0.4236  0.1967
  458loPI   C2A 7320  14.149   9.741   9.371  0.0064  0.1717  0.1471
  458loPI   C3A 7321  14.056   9.505   8.974  0.0417  0.3351 -0.2028
  458loPI   C4A 7322  14.112   9.584   8.484  0.0813 -0.2213 -0.2827
  458loPI   C5A 7323  14.492   9.584   8.291 -0.2563  0.0456 -0.2081
  458loPI   C6A 7324  14.881   9.577   8.308 -0.1643 -0.3297 -0.1312
  458loPI   C1B 7325  14.256  10.510   9.903  0.0259 -0.2861 -0.1385
  458loPI   C2B 7326  14.075  10.576   9.503 -0.2562 -0.4201  0.2018
  458loPI   C3B 7327  14.067  10.288   9.179  0.1791 -0.0575 -0.0430
  458loPI   C4B 7328  14.087   9.997   8.775  0.0882 -0.3076  0.2752
  459loPI    C1 7329  16.417  14.958  10.770  0.1291  0.2034  0.1106
  459loPI    C2 7330  16.621  14.714  11.013  0.2009  0.1818  0.0292
  459loPI    C3 7331  16.280  14.881  11.138  0.2998  0.2673  0.1890
  459loPI   PO4 7332  16.554  15.045  10.519 -0.0041 -0.0746 -0.3013
  459loPI   GL1 7333  16.790  15.165  10.094  0.2258 -0.1194  0.1889
  459loPI   GL2 7334  16.651  14.814  10.117 -0.0691 -0.5882  0.1045
  459loPI   C1A 7335  16.941  15.229   9.707 -0.3521 -0.1422  0.2913
  459loPI   C2A 7336  17.050  15.337   9.278  0.0670  0.1658  0.0295
  459loPI   C3A 7337  17.051  15.244   8.807 -0.2376 -0.2235  0.1891
  459loPI   C4A 7338  17.070  15.168   8.392  0.2174  0.1811 -0.1034
  459loPI   C5A 7339  17.204  15.462   8.099 -0.1843  0.0659  0.0180
  459loPI   C6A 7340  17.139  15.873   7.809  0.1369 -0.2490  0.2025
  459loPI   C1B 7341  16.670  14.845   9.637  0.0641  0.1867  0.1052
  459loPI   C2B 7342  16.733  14.909   9.188  0.2658  0.0724 -0.3743
  459loPI   C3B 7343  16.707  14.949   8.723  0.1203  0.0245 -0.2066
  459loPI   C4B 7344  16.800  14.764   8.218  0.1472 -0.1584  0.0582
  460loPI    C1 7345   4.057  14.983  11.111 -0.1159  0.1382 -0.0149
  460loPI    C2 7346   4.371  14.755  11.205 -0.3475 -0.1593  0.0521
  460loPI    C3 7347   4.194  14.976  11.487 -0.1509  0.0728 -0.0032
  460loPI   PO4 7348   4.034  15.106  10.910  0.1809 -0.0071  0.0845
  460loPI   GL1 7349   4.045  15.131  10.461  0.1528 -0.0565 -0.0351
  460loPI   GL2 7350   3.723  15.391  10.542 -0.1746  0.2306  0.0496
  460loPI   C1A 7351   4.194  15.087   9.990 -0.1272 -0.2611  0.0093
  460loPI   C2A 7352   4.147  15.031   9.580  0.2686 -0.1976 -0.0782
  460loPI   C3A 7353   4.105  15.054   9.151  0.1561 -0.0361 -0.1866
  460loPI   C4A 7354   4.101  15.157   8.701  0.0752 -0.0576  0.1629
  460loPI   C5A 7355   3.748  14.936   8.444 -0.1300  0.1487 -0.1414
  460loPI   C6A 7356   3.660  14.946   8.024  0.2445 -0.0566  0.1951
  460loPI   C1B 7357   3.667  15.207  10.070 -0.1896  0.0521 -0.0809
  460loPI   C2B 7358   3.657  15.232   9.590 -0.1463  0.0191  0.1179
  460loPI   C3B 7359   3.618  15.252   9.145  0.2630 -0.1063 -0.0648
  460loPI   C4B 7360   3.435  15.259   8.680  0.1202  0.1921 -0.1330
  461loPI    C1 7361   8.606   9.726  10.686  0.0397  0.2010 -0.1278
  461loPI    C2 7362   8.873   9.570  10.939 -0.0866 -0.0494 -0.1464
  461loPI    C3 7363   8.499   9.640  11.061 -0.1044 -0.0193 -0.2176
  461loPI   PO4 7364   8.787   9.786  10.499 -0.2756  0.0334 -0.1490
  461loPI   GL1 7365   8.673   9.558  10.164  0.0197  0.1430  0.1447
  461loPI   GL2 7366   8.372   9.487  10.334 -0.0348  0.2512 -0.0582
  461loPI   C1A 7367   8.757   9.590   9.712 -0.3202 -0.2541  0.0194
  461loPI   C2A 7368   8.804   9.470   9.306  0.0042 -0.0495  0.2872
  461loPI   C3A 7369   8.834   9.415   8.914  0.0437 -0.0409  0.0128
  461loPI   C4A 7370   8.768   9.538   8.444 -0.0855 -0.0018  0.0416
  461loPI   C5A 7371   8.756   9.900   8.253  0.1868 -0.2218  0.0105
  461loPI   C6A 7372   9.072  10.101   8.074 -0.2039  0.0609  0.2309
  461loPI   C1B 7373   8.269   9.554   9.873  0.0200  0.3036  0.1853
  461loPI   C2B 7374   8.308   9.459   9.495  0.1319  0.0580 -0.1152
  461loPI   C3B 7375   8.286   9.442   9.083 -0.1239  0.0167 -0.1578
  461loPI   C4B 7376   8.345   9.453   8.716 -0.0799 -0.0181 -0.1538
  462loPI    C1 7377  18.342   6.230  10.566  0.0701  0.0157  0.0058
  462loPI    C2 7378  18.329   6.602  10.419  0.0047  0.0931  0.2036
  462loPI    C3 7379  18.494   6.533  10.777  0.0213 -0.0696  0.1657
  462loPI   PO4 7380  18.208   6.098  10.328 -0.1009  0.3168 -0.0178
  462loPI   GL1 7381  18.303   6.219   9.938 -0.1725 -0.0383 -0.1498
  462loPI   GL2 7382  18.380   6.556   9.827 -0.0552  0.0949  0.1198
  462loPI   C1A 7383  18.281   6.036   9.498  0.0996  0.3028 -0.0141
  462loPI   C2A 7384  18.348   6.064   9.109 -0.2802  0.0790 -0.4942
  462loPI   C3A 7385  18.369   5.909   8.598 -0.0790 -0.0807 -0.1468
  462loPI   C4A 7386  18.448   5.966   8.083 -0.0924 -0.1404 -0.0196
  462loPI   C5A 7387  18.832   6.233   7.840  0.1122 -0.0533 -0.3690
  462loPI   C6A 7388  19.011   6.592   7.734  0.1582  0.2454  0.1247
  462loPI   C1B 7389  18.454   6.535   9.361 -0.0581 -0.0735  0.0209
  462loPI   C2B 7390  18.497   6.552   8.897  0.1438 -0.1756 -0.0788
  462loPI   C3B 7391  18.582   6.370   8.502 -0.0617  0.1034 -0.0232
  462loPI   C4B 7392  18.430   6.480   8.115 -0.1750  0.0289 -0.2486
  463loPI    C1 7393  12.876  13.595  10.902 -0.1815 -0.3456 -0.2204
  463loPI    C2 7394  12.837  13.391  11.244 -0.0710 -0.0534 -0.0298
  463loPI    C3 7395  12.632  13.730  11.188  0.2906  0.1684 -0.0423
  463loPI   PO4 7396  12.906  13.336  10.753  0.1758 -0.2538 -0.0644
  463loPI   GL1 7397  13.019  13.164  10.328 -0.0382  0.0951  0.1057
  463loPI   GL2 7398  13.343  13.236  10.321 -0.0311 -0.2765  0.3366
  463loPI   C1A 7399  12.925  13.289   9.966  0.0482 -0.2588 -0.0583
  463loPI   C2A 7400  12.884  13.302   9.544 -0.0650 -0.2515  0.0465
  463loPI   C3A 7401  12.965  13.175   9.132 -0.1753  0.2110 -0.0469
  463loPI   C4A 7402  12.973  13.121   8.747  0.0576 -0.0066  0.2807
  463loPI   C5A 7403  13.097  13.111   8.344 -0.1279  0.0794 -0.1049
  463loPI   C6A 7404  13.071  13.079   7.876 -0.5315 -0.0816  0.0654
  463loPI   C1B 7405  13.397  13.261   9.797  0.0800  0.1254  0.1273
  463loPI   C2B 7406  13.488  13.174   9.380  0.0314  0.3548 -0.0123
  463loPI   C3B 7407  13.421  13.219   9.004  0.0725  0.0666  0.4256
  463loPI   C4B 7408  13.543  13.237   8.567 -0.1442 -0.0304 -0.2652
  464loPI    C1 7409   7.789   9.157  11.096  0.0961 -0.0171 -0.0460
  464loPI    C2 7410   7.740   9.328  11.454  0.0123 -0.1602  0.0120
  464loPI    C3 7411   8.097   9.338  11.275 -0.0125  0.1505 -0.0264
  464loPI   PO4 7412   7.618   9.268  10.804  0.1050  0.0720  0.1621
  464loPI   GL1 7413   7.468   9.489  10.472  0.0549 -0.2527 -0.0595
  464loPI   GL2 7414   7.804   9.598  10.384  0.0232 -0.1975  0.1938
  464loPI   C1A 7415   7.452   9.848  10.138  0.1628  0.0635 -0.0968
  464loPI   C2A 7416   7.470   9.844   9.657 -0.0119  0.0373 -0.0096
  464loPI   C3A 7417   7.511   9.912   9.136 -0.2383  0.0989  0.3691
  464loPI   C4A 7418   7.570   9.890   8.694 -0.1033  0.1174  0.1411
  464loPI   C5A 7419   7.629   9.962   8.164 -0.1304 -0.0850 -0.4304
  464loPI   C6A 7420   7.903  10.225   7.969  0.1374 -0.1079  0.6865
  464loPI   C1B 7421   7.766   9.495   9.967  0.0264 -0.1112  0.1199
  464loPI   C2B 7422   7.806   9.387   9.597 -0.2238 -0.0108  0.0832
  464loPI   C3B 7423   7.836   9.516   9.306  0.1885 -0.0165 -0.1428
  464loPI   C4B 7424   7.857   9.459   8.801  0.0489 -0.0542 -0.1540
  465loPI    C1 7425   3.405   6.729  10.442 -0.0108 -0.0282  0.0008
  465loPI    C2 7426   3.067   6.530  10.367  0.0568 -0.1737  0.0771
  465loPI    C3 7427   3.402   6.329  10.451  0.1269 -0.0270  0.1522
  465loPI   PO4 7428   3.434   6.877  10.241 -0.1914  0.2261  0.2181
  465loPI   GL1 7429   3.629   6.750   9.833 -0.0040 -0.0230  0.2725
  465loPI   GL2 7430   3.512   6.460   9.922 -0.0516  0.0873 -0.2585
  465loPI   C1A 7431   3.563   6.638   9.413 -0.1994 -0.2566  0.2022
  465loPI   C2A 7432   3.637   6.610   8.918 -0.2255 -0.1908 -0.0855
  465loPI   C3A 7433   3.809   6.579   8.585 -0.3402  0.0503  0.1158
  465loPI   C4A 7434   3.901   6.721   8.202 -0.2360 -0.0220 -0.0410
  465loPI   C5A 7435   3.800   6.674   7.809 -0.0226 -0.1827 -0.4164
  465loPI   C6A 7436   3.653   6.691   7.356 -0.0028 -0.0663 -0.0650
  465loPI   C1B 7437   3.858   6.328   9.629 -0.2374 -0.0995 -0.1054
  465loPI   C2B 7438   3.840   6.153   9.155  0.0970 -0.2142  0.1070
  465loPI   C3B 7439   3.951   6.136   8.683 -0.0638  0.2942 -0.1850
  465loPI   C4B 7440   4.113   6.117   8.197 -0.1731  0.0392  0.4040
  466loPI    C1 7441   9.111   7.567  11.133 -0.0549 -0.0930 -0.0192
  466loPI    C2 7442   9.213   7.398  11.481  0.3374  0.1267 -0.0221
  466loPI    C3 7443   8.974   7.719  11.477  0.1475 -0.0122  0.0271
  466loPI   PO4 7444   9.347   7.628  10.888 -0.3823 -0.0274 -0.0678
  466loPI   GL1 7445   9.328   7.957  10.488  0.0068  0.1450  0.1739
  466loPI   GL2 7446   9.483   7.627  10.351  0.4393 -0.0999  0.0811
  466loPI   C1A 7447   9.127   8.169  10.093 -0.1484 -0.1981  0.3286
  466loPI   C2A 7448   9.124   8.215   9.712 -0.2390  0.1084  0.0563
  466loPI   C3A 7449   9.171   8.178   9.331  0.0121  0.1180 -0.0755
  466loPI   C4A 7450   9.041   8.168   8.930 -0.1061 -0.1755  0.1374
  466loPI   C5A 7451   9.213   8.125   8.570 -0.1268 -0.3515 -0.0028
  466loPI   C6A 7452   9.230   8.318   8.192 -0.0348  0.3642 -0.1219
  466loPI   C1B 7453   9.360   7.749   9.953  0.0474  0.0537  0.3410
  466loPI   C2B 7454   9.463   7.755   9.535  0.0283 -0.1530  0.1472
  466loPI   C3B 7455   9.411   7.678   9.073 -0.1947  0.0837 -0.0550
  466loPI   C4B 7456   9.334   7.661   8.560 -0.2636  0.2160  0.1063
  467loPI    C1 7457   6.733   5.507  10.650 -0.1127 -0.2312  0.0941
  467loPI    C2 7458   6.472   5.744  10.461 -0.0146 -0.0959  0.1262
  467loPI    C3 7459   6.458   5.709  10.859  0.0475 -0.0498  0.1325
  467loPI   PO4 7460   6.799   5.367  10.491  0.5010 -0.1976  0.3113
  467loPI   GL1 7461   6.897   5.560  10.075 -0.0627  0.0952 -0.2010
  467loPI   GL2 7462   7.043   5.834  10.118 -0.1824  0.2391 -0.0795
  467loPI   C1A 7463   7.054   5.435   9.658  0.2010  0.1849 -0.0201
  467loPI   C2A 7464   7.058   5.516   9.246  0.3473  0.0313  0.1234
  467loPI   C3A 7465   7.173   5.470   8.787  0.0869  0.0294 -0.1024
  467loPI   C4A 7466   7.290   5.432   8.434 -0.2156  0.0059 -0.0047
  467loPI   C5A 7467   7.290   5.742   8.178  0.0432 -0.0666 -0.0369
  467loPI   C6A 7468   7.128   6.113   8.010  0.0564  0.2568  0.0328
  467loPI   C1B 7469   7.130   5.899   9.758  0.3307 -0.0904 -0.0651
  467loPI   C2B 7470   7.271   5.898   9.503  0.0056 -0.1646  0.1292
  467loPI   C3B 7471   7.305   5.928   9.128 -0.0859 -0.1054 -0.1716
  467loPI   C4B 7472   7.483   5.901   8.655 -0.2371 -0.2091 -0.2335
  468loPI    C1 7473  11.783  10.659  10.925 -0.1092  0.2095  0.0365
  468loPI    C2 7474  11.748  10.343  11.167  0.1098  0.1850  0.0383
  468loPI    C3 7475  11.553  10.682  11.251 -0.2388  0.0084 -0.0390
  468loPI   PO4 7476  11.754  10.525  10.605 -0.0217 -0.1583  0.3059
  468loPI   GL1 7477  11.935  10.336  10.117 -0.0815  0.3791  0.0396
  468loPI   GL2 7478  11.812  10.025  10.240 -0.2454  0.1074 -0.0419
  468loPI   C1A 7479  11.989  10.393   9.707 -0.1174  0.0808  0.0740
  468loPI   C2A 7480  11.930  10.455   9.287  0.0011  0.0085  0.1068
  468loPI   C3A 7481  12.067  10.527   8.905  0.1361 -0.0755  0.0802
  468loPI   C4A 7482  12.183  10.484   8.472  0.1619  0.2948 -0.0880
  468loPI   C5A 7483  12.235  10.050   8.119 -0.0621  0.0928  0.0137
  468loPI   C6A 7484  12.468   9.719   7.899  0.0133 -0.0727 -0.1215
  468loPI   C1B 7485  11.784   9.978   9.804 -0.0745 -0.0921 -0.0628
  468loPI   C2B 7486  11.678  10.073   9.379 -0.1594  0.1138  0.2296
  468loPI   C3B 7487  11.712  10.065   8.926 -0.2676  0.0373  0.0110
  468loPI   C4B 7488  11.825  10.064   8.598 -0.1503 -0.2060 -0.3171
  469loPI    C1 7489   8.466  13.517  11.059 -0.1976 -0.4100 -0.0160
  469loPI    C2 7490   8.515  13.143  11.192 -0.3176 -0.3068  0.3281
  469loPI    C3 7491   8.449  13.441  11.451  0.0436 -0.0015  0.0796
  469loPI   PO4 7492   8.259  13.504  10.739 -0.0234  0.1504 -0.1047
  469loPI   GL1 7493   8.349  13.670  10.375 -0.2017  0.2554 -0.0945
  469loPI   GL2 7494   8.341  13.453  10.154  0.0495 -0.3798 -0.3398
  469loPI   C1A 7495   8.542  13.896  10.004  0.0352 -0.0167 -0.1555
  469loPI   C2A 7496   8.603  13.935   9.570  0.0120 -0.1057 -0.0666
  469loPI   C3A 7497   8.692  13.888   9.096 -0.1361  0.1559  0.1803
  469loPI   C4A 7498   8.662  13.940   8.678 -0.0354 -0.0440  0.0675
  469loPI   C5A 7499   8.595  13.855   8.257  0.0109 -0.1099  0.1765
  469loPI   C6A 7500   8.480  13.962   7.886 -0.0028 -0.1270 -0.0220
  469loPI   C1B 7501   8.402  13.357   9.779  0.0619 -0.1106 -0.0077
  469loPI   C2B 7502   8.385  13.462   9.370 -0.1038 -0.3222 -0.0582
  469loPI   C3B 7503   8.377  13.462   8.976  0.3104 -0.0570 -0.0043
  469loPI   C4B 7504   8.503  13.437   8.613 -0.6062 -0.1709  0.0973
  470loPI    C1 7505  14.340   4.383  10.668  0.1346 -0.2579 -0.1785
  470loPI    C2 7506  14.666   4.345  10.897  0.0494 -0.2422 -0.0532
  470loPI    C3 7507  14.305   4.373  11.067 -0.0035 -0.1045 -0.1855
  470loPI   PO4 7508  14.362   4.561  10.525 -0.0825  0.0541 -0.2037
  470loPI   GL1 7509  14.330   4.476  10.151 -0.0771 -0.2174  0.0918
  470loPI   GL2 7510  14.603   4.411  10.021  0.1848  0.2084 -0.1319
  470loPI   C1A 7511  14.208   4.478   9.700  0.0297 -0.1475 -0.0069
  470loPI   C2A 7512  13.872   4.466   9.321  0.2206  0.3064  0.4051
  470loPI   C3A 7513  13.488   4.442   9.067  0.1964  0.0384  0.0852
  470loPI   C4A 7514  13.462   4.425   8.618 -0.3120 -0.0395 -0.2650
  470loPI   C5A 7515  13.526   4.427   8.164  0.1583 -0.2771  0.0996
  470loPI   C6A 7516  13.860   4.575   7.849  0.1329 -0.0052  0.4752
  470loPI   C1B 7517  14.719   4.417   9.636  0.1854 -0.3163  0.1670
  470loPI   C2B 7518  14.687   4.359   9.223 -0.0686 -0.0456 -0.0314
  470loPI   C3B 7519  14.842   4.370   8.784 -0.2119  0.0385 -0.1245
  470loPI   C4B 7520  14.827   4.712   8.472  0.0819 -0.2399  0.1135
  471loPI    C1 7521  17.604  17.179  11.211 -0.0459  0.0067  0.0098
  471loPI    C2 7522  17.446  16.858  11.390  0.0694 -0.1658 -0.1924
  471loPI    C3 7523  17.276  17.217  11.436 -0.0062 -0.2375  0.1128
  471loPI   PO4 7524  17.657  17.121  10.943 -0.0066 -0.1601 -0.0813
  471loPI   GL1 7525  17.824  17.119  10.600 -0.2469 -0.0839 -0.0848
  471loPI   GL2 7526  17.599  17.237  10.418 -0.0302  0.3099  0.1198
  471loPI   C1A 7527  18.009  16.996  10.081 -0.1328  0.2407  0.1173
  471loPI   C2A 7528  18.019  17.138   9.713 -0.1045 -0.1124  0.3929
  471loPI   C3A 7529  18.156  17.290   9.220  0.2500  0.0177  0.2124
  471loPI   C4A 7530  18.080  17.326   8.801 -0.2280  0.1223 -0.2525
  471loPI   C5A 7531  18.049  17.383   8.414 -0.1369 -0.2087  0.1260
  471loPI   C6A 7532  17.668  17.491   8.112  0.1057 -0.1187  0.0923
  471loPI   C1B 7533  17.617  17.372   9.976  0.0395 -0.1421 -0.2390
  471loPI   C2B 7534  17.678  17.428   9.454  0.2586 -0.0064  0.0817
  471loPI   C3B 7535  17.576  17.400   8.993  0.1084 -0.1758  0.1567
  471loPI   C4B 7536  17.499  17.378   8.592  0.1281  0.4772 -0.5076
  472loPI    C1 7537   4.939   4.214  10.637  0.0389  0.0781 -0.1992
  472loPI    C2 7538   4.812   4.550  10.812 -0.0924 -0.1959  0.2478
  472loPI    C3 7539   4.811   4.206  11.016  0.3727 -0.4061 -0.0876
  472loPI   PO4 7540   4.853   4.315  10.415  0.0370  0.1922 -0.2515
  472loPI   GL1 7541   5.000   4.296  10.049 -0.1261  0.1587 -0.0559
  472loPI   GL2 7542   4.930   4.617   9.990 -0.0471 -0.0425 -0.1354
  472loPI   C1A 7543   4.959   4.308   9.606 -0.1594  0.1477 -0.2212
  472loPI   C2A 7544   5.082   4.400   9.278 -0.1753  0.2462 -0.0564
  472loPI   C3A 7545   5.273   4.409   8.807 -0.0949  0.3378 -0.1768
  472loPI   C4A 7546   5.239   4.222   8.333 -0.0496 -0.2531 -0.1242
  472loPI   C5A 7547   4.862   4.144   8.098 -0.0652  0.0766  0.1369
  472loPI   C6A 7548   4.473   4.009   7.947 -0.3528 -0.0363  0.1340
  472loPI   C1B 7549   4.778   4.805   9.668  0.0379  0.1801 -0.0418
  472loPI   C2B 7550   4.748   4.754   9.261  0.1815  0.0263 -0.1706
  472loPI   C3B 7551   4.925   4.704   8.769  0.1107  0.0632 -0.0803
  472loPI   C4B 7552   5.046   4.678   8.328 -0.2945  0.3092  0.0767
  473loPI    C1 7553   5.264  14.474  11.171  0.0415 -0.1435  0.0670
  473loPI    C2 7554   5.023  14.295  11.436 -0.1214  0.1627  0.1301
  473loPI    C3 7555   5.394  14.399  11.542 -0.1062  0.0741  0.1649
  473loPI   PO4 7556   5.187  14.347  10.976  0.0716 -0.0585  0.1336
  473loPI   GL1 7557   5.031  14.419  10.640  0.0168 -0.1641  0.0523
  473loPI   GL2 7558   4.832  14.212  10.522 -0.2074  0.0689  0.5164
  473loPI   C1A 7559   4.923  14.906  10.409 -0.1452  0.0909  0.1178
  473loPI   C2A 7560   4.671  14.946   9.997  0.0093  0.2429 -0.0358
  473loPI   C3A 7561   4.626  14.933   9.579 -0.0381  0.0776  0.2193
  473loPI   C4A 7562   4.538  14.896   9.124 -0.5552  0.0245 -0.0755
  473loPI   C5A 7563   4.533  14.881   8.710 -0.1704  0.1746 -0.0506
  473loPI   C6A 7564   4.390  14.542   8.462  0.0398  0.1945 -0.2241
  473loPI   C1B 7565   4.736  14.463  10.151  0.0594  0.1774  0.1003
  473loPI   C2B 7566   4.754  14.355   9.769 -0.1275 -0.2641 -0.1722
  473loPI   C3B 7567   4.705  14.515   9.398  0.0911 -0.0508 -0.1654
  473loPI   C4B 7568   4.667  14.424   9.053 -0.2996 -0.1300  0.0176
  474loPI    C1 7569   6.950   5.902  10.797 -0.2346 -0.3143  0.1902
  474loPI    C2 7570   6.945   6.247  11.000  0.1536 -0.2307  0.0671
  474loPI    C3 7571   6.824   5.909  11.177 -0.2168 -0.0381  0.1930
  474loPI   PO4 7572   6.861   6.015  10.549 -0.1488 -0.0595  0.0952
  474loPI   GL1 7573   6.604   6.167  10.210 -0.0611 -0.1796  0.0606
  474loPI   GL2 7574   6.337   6.347  10.179 -0.0943 -0.1400  0.1737
  474loPI   C1A 7575   6.930   6.373   9.767  0.1650 -0.2145 -0.0955
  474loPI   C2A 7576   7.007   6.461   9.350  0.0929 -0.1212 -0.0741
  474loPI   C3A 7577   7.124   6.396   8.892 -0.3641  0.4031  0.3522
  474loPI   C4A 7578   7.140   6.308   8.488  0.1852  0.2685 -0.2526
  474loPI   C5A 7579   7.266   6.611   8.102 -0.3843  0.0032 -0.3883
  474loPI   C6A 7580   7.569   6.755   7.817  0.0911  0.2135 -0.1320
  474loPI   C1B 7581   6.416   6.425   9.768 -0.2161 -0.0739  0.2311
  474loPI   C2B 7582   6.514   6.384   9.402  0.0477  0.1154  0.1239
  474loPI   C3B 7583   6.595   6.356   9.028  0.0067  0.0638 -0.0332
  474loPI   C4B 7584   6.570   6.267   8.575  0.3076  0.0827 -0.3021
  475loPI    C1 7585   6.953   2.854  10.457 -0.2134  0.2384 -0.1070
  475loPI    C2 7586   6.906   3.225  10.315  0.1797  0.4263  0.2322
  475loPI    C3 7587   7.004   3.169  10.699  0.1528 -0.0305  0.1778
  475loPI   PO4 7588   6.655   2.729  10.368  0.0870  0.3022  0.0741
  475loPI   GL1 7589   6.428   2.738  10.065  0.1258 -0.0835  0.1218
  475loPI   GL2 7590   6.181   2.821  10.161 -0.2344 -0.0387  0.0759
  475loPI   C1A 7591   6.517   2.725   9.655 -0.2109  0.1781 -0.2599
  475loPI   C2A 7592   6.718   3.076   9.384 -0.1689  0.0440 -0.1278
  475loPI   C3A 7593   6.976   3.205   9.089  0.0239  0.3119  0.1714
  475loPI   C4A 7594   7.128   3.610   8.887  0.0005 -0.0345 -0.0822
  475loPI   C5A 7595   7.327   3.840   8.540 -0.1031  0.0471  0.1089
  475loPI   C6A 7596   7.662   4.116   8.439  0.1470  0.0986  0.2464
  475loPI   C1B 7597   6.021   2.666   9.792 -0.0816 -0.5412 -0.0469
  475loPI   C2B 7598   6.002   2.610   9.339 -0.2988  0.0099 -0.0643
  475loPI   C3B 7599   5.960   2.735   8.921 -0.1490  0.1258 -0.2168
  475loPI   C4B 7600   6.050   3.177   8.745 -0.0727 -0.1879  0.0437
  476loPI    C1 7601  16.069  10.389  10.542 -0.1367  0.1102  0.0560
  476loPI    C2 7602  16.369  10.216  10.742 -0.1867  0.0858  0.1102
  476loPI    C3 7603  15.994  10.090  10.797 -0.1878 -0.0016 -0.0885
  476loPI   PO4 7604  16.137  10.320  10.283  0.2866 -0.0319 -0.0862
  476loPI   GL1 7605  16.249  10.616   9.994 -0.1962  0.0306  0.0969
  476loPI   GL2 7606  15.924  10.494   9.894 -0.1334  0.1278  0.1027
  476loPI   C1A 7607  16.395  10.661   9.559  0.1508  0.1481  0.2051
  476loPI   C2A 7608  16.433  10.734   9.096  0.1798 -0.3432  0.2383
  476loPI   C3A 7609  16.581  10.762   8.646 -0.3135  0.0298 -0.0207
  476loPI   C4A 7610  16.916  10.529   8.390  0.3824  0.0735  0.3528
  476loPI   C5A 7611  17.083  10.541   7.999  0.1147  0.1861  0.2311
  476loPI   C6A 7612  17.516  10.588   7.780  0.2197 -0.1140  0.1518
  476loPI   C1B 7613  16.011  10.404   9.484  0.1134 -0.0517  0.3162
  476loPI   C2B 7614  16.021  10.230   9.040 -0.0242  0.0370  0.0119
  476loPI   C3B 7615  16.012   9.778   8.926  0.1799 -0.1699  0.2834
  476loPI   C4B 7616  16.007   9.473   8.539  0.1324 -0.2091 -0.0176
  477loPI    C1 7617   0.287  12.844  10.850 -0.3212 -0.0198  0.0656
  477loPI    C2 7618   0.399  12.734  11.218  0.0514  0.2640  0.0429
  477loPI    C3 7619   0.028  12.867  11.153 -0.0558  0.0914  0.2888
  477loPI   PO4 7620   0.554  12.711  10.688 -0.1889 -0.0861 -0.1471
  477loPI   GL1 7621   0.693  12.441  10.283  0.1429  0.0159 -0.0517
  477loPI   GL2 7622   0.569  12.667  10.117 -0.2098 -0.1163  0.2226
  477loPI   C1A 7623   0.838  12.245   9.883 -0.1372 -0.1563  0.3349
  477loPI   C2A 7624   0.947  12.270   9.432  0.0682  0.1382 -0.4685
  477loPI   C3A 7625   1.236  12.151   9.055 -0.1868 -0.0671 -0.1460
  477loPI   C4A 7626   1.239  11.978   8.629  0.3991 -0.1376 -0.1231
  477loPI   C5A 7627   1.295  11.923   8.268 -0.2320 -0.2376 -0.1643
  477loPI   C6A 7628   1.425  12.242   7.926  0.0149  0.0415 -0.1822
  477loPI   C1B 7629   0.668  12.779   9.636  0.1569  0.0231  0.1501
  477loPI   C2B 7630   0.800  12.877   9.250 -0.0043 -0.0473  0.0960
  477loPI   C3B 7631   0.764  13.070   8.869  0.1994  0.1646 -0.2498
  477loPI   C4B 7632   0.720  13.090   8.424 -0.2746 -0.1641  0.0601
  478loPI    C1 7633   5.814  12.132  10.527 -0.0352 -0.1442 -0.0189
  478loPI    C2 7634   6.056  11.887  10.730 -0.1772 -0.0768  0.2355
  478loPI    C3 7635   6.088  12.283  10.775 -0.1458 -0.0573  0.0510
  478loPI   PO4 7636   5.891  11.956  10.250 -0.0874  0.1335  0.0464
  478loPI   GL1 7637   5.593  12.102   9.935  0.0839  0.0086  0.2359
  478loPI   GL2 7638   5.576  11.797   9.894  0.0785 -0.0165  0.0582
  478loPI   C1A 7639   5.565  12.265   9.559  0.1262 -0.1456 -0.0082
  478loPI   C2A 7640   5.469  12.072   9.281  0.0362  0.1097 -0.1006
  478loPI   C3A 7641   5.463  12.037   8.919 -0.3647  0.0041 -0.1791
  478loPI   C4A 7642   5.946  11.931   8.748 -0.0201 -0.0069  0.0742
  478loPI   C5A 7643   6.417  11.646   8.734 -0.2440  0.0421 -0.1573
  478loPI   C6A 7644   6.726  11.998   8.746 -0.2097 -0.0157 -0.3135
  478loPI   C1B 7645   5.794  11.809   9.544  0.1037 -0.0046 -0.0714
  478loPI   C2B 7646   5.972  12.040   9.285  0.2249 -0.2228  0.2905
  478loPI   C3B 7647   5.825  12.416   8.954 -0.0227 -0.0605  0.1952
  478loPI   C4B 7648   5.754  12.316   8.496 -0.1609  0.3626  0.1355
  479loPI    C1 7649  10.511   4.921  10.932 -0.3276  0.0030 -0.0440
  479loPI    C2 7650  10.134   4.952  11.061 -0.2891 -0.0607  0.0859
  479loPI    C3 7651  10.424   4.851  11.316 -0.1857 -0.0230 -0.0161
  479loPI   PO4 7652  10.426   5.095  10.686  0.0264  0.1140  0.0829
  479loPI   GL1 7653  10.237   5.010  10.305  0.3019  0.0097 -0.1592
  479loPI   GL2 7654  10.111   4.732  10.150 -0.0123 -0.1818  0.2407
  479loPI   C1A 7655  10.059   5.154   9.900 -0.1436  0.1819 -0.1078
  479loPI   C2A 7656   9.964   5.182   9.529 -0.0734  0.1127 -0.0602
  479loPI   C3A 7657   9.865   5.079   9.092 -0.0373  0.2136  0.0459
  479loPI   C4A 7658   9.842   4.983   8.702  0.0241  0.0412  0.1261
  479loPI   C5A 7659   9.583   4.859   8.338  0.0585  0.2339  0.3530
  479loPI   C6A 7660   9.430   4.455   8.150 -0.2815  0.0583  0.1716
  479loPI   C1B 7661  10.218   4.704   9.656 -0.1567  0.3704  0.2024
  479loPI   C2B 7662  10.385   4.468   9.274 -0.0833 -0.2178 -0.0630
  479loPI   C3B 7663  10.319   4.343   8.840  0.0700 -0.3670  0.0064
  479loPI   C4B 7664  10.278   4.603   8.501  0.1889  0.1699 -0.1999
  480loPI    C1 7665   7.204  12.420  10.468  0.0585 -0.2832  0.0724
  480loPI    C2 7666   7.208  12.476  10.864 -0.0933  0.0368  0.0318
  480loPI    C3 7667   6.993  12.178  10.707 -0.0282 -0.0948  0.1890
  480loPI   PO4 7668   7.433  12.531  10.399 -0.0871  0.3382  0.4028
  480loPI   GL1 7669   7.665  12.794  10.222  0.1292  0.0973  0.0782
  480loPI   GL2 7670   7.634  13.040  10.033 -0.1699 -0.0196  0.0077
  480loPI   C1A 7671   7.734  12.516   9.792  0.0070 -0.2340 -0.1809
  480loPI   C2A 7672   7.797  12.530   9.297  0.1807  0.0610  0.0092
  480loPI   C3A 7673   8.242  12.569   8.977 -0.1508  0.0904  0.0169
  480loPI   C4A 7674   8.496  12.569   8.572  0.1936 -0.1183 -0.1675
  480loPI   C5A 7675   8.565  12.377   8.129  0.1137 -0.1248  0.1273
  480loPI   C6A 7676   8.240  12.100   7.937 -0.0311 -0.0535 -0.1349
  480loPI   C1B 7677   7.703  12.940   9.513  0.2401  0.4699  0.0688
  480loPI   C2B 7678   7.605  13.075   9.152  0.3556 -0.0202 -0.1937
  480loPI   C3B 7679   7.488  13.291   8.805 -0.0653  0.2543  0.1454
  480loPI   C4B 7680   7.320  13.157   8.525  0.0012 -0.0308  0.2883
  481loPI    C1 7681  12.026  17.644  10.775 -0.0410 -0.0552 -0.0860
  481loPI    C2 7682  11.862  17.379  11.027 -0.3192  0.0594 -0.1424
  481loPI    C3 7683  12.171  17.604  11.146 -0.2815 -0.0702  0.0081
  481loPI   PO4 7684  11.933  17.436  10.516  0.0740 -0.0558 -0.1378
  481loPI   GL1 7685  11.879  17.159  10.168 -0.1466 -0.0129  0.2046
  481loPI   GL2 7686  12.024  16.855  10.075  0.2337 -0.1467  0.0468
  481loPI   C1A 7687  11.845  17.256   9.733  0.2540  0.0422 -0.0080
  481loPI   C2A 7688  11.854  17.235   9.273  0.0412  0.0868  0.1354
  481loPI   C3A 7689  11.778  17.094   8.823  0.0160 -0.0504 -0.1215
  481loPI   C4A 7690  11.605  17.009   8.508 -0.0938 -0.0843  0.2955
  481loPI   C5A 7691  11.709  16.683   8.259 -0.2469  0.0568  0.1367
  481loPI   C6A 7692  11.848  16.234   8.241  0.0968  0.0289 -0.0479
  481loPI   C1B 7693  11.914  16.750   9.635 -0.0842  0.2038  0.0824
  481loPI   C2B 7694  12.046  16.728   9.273 -0.0353  0.2750 -0.0218
  481loPI   C3B 7695  11.912  16.572   8.887 -0.0975  0.0028 -0.2529
  481loPI   C4B 7696  11.958  16.159   8.707  0.3186 -0.0688  0.0302
  482loPI    C1 7697   6.710  12.598  10.391  0.1268  0.0403  0.0912
  482loPI    C2 7698   6.585  12.385  10.706  0.0534  0.1021  0.1043
  482loPI    C3 7699   6.760  12.740  10.762  0.1301  0.0685  0.0800
  482loPI   PO4 7700   6.743  12.395  10.212 -0.0302 -0.3493 -0.1849
  482loPI   GL1 7701   6.412  12.328   9.795 -0.0183  0.1831 -0.0098
  482loPI   GL2 7702   6.130  12.145   9.806  0.0944 -0.3504 -0.2562
  482loPI   C1A 7703   6.479  12.253   9.329  0.1625  0.1567  0.1982
  482loPI   C2A 7704   6.323  12.268   8.969 -0.0633 -0.1174  0.1342
  482loPI   C3A 7705   6.241  12.363   8.624 -0.0514 -0.1150  0.0591
  482loPI   C4A 7706   6.124  12.598   8.279 -0.1183  0.1330  0.0191
  482loPI   C5A 7707   5.981  12.573   7.832 -0.0501  0.1286 -0.0804
  482loPI   C6A 7708   6.041  12.920   7.511 -0.1638 -0.0911 -0.2905
  482loPI   C1B 7709   6.033  12.570   9.597  0.1277  0.1108  0.2911
  482loPI   C2B 7710   6.161  12.755   9.161 -0.1729  0.0436  0.1147
  482loPI   C3B 7711   6.255  12.800   8.792  0.1477 -0.0927  0.2854
  482loPI   C4B 7712   5.980  13.117   8.596  0.2520 -0.1719 -0.1478
  483loPI    C1 7713   7.307  14.777  11.056  0.0742 -0.0231  0.2806
  483loPI    C2 7714   7.470  15.106  10.898 -0.0587 -0.1535 -0.1429
  483loPI    C3 7715   7.209  15.137  11.200  0.1526  0.1058  0.0177
  483loPI   PO4 7716   7.335  14.643  10.826  0.1793 -0.0803 -0.0233
  483loPI   GL1 7717   7.444  14.728  10.396 -0.0658  0.2222 -0.0264
  483loPI   GL2 7718   7.710  14.481  10.435  0.0594 -0.1335  0.2205
  483loPI   C1A 7719   7.476  14.753   9.924  0.0147  0.0413 -0.1189
  483loPI   C2A 7720   7.493  14.797   9.502  0.0914 -0.0695 -0.0949
  483loPI   C3A 7721   7.615  14.732   9.104 -0.0506  0.2582 -0.0903
  483loPI   C4A 7722   7.375  14.760   8.735 -0.1474 -0.0243 -0.0502
  483loPI   C5A 7723   7.482  14.569   8.309  0.2277 -0.1667 -0.0963
  483loPI   C6A 7724   7.418  14.270   7.894  0.1642  0.0733  0.0209
  483loPI   C1B 7725   7.768  14.271  10.071  0.1351 -0.1988  0.1101
  483loPI   C2B 7726   7.736  14.381   9.650 -0.0997  0.2463 -0.0310
  483loPI   C3B 7727   7.834  14.348   9.327  0.0944 -0.2953  0.1074
  483loPI   C4B 7728   7.907  14.354   8.894 -0.1269 -0.2239 -0.4188
  484loPI    C1 7729  17.595  10.655  11.008 -0.1060  0.0711 -0.1227
  484loPI    C2 7730  17.247  10.459  11.015 -0.0760  0.0196 -0.0500
  484loPI    C3 7731  17.453  10.513  11.354  0.0167 -0.0040 -0.1023
  484loPI   PO4 7732  17.743  10.593  10.788  0.1017 -0.0887  0.3372
  484loPI   GL1 7733  17.748  10.715  10.277  0.0282  0.0435  0.0017
  484loPI   GL2 7734  17.521  10.579  10.209 -0.4047  0.0850  0.1062
  484loPI   C1A 7735  17.608  11.029  10.022  0.0448  0.1244  0.1318
  484loPI   C2A 7736  17.617  11.348   9.659 -0.2069  0.3048 -0.2529
  484loPI   C3A 7737  17.488  11.437   9.227  0.0284 -0.1464  0.0746
  484loPI   C4A 7738  17.613  11.772   9.026  0.3293  0.0019  0.0487
  484loPI   C5A 7739  17.657  11.929   8.642 -0.0271  0.0552 -0.0954
  484loPI   C6A 7740  17.832  12.008   8.278 -0.0465  0.3390 -0.3141
  484loPI   C1B 7741  17.725  10.423   9.803 -0.0660 -0.0443 -0.1683
  484loPI   C2B 7742  17.987  10.551   9.479  0.2158  0.0146  0.4048
  484loPI   C3B 7743  17.815  10.598   9.101 -0.2287 -0.1775 -0.0302
  484loPI   C4B 7744  17.752  10.565   8.708  0.0331  0.2029 -0.2324
  485loPI    C1 7745   6.272   0.710  10.729 -0.1998  0.1763 -0.1611
  485loPI    C2 7746   6.389   0.346  10.613 -0.2995  0.1501 -0.1808
  485loPI    C3 7747   6.541   0.508  10.946 -0.0646  0.1965 -0.3082
  485loPI   PO4 7748   6.051   0.705  10.755  0.2777  0.2275  0.2178
  485loPI   GL1 7749   5.764   0.791  10.446 -0.0398 -0.3052  0.1006
  485loPI   GL2 7750   5.458   0.619  10.332  0.0358 -0.0707 -0.0040
  485loPI   C1A 7751   5.754   0.921  10.068 -0.1647  0.0853 -0.0737
  485loPI   C2A 7752   6.019   1.240   9.858  0.1242  0.1310  0.0633
  485loPI   C3A 7753   6.352   1.247   9.448 -0.0210 -0.0614  0.0901
  485loPI   C4A 7754   6.254   1.213   9.020  0.2167  0.2695 -0.2088
  485loPI   C5A 7755   6.269   1.283   8.526 -0.0350 -0.2237 -0.2278
  485loPI   C6A 7756   6.207   0.973   8.287  0.1330 -0.2565 -0.0112
  485loPI   C1B 7757   5.573   0.372  10.036 -0.1986 -0.2609 -0.0096
  485loPI   C2B 7758   5.635   0.231   9.585  0.2964 -0.0315  0.0103
  485loPI   C3B 7759   5.721   0.370   9.242  0.2044  0.0071 -0.0721
  485loPI   C4B 7760   5.802   0.456   8.904  0.5095 -0.2736 -0.0184
  486loPI    C1 7761  16.783   4.962  10.598 -0.0313 -0.2748  0.2337
  486loPI    C2 7762  17.024   5.227  10.777 -0.0095  0.0396 -0.2424
  486loPI    C3 7763  16.651   5.172  10.911  0.0303  0.2118 -0.0573
  486loPI   PO4 7764  16.694   5.052  10.357 -0.2548 -0.0117  0.2835
  486loPI   GL1 7765  16.836   4.926   9.887 -0.0002 -0.1672 -0.0433
  486loPI   GL2 7766  17.105   4.773   9.826 -0.1299 -0.1272  0.0083
  486loPI   C1A 7767  16.923   5.102   9.444 -0.1530  0.3900  0.4126
  486loPI   C2A 7768  16.769   5.194   8.948  0.1508  0.0633 -0.1141
  486loPI   C3A 7769  16.659   5.066   8.538  0.2902 -0.1012  0.1290
  486loPI   C4A 7770  16.662   4.849   8.259 -0.3587 -0.2675  0.1656
  486loPI   C5A 7771  16.683   4.425   8.168 -0.1516 -0.0111 -0.1670
  486loPI   C6A 7772  16.432   4.284   7.867 -0.2203 -0.3254 -0.0534
  486loPI   C1B 7773  17.060   4.597   9.378 -0.1620  0.0706  0.3355
  486loPI   C2B 7774  16.868   4.625   9.055  0.1626 -0.0717  0.2097
  486loPI   C3B 7775  16.944   4.626   8.596 -0.2427 -0.0330 -0.1728
  486loPI   C4B 7776  17.214   4.681   8.158  0.0184 -0.0079 -0.1080
  487loPI    C1 7777   5.521   6.532  10.878  0.1232  0.0915 -0.0268
  487loPI    C2 7778   5.346   6.267  11.122  0.0455  0.2497  0.0903
  487loPI    C3 7779   5.466   6.621  11.264  0.1682  0.2697 -0.0610
  487loPI   PO4 7780   5.398   6.470  10.616 -0.1878  0.1045 -0.0983
  487loPI   GL1 7781   5.418   6.376  10.205  0.0324 -0.2792  0.2898
  487loPI   GL2 7782   5.397   6.087  10.293  0.2733 -0.1110 -0.0542
  487loPI   C1A 7783   5.425   6.333   9.754 -0.0409  0.2307 -0.1238
  487loPI   C2A 7784   5.465   6.244   9.307 -0.1892 -0.0714  0.4156
  487loPI   C3A 7785   5.571   6.275   8.842 -0.2193  0.0824  0.0305
  487loPI   C4A 7786   5.553   6.224   8.439 -0.0782 -0.1708  0.0875
  487loPI   C5A 7787   5.563   6.140   8.063 -0.0166 -0.3696 -0.0721
  487loPI   C6A 7788   5.389   6.262   7.640  0.1413 -0.0693 -0.1050
  487loPI   C1B 7789   5.230   5.769   9.939  0.1179 -0.1852 -0.2752
  487loPI   C2B 7790   5.217   5.795   9.534 -0.1476  0.0424 -0.0881
  487loPI   C3B 7791   5.307   5.743   9.222  0.3287 -0.1434  0.1662
  487loPI   C4B 7792   5.285   5.836   8.762  0.5114 -0.1927 -0.0087
  488loPI    C1 7793  14.434  15.150  10.757 -0.0843  0.0717  0.3610
  488loPI    C2 7794  14.062  15.222  10.629  0.0110 -0.2673 -0.1352
  488loPI    C3 7795  14.122  14.981  10.943 -0.1913 -0.0699  0.0589
  488loPI   PO4 7796  14.578  15.402  10.655  0.0650 -0.2458  0.2724
  488loPI   GL1 7797  14.604  15.538  10.305  0.0394  0.0641  0.4907
  488loPI   GL2 7798  14.312  15.375  10.164 -0.1888  0.2853  0.2566
  488loPI   C1A 7799  14.804  15.385   9.876  0.2161 -0.0484  0.5138
  488loPI   C2A 7800  14.864  15.099   9.644 -0.0807  0.0580  0.0510
  488loPI   C3A 7801  14.907  14.974   9.278  0.1898  0.1846  0.0032
  488loPI   C4A 7802  14.903  15.012   8.842  0.0969 -0.1456 -0.1022
  488loPI   C5A 7803  14.726  15.471   8.743  0.0956 -0.0334 -0.0360
  488loPI   C6A 7804  14.463  15.714   8.900  0.2663  0.0065 -0.1418
  488loPI   C1B 7805  13.932  15.298   9.849 -0.2131  0.0927 -0.0666
  488loPI   C2B 7806  13.858  15.116   9.489  0.1688  0.0611  0.2139
  488loPI   C3B 7807  13.855  14.966   9.079 -0.2620  0.0011 -0.3709
  488loPI   C4B 7808  13.815  15.003   8.678  0.1383 -0.1201  0.1275
  489loPI    C1 7809  12.287  12.221  10.873  0.0334  0.2068 -0.1199
  489loPI    C2 7810  12.323  12.611  10.956 -0.0553  0.1294  0.3029
  489loPI    C3 7811  12.453  12.338  11.218  0.0400 -0.1270 -0.0069
  489loPI   PO4 7812  12.060  12.158  10.778  0.4049  0.2294  0.1375
  489loPI   GL1 7813  12.067  12.179  10.253 -0.0968 -0.0816 -0.1241
  489loPI   GL2 7814  12.229  11.917  10.041 -0.0304 -0.0641 -0.1280
  489loPI   C1A 7815  12.401  12.375   9.936  0.1591 -0.3287 -0.0052
  489loPI   C2A 7816  12.370  12.174   9.497  0.2482  0.0154  0.2895
  489loPI   C3A 7817  12.393  12.185   9.003  0.1717 -0.0464  0.0488
  489loPI   C4A 7818  12.604  12.219   8.561  0.1592  0.0590 -0.1715
  489loPI   C5A 7819  12.396  12.122   8.166  0.1817 -0.0836  0.0451
  489loPI   C6A 7820  12.031  12.248   7.905  0.3945  0.0242  0.1515
  489loPI   C1B 7821  12.156  11.754   9.642 -0.0376  0.2254  0.1851
  489loPI   C2B 7822  12.033  11.761   9.185  0.3652 -0.1299  0.0194
  489loPI   C3B 7823  12.138  11.782   8.816 -0.1476  0.0173  0.0341
  489loPI   C4B 7824  12.082  11.771   8.365 -0.0183 -0.2764  0.1052
  490loPI    C1 7825   4.823  13.878  10.984  0.1348  0.0433 -0.2902
  490loPI    C2 7826   4.785  13.485  11.048 -0.1699  0.0930 -0.1494
  490loPI    C3 7827   4.855  13.731  11.355  0.0044  0.1519 -0.2353
  490loPI   PO4 7828   4.631  13.936  10.871  0.0783 -0.1622  0.7078
  490loPI   GL1 7829   4.446  13.939  10.452 -0.3814  0.1473 -0.0604
  490loPI   GL2 7830   4.332  14.251  10.281  0.0161  0.0288 -0.0444
  490loPI   C1A 7831   4.875  13.953  10.134 -0.1505 -0.1358 -0.0166
  490loPI   C2A 7832   4.959  13.918   9.727  0.2190 -0.0356  0.2948
  490loPI   C3A 7833   4.867  13.992   9.234 -0.1170  0.1866  0.1000
  490loPI   C4A 7834   4.783  14.040   8.771  0.1910  0.1329 -0.2611
  490loPI   C5A 7835   4.800  14.182   8.342  0.0562 -0.0380  0.1319
  490loPI   C6A 7836   4.886  14.033   7.946  0.0514  0.2351 -0.0310
  490loPI   C1B 7837   4.356  14.080   9.919 -0.0358  0.2450  0.0006
  490loPI   C2B 7838   4.433  14.074   9.533 -0.0582 -0.0958 -0.2337
  490loPI   C3B 7839   4.371  14.020   9.150  0.1307  0.0457  0.0517
  490loPI   C4B 7840   4.282  14.095   8.827  0.0978  0.0228  0.1622
  491loPI    C1 7841   8.442   4.182  10.731  0.1825 -0.0633 -0.3312
  491loPI    C2 7842   8.320   3.804  10.777 -0.2029  0.1144  0.2212
  491loPI    C3 7843   8.053   4.093  10.706  0.0695  0.3120 -0.0232
  491loPI   PO4 7844   8.691   4.135  10.552 -0.3613 -0.2378 -0.2911
  491loPI   GL1 7845   8.691   3.809  10.245 -0.0412 -0.0047  0.1493
  491loPI   GL2 7846   8.412   3.848  10.252 -0.1309 -0.1624  0.2972
  491loPI   C1A 7847   8.811   3.610   9.881 -0.1292 -0.0188 -0.0651
  491loPI   C2A 7848   8.994   3.564   9.467  0.1100 -0.1156 -0.1256
  491loPI   C3A 7849   9.046   3.367   9.104  0.4457 -0.1022  0.1504
  491loPI   C4A 7850   8.968   3.220   8.623  0.0678 -0.3801  0.1786
  491loPI   C5A 7851   8.561   3.352   8.331 -0.0193 -0.2804 -0.0028
  491loPI   C6A 7852   8.272   3.453   8.140  0.0381 -0.1345 -0.3859
  491loPI   C1B 7853   8.440   4.072   9.796  0.3704 -0.0534 -0.0921
  491loPI   C2B 7854   8.280   4.378   9.575  0.0143  0.1158 -0.1514
  491loPI   C3B 7855   8.257   4.594   9.151  0.2904  0.1215  0.0680
  491loPI   C4B 7856   8.463   4.545   8.739 -0.3357  0.1126  0.0613
  492loPI    C1 7857   9.952  17.735  11.264 -0.0943 -0.0567 -0.1346
  492loPI    C2 7858  10.170  17.468  11.467 -0.1750  0.1073  0.1736
  492loPI    C3 7859   9.771  17.441  11.465 -0.1726  0.0700 -0.0179
  492loPI   PO4 7860  10.065  17.817  10.993 -0.0952 -0.4035 -0.0536
  492loPI   GL1 7861  10.106  17.863  10.577  0.0453 -0.1940 -0.2423
  492loPI   GL2 7862  10.173  17.633  10.404  0.0794 -0.3107  0.1740
  492loPI   C1A 7863  10.125  18.197  10.242  0.1401  0.0655 -0.0127
  492loPI   C2A 7864   9.959  18.483  10.022  0.0515 -0.0879  0.2151
  492loPI   C3A 7865   9.825  18.604   9.602  0.2611 -0.0068  0.1197
  492loPI   C4A 7866  10.019  18.598   9.183  0.0912  0.1255 -0.1920
  492loPI   C5A 7867   9.975  18.410   8.828  0.1522 -0.2157 -0.0177
  492loPI   C6A 7868   9.782  18.120   8.541  0.2077  0.0090 -0.0520
  492loPI   C1B 7869  10.130  17.722   9.973  0.0609 -0.0575  0.0932
  492loPI   C2B 7870  10.042  17.598   9.548  0.2087  0.2769  0.5629
  492loPI   C3B 7871   9.745  17.268   9.397 -0.0642 -0.1155  0.2898
  492loPI   C4B 7872   9.411  17.050   9.143  0.1197 -0.4525 -0.2761
  493loPI    C1 7873   7.867  14.822  10.725 -0.2108 -0.1409 -0.0337
  493loPI    C2 7874   8.140  14.896  11.007 -0.2988 -0.0400  0.0260
  493loPI    C3 7875   7.867  14.609  11.063 -0.1341 -0.2204 -0.0835
  493loPI   PO4 7876   7.823  15.013  10.562 -0.2123 -0.4678 -0.1672
  493loPI   GL1 7877   7.719  15.209  10.193  0.1523 -0.1627  0.0643
  493loPI   GL2 7878   7.977  15.349  10.232 -0.1509 -0.4326 -0.1469
  493loPI   C1A 7879   7.764  15.187   9.753 -0.1301  0.3695 -0.0533
  493loPI   C2A 7880   7.821  15.224   9.295  0.1022 -0.2052  0.5750
  493loPI   C3A 7881   7.687  15.168   8.807 -0.2407  0.1295 -0.0247
  493loPI   C4A 7882   7.425  15.359   8.564 -0.2242  0.0788  0.4622
  493loPI   C5A 7883   7.553  15.686   8.179  0.1755 -0.1537  0.0562
  493loPI   C6A 7884   7.657  15.625   7.739  0.2484 -0.1917  0.0475
  493loPI   C1B 7885   8.219  15.190   9.909 -0.0972 -0.2859  0.1254
  493loPI   C2B 7886   8.299  15.205   9.504 -0.0147 -0.1634 -0.1679
  493loPI   C3B 7887   8.377  15.305   9.144  0.0848 -0.1758 -0.1085
  493loPI   C4B 7888   8.381  15.226   8.785 -0.0139  0.0497 -0.0132
  494loPI    C1 7889   8.875  17.728  10.834 -0.0431  0.1635 -0.1426
  494loPI    C2 7890   9.035  17.889  11.164 -0.0305  0.0315 -0.0836
  494loPI    C3 7891   8.810  18.113  10.921 -0.1299  0.1025  0.0725
  494loPI   PO4 7892   9.069  17.593  10.796  0.3970 -0.1194  0.3784
  494loPI   GL1 7893   9.063  17.478  10.308 -0.0620 -0.4584 -0.0733
  494loPI   GL2 7894   8.935  17.723  10.338 -0.0833 -0.2398  0.1438
  494loPI   C1A 7895   8.946  17.459   9.849  0.0701  0.1140  0.1114
  494loPI   C2A 7896   8.832  17.798   9.611 -0.3261  0.0533 -0.0936
  494loPI   C3A 7897   9.041  17.927   9.290 -0.0801 -0.0114 -0.0398
  494loPI   C4A 7898   8.956  18.032   8.861 -0.2783  0.3548  0.1677
  494loPI   C5A 7899   8.724  18.192   8.486 -0.0585  0.1054  0.1099
  494loPI   C6A 7900   8.506  18.007   8.086 -0.2504 -0.2239 -0.0617
  494loPI   C1B 7901   9.110  17.901  10.039  0.0387 -0.0177  0.0171
  494loPI   C2B 7902   9.367  17.934   9.729  0.0237  0.1910  0.1713
  494loPI   C3B 7903   9.568  17.776   9.355 -0.0885 -0.0389  0.2707
  494loPI   C4B 7904   9.889  17.632   9.080 -0.0522 -0.0137  0.0016
  495loPI    C1 7905  11.661  16.158  10.649  0.0934  0.2196  0.2077
  495loPI    C2 7906  11.857  15.892  10.875 -0.0700 -0.0247  0.0667
  495loPI    C3 7907  11.457  15.901  10.879 -0.0687  0.1181 -0.0456
  495loPI   PO4 7908  11.732  16.107  10.333 -0.0481 -0.2248 -0.0309
  495loPI   GL1 7909  11.640  15.927  10.010  0.1000  0.1971 -0.0040
  495loPI   GL2 7910  11.373  16.083   9.940 -0.0595 -0.0488  0.0288
  495loPI   C1A 7911  11.704  15.757   9.601 -0.0701  0.0261 -0.0089
  495loPI   C2A 7912  11.816  15.755   9.239  0.3659  0.0469 -0.0559
  495loPI   C3A 7913  11.811  15.701   8.887  0.0277 -0.2117 -0.0260
  495loPI   C4A 7914  11.644  15.809   8.521  0.2500 -0.0582  0.1539
  495loPI   C5A 7915  11.510  15.540   8.224  0.2515  0.0241 -0.2213
  495loPI   C6A 7916  11.163  15.276   8.011 -0.0505  0.1818  0.2001
  495loPI   C1B 7917  11.085  16.161   9.589 -0.2342 -0.3549 -0.4295
  495loPI   C2B 7918  11.121  16.305   9.202 -0.0915 -0.0323 -0.1306
  495loPI   C3B 7919  11.026  16.348   8.791 -0.1644  0.0508  0.1836
  495loPI   C4B 7920  10.903  16.189   8.431 -0.2843 -0.0285 -0.0915
  496loPI    C1 7921   8.328  14.524  10.726 -0.0460 -0.1431 -0.0897
  496loPI    C2 7922   8.409  14.493  11.116 -0.0261 -0.0098 -0.0826
  496loPI    C3 7923   8.701  14.445  10.847 -0.0335 -0.0698 -0.0803
  496loPI   PO4 7924   8.134  14.400  10.664  0.0011 -0.0434  0.2680
  496loPI   GL1 7925   8.081  14.127  10.465 -0.0855  0.3512 -0.1756
  496loPI   GL2 7926   8.309  14.297  10.198 -0.2738 -0.0466  0.0713
  496loPI   C1A 7927   8.016  13.850  10.035 -0.0668 -0.1506  0.1254
  496loPI   C2A 7928   8.108  13.927   9.557 -0.0227  0.0871 -0.0122
  496loPI   C3A 7929   8.155  13.925   9.110  0.1837 -0.0871 -0.3671
  496loPI   C4A 7930   8.165  13.929   8.707 -0.0506  0.0119 -0.2286
  496loPI   C5A 7931   8.022  13.672   8.374 -0.3067 -0.0763  0.0809
  496loPI   C6A 7932   7.620  13.523   8.317  0.1337  0.0124 -0.1314
  496loPI   C1B 7933   8.210  14.323   9.782 -0.0536 -0.0194  0.0993
  496loPI   C2B 7934   8.323  14.345   9.408  0.1121 -0.0082  0.2290
  496loPI   C3B 7935   8.455  14.293   9.051  0.0149 -0.1435 -0.1216
  496loPI   C4B 7936   8.391  14.390   8.638  0.0812  0.0647 -0.1089
  497loPI    C1 7937   0.380  15.129  10.815 -0.3455  0.2269 -0.4256
  497loPI    C2 7938   0.296  15.236  11.191  0.1607 -0.1200 -0.2026
  497loPI    C3 7939   0.148  14.896  11.042  0.0837 -0.0589 -0.2661
  497loPI   PO4 7940   0.350  15.429  10.684  0.0945 -0.2289  0.0099
  497loPI   GL1 7941   0.121  15.675  10.462  0.2079  0.0927  0.0376
  497loPI   GL2 7942  -0.163  15.512  10.405 -0.2650 -0.0866 -0.0528
  497loPI   C1A 7943   0.329  15.919  10.166 -0.1679 -0.1880 -0.2895
  497loPI   C2A 7944   0.440  15.969   9.740 -0.0083 -0.0655 -0.1140
  497loPI   C3A 7945   0.437  16.069   9.334 -0.3483  0.0186 -0.0889
  497loPI   C4A 7946   0.356  16.168   8.849  0.0354 -0.0531 -0.1423
  497loPI   C5A 7947   0.295  16.077   8.334  0.2154  0.1408 -0.0667
  497loPI   C6A 7948  -0.142  15.875   8.165  0.2045  0.0296 -0.0657
  497loPI   C1B 7949  -0.096  15.586   9.975 -0.2744  0.0525 -0.2022
  497loPI   C2B 7950  -0.007  15.748   9.569 -0.0572 -0.1550 -0.0512
  497loPI   C3B 7951   0.029  15.845   9.106  0.2085 -0.0182 -0.0792
  497loPI   C4B 7952  -0.026  15.815   8.666 -0.0131 -0.1745 -0.0284
  498loPI    C1 7953  15.729  16.887  10.832 -0.0060 -0.3247  0.0757
  498loPI    C2 7954  16.023  16.951  11.096 -0.1041 -0.0181  0.1145
  498loPI    C3 7955  16.070  16.679  10.806  0.1378 -0.1138  0.2406
  498loPI   PO4 7956  15.715  17.091  10.714 -0.1562  0.0124  0.0162
  498loPI   GL1 7957  15.903  17.048  10.268 -0.3373  0.2375 -0.0954
  498loPI   GL2 7958  15.918  17.393  10.201  0.1873 -0.1658  0.1846
  498loPI   C1A 7959  15.910  16.771  10.065 -0.1025 -0.2080  0.0397
  498loPI   C2A 7960  15.860  16.726   9.600 -0.0912 -0.3702  0.0826
  498loPI   C3A 7961  15.939  16.579   9.238  0.0821 -0.0493 -0.1672
  498loPI   C4A 7962  15.961  16.347   8.741 -0.2087  0.2826  0.3258
  498loPI   C5A 7963  15.590  16.169   8.502  0.1241  0.0695  0.2520
  498loPI   C6A 7964  15.488  15.860   8.324 -0.1774 -0.0822 -0.3670
  498loPI   C1B 7965  15.779  17.239   9.823  0.1542 -0.1947  0.0526
  498loPI   C2B 7966  15.692  17.184   9.427 -0.1851 -0.1449 -0.2220
  498loPI   C3B 7967  15.769  16.956   9.012  0.0577  0.0624 -0.0191
  498loPI   C4B 7968  15.635  16.666   8.638 -0.0007  0.0324 -0.0977
  499loPI    C1 7969  14.988  15.010  10.665 -0.2047 -0.4340 -0.0382
  499loPI    C2 7970  14.804  14.883  10.996 -0.0107  0.0400  0.2629
  499loPI    C3 7971  15.196  14.959  11.002  0.0193 -0.0629 -0.1145
  499loPI   PO4 7972  14.871  14.844  10.493  0.2497 -0.2095  0.2421
  499loPI   GL1 7973  14.515  14.973  10.298 -0.1107  0.1889 -0.0751
  499loPI   GL2 7974  14.711  14.906  10.022 -0.0028  0.2121 -0.2637
  499loPI   C1A 7975  14.271  14.895   9.848 -0.2446  0.2300 -0.0978
  499loPI   C2A 7976  14.413  14.972   9.458  0.1679  0.0633  0.2156
  499loPI   C3A 7977  14.368  15.145   9.094 -0.0911  0.0585 -0.1190
  499loPI   C4A 7978  14.395  15.048   8.734  0.0352  0.2822  0.3219
  499loPI   C5A 7979  14.450  15.293   8.342 -0.4779  0.3288 -0.3349
  499loPI   C6A 7980  14.573  15.498   7.888 -0.1601 -0.1124  0.2871
  499loPI   C1B 7981  14.708  14.658   9.683  0.1225  0.0268 -0.1665
  499loPI   C2B 7982  14.680  14.526   9.248  0.0380 -0.1638  0.0370
  499loPI   C3B 7983  14.718  14.543   8.874 -0.1723  0.3088  0.1829
  499loPI   C4B 7984  14.848  14.525   8.485  0.1031  0.2303 -0.0632
  500loPI    C1 7985   5.310  17.709  10.849  0.0074  0.2405 -0.0941
  500loPI    C2 7986   5.483  17.725  11.209 -0.0616  0.0836 -0.0532
  500loPI    C3 7987   5.257  17.410  11.110 -0.0848  0.1505 -0.2148
  500loPI   PO4 7988   5.159  17.855  10.844  0.0188 -0.2660 -0.3257
  500loPI   GL1 7989   5.114  18.011  10.434 -0.2138 -0.3132 -0.0740
  500loPI   GL2 7990   5.434  17.877  10.374  0.0724 -0.2684  0.2881
  500loPI   C1A 7991   4.983  18.139  10.069  0.1923  0.1007 -0.5883
  500loPI   C2A 7992   4.963  18.056   9.721 -0.0974  0.0610 -0.2075
  500loPI   C3A 7993   4.990  18.259   9.336  0.0076  0.0795 -0.1717
  500loPI   C4A 7994   5.318  18.520   9.124  0.1767  0.1376 -0.2627
  500loPI   C5A 7995   5.470  18.464   8.683  0.0762  0.4873 -0.0224
  500loPI   C6A 7996   5.719  18.600   8.353 -0.1027 -0.1517  0.1897
  500loPI   C1B 7997   5.539  17.606  10.096  0.0843 -0.1544  0.0607
  500loPI   C2B 7998   5.503  17.471   9.743  0.2003  0.1264 -0.0445
  500loPI   C3B 7999   5.549  17.468   9.254  0.0566  0.0020  0.0477
  500loPI   C4B 8000   5.420  17.474   8.879 -0.0811  0.0061 -0.0123
  501loPI    C1 8001  15.884  11.966  10.307  0.1918 -0.2354 -0.1207
  501loPI    C2 8002  16.138  11.706  10.474  0.1611  0.0313  0.3596
  501loPI    C3 8003  15.818  11.833  10.678 -0.1787 -0.0398 -0.1115
  501loPI   PO4 8004  16.034  12.184  10.223 -0.1357 -0.1170 -0.2335
  501loPI   GL1 8005  16.227  12.252   9.914 -0.2374 -0.0034 -0.1345
  501loPI   GL2 8006  16.390  12.022   9.723  0.0374  0.2198  0.0470
  501loPI   C1A 8007  16.232  12.477   9.559 -0.1452 -0.0918 -0.0657
  501loPI   C2A 8008  16.427  12.550   9.172 -0.1027 -0.0088  0.0176
  501loPI   C3A 8009  16.634  12.836   8.891  0.0091 -0.2375  0.0353
  501loPI   C4A 8010  16.877  12.850   8.495  0.1408 -0.0982 -0.2112
  501loPI   C5A 8011  16.964  13.064   8.192 -0.3756  0.2223 -0.0506
  501loPI   C6A 8012  17.307  13.115   7.840 -0.1349  0.1157  0.0508
  501loPI   C1B 8013  16.135  12.062   9.318  0.2642 -0.1951  0.0248
  501loPI   C2B 8014  16.052  12.097   8.914 -0.0125 -0.0179  0.1513
  501loPI   C3B 8015  15.775  12.081   8.560  0.3410 -0.1072  0.0427
  501loPI   C4B 8016  15.779  11.997   8.150 -0.0385 -0.0256 -0.3412
  502loPI    C1 8017  15.256  17.013  10.916 -0.1433 -0.0291 -0.0534
  502loPI    C2 8018  15.060  17.123  11.247 -0.0464  0.1122 -0.0419
  502loPI    C3 8019  14.978  16.772  11.073 -0.1172  0.0495  0.1159
  502loPI   PO4 8020  15.200  17.170  10.597 -0.3346 -0.0886 -0.1093
  502loPI   GL1 8021  15.344  17.260  10.238  0.0302 -0.0655  0.1633
  502loPI   GL2 8022  15.501  17.552  10.415  0.1556  0.2797 -0.0266
  502loPI   C1A 8023  15.278  17.365   9.806  0.0591 -0.0154 -0.3207
  502loPI   C2A 8024  15.167  17.250   9.455  0.0371  0.3060 -0.0979
  502loPI   C3A 8025  15.222  17.245   9.041 -0.1178 -0.0104 -0.0250
  502loPI   C4A 8026  15.323  17.147   8.567 -0.1006  0.2039  0.0881
  502loPI   C5A 8027  15.708  17.014   8.293 -0.1208 -0.0979  0.0749
  502loPI   C6A 8028  15.909  16.760   8.270 -0.4429  0.0980  0.2069
  502loPI   C1B 8029  15.626  17.696   9.986  0.1800  0.3042 -0.1121
  502loPI   C2B 8030  15.734  17.678   9.574 -0.2795  0.0740  0.1067
  502loPI   C3B 8031  15.632  17.548   9.099 -0.1018 -0.0009  0.0699
  502loPI   C4B 8032  15.503  17.599   8.675 -0.1638  0.1801 -0.1057
  503loPI    C1 8033   0.077   2.238  10.697  0.0808 -0.1032 -0.2214
  503loPI    C2 8034   0.419   2.444  10.684 -0.1939  0.3844  0.0046
  503loPI    C3 8035   0.241   2.374  11.035 -0.3197  0.1194 -0.1097
  503loPI   PO4 8036   0.167   2.031  10.488  0.0045  0.3021  0.1254
  503loPI   GL1 8037   0.365   2.040  10.163 -0.1035 -0.3233 -0.2429
  503loPI   GL2 8038   0.690   1.904  10.177 -0.0190  0.0418  0.0147
  503loPI   C1A 8039   0.142   2.048   9.828  0.1952  0.1756  0.0754
  503loPI   C2A 8040  -0.150   2.023   9.526  0.0853 -0.2263 -0.0020
  503loPI   C3A 8041  -0.034   2.022   9.143  0.0932  0.1622 -0.2248
  503loPI   C4A 8042  -0.007   2.171   8.695  0.1654  0.1063  0.2906
  503loPI   C5A 8043   0.190   2.026   8.337 -0.1443  0.1541 -0.1552
  503loPI   C6A 8044   0.114   1.780   7.997  0.2709 -0.0576 -0.0241
  503loPI   C1B 8045   0.683   2.115   9.759 -0.1178  0.0897 -0.4059
  503loPI   C2B 8046   0.792   2.473   9.452  0.2942 -0.1896 -0.0138
  503loPI   C3B 8047   0.790   2.369   9.091  0.0166 -0.3080 -0.0119
  503loPI   C4B 8048   1.024   2.294   8.621 -0.0910 -0.2476  0.3602
  504loPI    C1 8049   8.856  13.766  10.550  0.1399 -0.0603 -0.0523
  504loPI    C2 8050   8.579  14.054  10.576 -0.0511 -0.2618  0.1959
  504loPI    C3 8051   8.757  13.917  10.907  0.5009  0.0073  0.0227
  504loPI   PO4 8052   8.906  13.534  10.385 -0.1556 -0.2026  0.3375
  504loPI   GL1 8053   9.253  13.357  10.149 -0.0074 -0.0168 -0.0292
  504loPI   GL2 8054   9.402  13.527   9.914 -0.1738  0.3120  0.0061
  504loPI   C1A 8055   9.278  13.099   9.776 -0.0255 -0.1265 -0.1485
  504loPI   C2A 8056   9.184  13.089   9.296  0.0103  0.1330  0.0555
  504loPI   C3A 8057   9.204  12.885   9.023 -0.2471 -0.0371 -0.0247
  504loPI   C4A 8058   9.406  12.785   8.625 -0.0984  0.0898 -0.0014
  504loPI   C5A 8059   9.609  12.553   8.299 -0.0667 -0.1022  0.2411
  504loPI   C6A 8060   9.434  12.308   7.960 -0.0672  0.0855 -0.0597
  504loPI   C1B 8061   9.479  13.523   9.607 -0.1894 -0.1054  0.3202
  504loPI   C2B 8062   9.431  13.515   9.237 -0.1242  0.0385  0.2580
  504loPI   C3B 8063   9.403  13.375   8.821 -0.2228  0.0786  0.0413
  504loPI   C4B 8064   9.484  13.496   8.398  0.1034 -0.2596  0.0279
  505loPI    C1 8065  14.889   5.897  10.443  0.0371 -0.2787 -0.0790
  505loPI    C2 8066  15.002   5.706  10.775  0.0572  0.0251  0.0919
  505loPI    C3 8067  14.634   5.859  10.748  0.0046 -0.1293 -0.0870
  505loPI   PO4 8068  14.926   5.700  10.288 -0.0800  0.2071 -0.2676
  505loPI   GL1 8069  14.742   5.773   9.869 -0.0924 -0.1344  0.5270
  505loPI   GL2 8070  15.020   5.585   9.808 -0.1067  0.1201 -0.0344
  505loPI   C1A 8071  14.778   5.781   9.431  0.1018 -0.2686  0.1272
  505loPI   C2A 8072  15.064   5.715   9.118 -0.2764 -0.0050  0.1670
  505loPI   C3A 8073  14.896   5.840   8.739  0.2331  0.3993  0.0854
  505loPI   C4A 8074  14.790   6.075   8.337  0.0208  0.0715  0.3791
  505loPI   C5A 8075  14.633   5.936   7.988  0.1296  0.3334  0.0484
  505loPI   C6A 8076  14.295   5.815   7.725 -0.0875 -0.1374 -0.1498
  505loPI   C1B 8077  14.812   5.288   9.530  0.5548  0.1059  0.1132
  505loPI   C2B 8078  14.523   5.408   9.189 -0.2287 -0.2050 -0.1125
  505loPI   C3B 8079  14.381   5.740   8.958  0.1337  0.0647  0.3262
  505loPI   C4B 8080  14.388   6.157   9.144 -0.1060 -0.0799 -0.1587
  506loPI    C1 8081  12.059   1.159  11.069 -0.2103  0.1441 -0.0846
  506loPI    C2 8082  11.841   1.409  11.293 -0.0226  0.0052  0.2607
  506loPI    C3 8083  11.795   1.014  11.332  0.2686 -0.0258  0.3201
  506loPI   PO4 8084  11.993   1.295  10.854 -0.1791  0.1378  0.0548
  506loPI   GL1 8085  11.892   1.191  10.426  0.0752  0.0675  0.0185
  506loPI   GL2 8086  12.076   0.881  10.562  0.1592 -0.0206  0.1076
  506loPI   C1A 8087  11.934   1.241  10.040 -0.4818 -0.1211 -0.1383
  506loPI   C2A 8088  12.087   1.173   9.520 -0.1086 -0.0178  0.0251
  506loPI   C3A 8089  12.178   1.077   9.057  0.1577 -0.1057  0.0478
  506loPI   C4A 8090  12.126   1.041   8.664 -0.0860 -0.1838  0.3234
  506loPI   C5A 8091  12.243   1.011   8.210  0.2009  0.0865 -0.3211
  506loPI   C6A 8092  12.290   0.569   7.941  0.0639  0.3551  0.4076
  506loPI   C1B 8093  12.052   0.703  10.183 -0.2482 -0.1014  0.0590
  506loPI   C2B 8094  12.143   0.670   9.748 -0.1522  0.0484 -0.0758
  506loPI   C3B 8095  12.178   0.611   9.306  0.1349 -0.0720  0.1352
  506loPI   C4B 8096  12.159   0.606   8.883  0.0606  0.0427  0.0044
  507loPI    C1 8097  10.270   7.605  10.782 -0.0268  0.0432 -0.1021
  507loPI    C2 8098  10.583   7.450  10.978 -0.2067 -0.1369  0.0465
  507loPI    C3 8099  10.219   7.290  11.024 -0.3758  0.2545  0.1065
  507loPI   PO4 8100  10.327   7.663  10.612  0.0569  0.2595  0.3102
  507loPI   GL1 8101  10.184   7.914  10.263 -0.2235  0.1836 -0.1475
  507loPI   GL2 8102   9.991   7.641  10.277 -0.2690 -0.0646 -0.0977
  507loPI   C1A 8103  10.409   7.770   9.870  0.0047 -0.1230  0.1490
  507loPI   C2A 8104  10.480   7.683   9.428 -0.0900 -0.0611  0.1431
  507loPI   C3A 8105  10.509   7.687   9.012 -0.0207  0.1412  0.1217
  507loPI   C4A 8106  10.364   7.736   8.554  0.0169  0.0903 -0.0422
  507loPI   C5A 8107  10.491   7.716   8.165  0.1280 -0.0926  0.2569
  507loPI   C6A 8108  10.342   7.490   7.842  0.1067  0.1468  0.2421
  507loPI   C1B 8109   9.878   7.758   9.799 -0.0981  0.1791 -0.4908
  507loPI   C2B 8110   9.926   7.696   9.349 -0.2262 -0.0895 -0.0628
  507loPI   C3B 8111   9.943   7.721   8.920 -0.3702 -0.0658 -0.1558
  507loPI   C4B 8112   9.847   7.754   8.498 -0.1155 -0.0502  0.2752
  508loPI    C1 8113  17.712  12.629  10.883 -0.0132 -0.0080 -0.0153
  508loPI    C2 8114  18.068  12.492  11.003  0.0688  0.0707 -0.1658
  508loPI    C3 8115  17.732  12.335  11.154  0.1631 -0.1918 -0.2235
  508loPI   PO4 8116  17.799  12.529  10.596  0.3047  0.0521 -0.1180
  508loPI   GL1 8117  17.912  12.580  10.231 -0.0755  0.2314  0.0032
  508loPI   GL2 8118  18.003  12.901  10.166  0.0705 -0.0576 -0.1523
  508loPI   C1A 8119  17.918  12.353   9.885  0.3990 -0.0511 -0.1036
  508loPI   C2A 8120  17.847  12.472   9.459 -0.0538 -0.1222  0.2862
  508loPI   C3A 8121  17.882  12.666   9.042  0.1869 -0.3068  0.0695
  508loPI   C4A 8122  17.846  12.666   8.566  0.0507 -0.1649 -0.1920
  508loPI   C5A 8123  18.046  12.682   8.101  0.1257  0.1417  0.0546
  508loPI   C6A 8124  18.486  12.887   7.996  0.0682 -0.1022  0.4036
  508loPI   C1B 8125  18.051  12.903   9.751  0.0410 -0.1647 -0.1042
  508loPI   C2B 8126  18.066  12.970   9.368  0.0056  0.1161 -0.1574
  508loPI   C3B 8127  18.095  13.144   8.982 -0.1460 -0.3530  0.1151
  508loPI   C4B 8128  18.087  13.081   8.465  0.0610 -0.0557  0.0726
  509loPI    C1 8129   8.116  10.998  10.905 -0.1003 -0.0567 -0.0771
  509loPI    C2 8130   8.479  10.963  11.070 -0.1300  0.2118  0.0501
  509loPI    C3 8131   8.177  10.736  11.202 -0.0236  0.0295 -0.0163
  509loPI   PO4 8132   8.117  10.905  10.635  0.0690  0.2328 -0.0985
  509loPI   GL1 8133   8.029  10.569  10.304 -0.2965 -0.0418 -0.1586
  509loPI   GL2 8134   7.951  10.897  10.091  0.3889 -0.1526  0.1562
  509loPI   C1A 8135   8.116  10.401   9.942  0.0413 -0.0982  0.0247
  509loPI   C2A 8136   8.243  10.454   9.540  0.2515 -0.3865 -0.0716
  509loPI   C3A 8137   8.364  10.366   9.045  0.1299  0.2740  0.0971
  509loPI   C4A 8138   8.348  10.385   8.569  0.0021  0.0699  0.0181
  509loPI   C5A 8139   8.367  10.216   8.178 -0.1951 -0.2030 -0.0108
  509loPI   C6A 8140   8.635  10.126   7.786 -0.2445  0.0916  0.1017
  509loPI   C1B 8141   7.870  10.846   9.631  0.2020 -0.0917  0.2087
  509loPI   C2B 8142   8.024  10.796   9.175  0.3788 -0.0395 -0.0443
  509loPI   C3B 8143   8.086  10.731   8.727 -0.0200 -0.2587 -0.2574
  509loPI   C4B 8144   8.160  10.873   8.306 -0.4727 -0.1695 -0.1295
  510loPI    C1 8145   5.565   0.474  10.798  0.0936 -0.1242 -0.0014
  510loPI    C2 8146   5.710   0.570  11.158 -0.1509  0.1208  0.0342
  510loPI    C3 8147   5.398   0.322  11.128 -0.1742  0.1548 -0.0049
  510loPI   PO4 8148   5.749   0.269  10.703  0.2315  0.0351  0.0244
  510loPI   GL1 8149   6.005   0.168  10.274 -0.0982  0.0030 -0.0194
  510loPI   GL2 8150   6.092   0.457  10.212 -0.1489 -0.0765 -0.0239
  510loPI   C1A 8151   5.972  -0.004   9.887  0.1334 -0.0902 -0.0448
  510loPI   C2A 8152   5.953  -0.113   9.397 -0.1140  0.2202 -0.0054
  510loPI   C3A 8153   5.832  -0.137   9.036 -0.0126 -0.0898 -0.1819
  510loPI   C4A 8154   6.008  -0.220   8.531  0.2959  0.1097 -0.0509
  510loPI   C5A 8155   6.166  -0.186   8.184  0.2472 -0.2581 -0.1679
  510loPI   C6A 8156   6.210   0.186   7.932  0.0112 -0.0597  0.2873
  510loPI   C1B 8157   5.965   0.565   9.761  0.2495 -0.0223  0.2534
  510loPI   C2B 8158   5.973   0.787   9.578  0.1793  0.0715 -0.1503
  510loPI   C3B 8159   5.870   1.110   9.332  0.2268  0.2125 -0.0882
  510loPI   C4B 8160   5.750   1.293   9.028  0.1544 -0.0553 -0.0238
  511loPI    C1 8161  14.652  10.742  10.672 -0.1260 -0.1951 -0.0492
  511loPI    C2 8162  14.379  10.731  10.965 -0.1835 -0.2973 -0.1061
  511loPI    C3 8163  14.721  10.526  11.001  0.0761  0.1643  0.1507
  511loPI   PO4 8164  14.620  10.629  10.416 -0.0365 -0.4256 -0.0571
  511loPI   GL1 8165  14.841  10.503  10.128 -0.3270 -0.1704  0.1666
  511loPI   GL2 8166  14.557  10.823   9.980  0.0321  0.0664  0.0799
  511loPI   C1A 8167  14.727  10.218   9.773 -0.0148  0.0206 -0.2531
  511loPI   C2A 8168  14.555  10.176   9.410 -0.1236  0.0903  0.0290
  511loPI   C3A 8169  14.645  10.168   8.953 -0.4884  0.0485  0.1483
  511loPI   C4A 8170  14.585  10.084   8.575  0.1342  0.0410 -0.1396
  511loPI   C5A 8171  14.267  10.024   8.266 -0.2300 -0.0982  0.3534
  511loPI   C6A 8172  14.030   9.866   7.929 -0.0935 -0.2061 -0.2930
  511loPI   C1B 8173  14.592  10.632   9.540  0.0190  0.1477 -0.2443
  511loPI   C2B 8174  14.516  10.692   9.140 -0.1074  0.0720 -0.1809
  511loPI   C3B 8175  14.248  10.583   8.808  0.3563 -0.0626 -0.1222
  511loPI   C4B 8176  14.095  10.439   8.459 -0.1336  0.4008 -0.1277
  512loPI    C1 8177   2.198   3.678  10.652  0.0526  0.1020 -0.0834
  512loPI    C2 8178   2.234   4.038  10.824 -0.0671  0.0719  0.0059
  512loPI    C3 8179   1.956   3.781  10.953 -0.0437 -0.0174 -0.1193
  512loPI   PO4 8180   2.252   3.771  10.401 -0.1664  0.1351  0.0076
  512loPI   GL1 8181   2.147   4.126  10.036  0.0934  0.1142  0.2262
  512loPI   GL2 8182   2.427   4.344   9.845  0.3137 -0.1842 -0.0700
  512loPI   C1A 8183   1.973   4.028   9.771  0.1383 -0.0369  0.1262
  512loPI   C2A 8184   1.817   3.987   9.346  0.2397  0.0579 -0.0746
  512loPI   C3A 8185   2.041   3.836   8.963  0.0843 -0.1164 -0.0801
  512loPI   C4A 8186   2.198   3.913   8.572  0.1676  0.1281  0.1651
  512loPI   C5A 8187   2.066   3.729   8.213  0.0874  0.2368  0.0010
  512loPI   C6A 8188   1.754   3.630   7.980  0.0178  0.1858  0.2151
  512loPI   C1B 8189   2.344   4.113   9.367  0.0291 -0.1833  0.0501
  512loPI   C2B 8190   2.506   4.149   8.928  0.1742 -0.0172 -0.2146
  512loPI   C3B 8191   2.553   4.490   8.694  0.1248  0.0541  0.1466
  512loPI   C4B 8192   2.333   4.630   8.490  0.2314 -0.0106  0.0897
  513loPI    C1 8193   9.052  12.385  10.644 -0.1431 -0.1111 -0.1159
  513loPI    C2 8194   9.036  12.429  11.041  0.0217 -0.0860 -0.1116
  513loPI    C3 8195   8.894  12.096  10.871 -0.3058  0.0224 -0.0569
  513loPI   PO4 8196   9.132  12.523  10.542  0.0167  0.1427 -0.0946
  513loPI   GL1 8197   9.065  12.592  10.028 -0.0723 -0.2029 -0.2780
  513loPI   GL2 8198   8.816  12.455  10.129  0.2931  0.2628  0.2502
  513loPI   C1A 8199   9.029  12.713   9.588  0.1154 -0.0597  0.1674
  513loPI   C2A 8200   8.647  12.721   9.294  0.1308  0.2469 -0.0899
  513loPI   C3A 8201   8.519  12.970   8.842 -0.1452  0.1064 -0.0358
  513loPI   C4A 8202   8.262  12.993   8.419  0.1489 -0.1073 -0.2121
  513loPI   C5A 8203   8.226  12.848   8.025  0.2666 -0.0944  0.1871
  513loPI   C6A 8204   8.251  12.561   7.737  0.2571 -0.1155 -0.5095
  513loPI   C1B 8205   8.835  12.260   9.730  0.2018  0.1138  0.0394
  513loPI   C2B 8206   8.682  12.208   9.323  0.0144  0.0736 -0.0212
  513loPI   C3B 8207   8.601  12.185   8.897 -0.1693  0.1093 -0.1421
  513loPI   C4B 8208   8.718  12.065   8.461 -0.2700 -0.1226 -0.3735
  514loPI    C1 8209   2.217  13.838  10.915  0.1272  0.2438 -0.1355
  514loPI    C2 8210   2.496  14.106  10.814  0.0537  0.3629 -0.0257
  514loPI    C3 8211   2.416  14.036  11.200  0.1595  0.0912 -0.0509
  514loPI   PO4 8212   2.059  13.894  10.667 -0.1996 -0.2640 -0.3076
  514loPI   GL1 8213   2.021  13.710  10.271 -0.4986  0.2076 -0.1953
  514loPI   GL2 8214   1.732  13.515  10.121 -0.0415  0.0305  0.0311
  514loPI   C1A 8215   2.173  13.817   9.896  0.1032  0.3697 -0.4370
  514loPI   C2A 8216   2.065  13.947   9.424  0.1175  0.2023  0.0892
  514loPI   C3A 8217   1.954  13.947   8.953 -0.0435  0.0152 -0.3566
  514loPI   C4A 8218   2.028  13.975   8.535  0.0848  0.0844 -0.1521
  514loPI   C5A 8219   1.955  14.157   8.193  0.0000  0.0943  0.2822
  514loPI   C6A 8220   1.594  14.318   8.199 -0.1488 -0.0290 -0.0106
  514loPI   C1B 8221   1.742  13.576   9.646  0.2581  0.0625  0.2639
  514loPI   C2B 8222   1.592  13.605   9.151  0.2006  0.1534 -0.0563
  514loPI   C3B 8223   1.552  13.672   8.719 -0.0946 -0.1102 -0.0670
  514loPI   C4B 8224   1.616  13.779   8.356  0.0905  0.3303  0.1322
  515loPI    C1 8225  15.996  17.559  10.665  0.0628  0.3029 -0.0155
  515loPI    C2 8226  16.168  17.584  11.025  0.0568 -0.0778  0.0185
  515loPI    C3 8227  15.769  17.579  10.994  0.0544  0.1585 -0.0118
  515loPI   PO4 8228  16.139  17.793  10.499 -0.1899  0.1187  0.2650
  515loPI   GL1 8229  16.271  17.792  10.143 -0.1658  0.0857  0.0370
  515loPI   GL2 8230  16.015  17.969   9.943 -0.1670 -0.3963 -0.1125
  515loPI   C1A 8231  16.547  17.829   9.705  0.1148 -0.0755  0.2783
  515loPI   C2A 8232  16.479  17.808   9.221 -0.1478 -0.0585 -0.0236
  515loPI   C3A 8233  16.500  17.780   8.810 -0.3204  0.0771 -0.2329
  515loPI   C4A 8234  16.713  17.831   8.369 -0.0895  0.4899  0.2048
  515loPI   C5A 8235  16.677  17.513   8.005 -0.0292  0.0754  0.1897
  515loPI   C6A 8236  16.618  17.115   8.021  0.1150 -0.0216 -0.0855
  515loPI   C1B 8237  16.084  17.978   9.528 -0.0809 -0.1849 -0.1682
  515loPI   C2B 8238  15.978  17.876   9.102 -0.0010 -0.0596  0.1889
  515loPI   C3B 8239  16.026  17.789   8.659  0.0932 -0.3672 -0.0145
  515loPI   C4B 8240  16.100  17.842   8.217 -0.2329 -0.0969  0.0219
  516loPI    C1 8241   0.536  16.518  10.855 -0.1884  0.1802 -0.0005
  516loPI    C2 8242   0.552  16.573  11.251 -0.0846  0.0439  0.0151
  516loPI    C3 8243   0.424  16.224  11.102  0.1810 -0.0212 -0.0655
  516loPI   PO4 8244   0.565  16.794  10.727 -0.0352 -0.1654 -0.2867
  516loPI   GL1 8245   0.320  16.862  10.347  0.3871  0.0780 -0.0462
  516loPI   GL2 8246   0.628  16.815  10.239 -0.0003  0.0074 -0.3076
  516loPI   C1A 8247   0.078  16.673  10.096 -0.1484  0.3737 -0.2638
  516loPI   C2A 8248  -0.033  16.684   9.767  0.0435  0.0414 -0.2865
  516loPI   C3A 8249  -0.224  16.774   9.425 -0.1525 -0.1284  0.1156
  516loPI   C4A 8250  -0.214  16.842   8.966 -0.2210  0.1210  0.1401
  516loPI   C5A 8251  -0.342  16.808   8.548 -0.3000  0.1234 -0.0080
  516loPI   C6A 8252  -0.481  16.930   8.209 -0.2086  0.1779 -0.1313
  516loPI   C1B 8253   0.647  16.853   9.742  0.3896  0.0821  0.3892
  516loPI   C2B 8254   0.716  16.866   9.308  0.0837 -0.0570 -0.0378
  516loPI   C3B 8255   0.679  16.950   8.909 -0.1165  0.2204  0.2126
  516loPI   C4B 8256   0.900  16.813   8.554 -0.1781 -0.0369  0.0363
  517loPI    C1 8257  17.242   9.499  10.528 -0.0582  0.2754  0.0524
  517loPI    C2 8258  17.039   9.322  10.824  0.0517 -0.0740 -0.0772
  517loPI    C3 8259  17.438   9.295  10.811  0.0989  0.4526  0.0734
  517loPI   PO4 8260  17.182   9.445  10.365  0.2864  0.0187 -0.2576
  517loPI   GL1 8261  17.104   9.459  10.009  0.0819 -0.0164  0.0610
  517loPI   GL2 8262  17.476   9.547   9.977 -0.1257  0.1345  0.0348
  517loPI   C1A 8263  17.027   9.443   9.637  0.0642  0.0715 -0.0979
  517loPI   C2A 8264  16.973   9.409   9.187 -0.2243  0.1230  0.0332
  517loPI   C3A 8265  16.913   9.504   8.828  0.2320 -0.0940  0.1342
  517loPI   C4A 8266  16.847   9.424   8.422  0.0372  0.2230  0.2332
  517loPI   C5A 8267  16.791   9.614   8.037  0.1863  0.1677 -0.1485
  517loPI   C6A 8268  16.947   9.613   7.595 -0.2175 -0.1282 -0.1120
  517loPI   C1B 8269  17.409   9.782   9.605 -0.0583  0.0892  0.0370
  517loPI   C2B 8270  17.388   9.702   9.169  0.0733 -0.0318 -0.1224
  517loPI   C3B 8271  17.311   9.799   8.854 -0.1010 -0.2668  0.1453
  517loPI   C4B 8272  17.288   9.721   8.449 -0.0814  0.0825 -0.2019
  518loPI    C1 8273  10.555   9.663  10.940  0.1314  0.1504  0.0082
  518loPI    C2 8274  10.343   9.466  11.216 -0.1480  0.0726 -0.2563
  518loPI    C3 8275  10.494   9.827  11.299 -0.2191  0.0452  0.0002
  518loPI   PO4 8276  10.453   9.713  10.692  0.0059  0.1379  0.1552
  518loPI   GL1 8277  10.158   9.767  10.396 -0.1705  0.0199 -0.0997
  518loPI   GL2 8278  10.175   9.414  10.415  0.0685 -0.2110 -0.1513
  518loPI   C1A 8279  10.143   9.998   9.987 -0.1990  0.0643 -0.0828
  518loPI   C2A 8280  10.161  10.053   9.470 -0.0065 -0.0563  0.3634
  518loPI   C3A 8281  10.081  10.057   9.073 -0.0961  0.0445  0.1215
  518loPI   C4A 8282  10.128   9.907   8.687 -0.0230  0.2766 -0.0554
  518loPI   C5A 8283  10.209  10.006   8.282  0.1983 -0.0468 -0.1510
  518loPI   C6A 8284  10.049   9.970   7.951 -0.2882 -0.0841 -0.0480
  518loPI   C1B 8285  10.140   9.252  10.103  0.0918 -0.1896  0.1554
  518loPI   C2B 8286  10.188   9.184   9.616  0.0609  0.3161  0.1062
  518loPI   C3B 8287  10.127   9.030   9.194 -0.1575 -0.2291  0.2674
  518loPI   C4B 8288  10.192   9.003   8.868 -0.3475 -0.1100 -0.0073
  519loPI    C1 8289  16.928   4.055  10.410  0.1123 -0.0366  0.0330
  519loPI    C2 8290  17.115   3.752  10.591 -0.0125 -0.1121  0.0361
  519loPI    C3 8291  16.807   3.933  10.771  0.0328 -0.0131  0.0145
  519loPI   PO4 8292  16.812   4.017  10.164  0.2297 -0.3489  0.3301
  519loPI   GL1 8293  16.873   4.077   9.743  0.0403 -0.0840 -0.0818
  519loPI   GL2 8294  16.762   4.366   9.802  0.0176  0.0530  0.0558
  519loPI   C1A 8295  16.916   4.095   9.296 -0.2074  0.2513  0.0382
  519loPI   C2A 8296  16.976   3.672   8.924  0.2897 -0.1250  0.0086
  519loPI   C3A 8297  17.234   3.692   8.545 -0.0879 -0.2082 -0.2202
  519loPI   C4A 8298  17.601   3.439   8.347 -0.0625 -0.0901  0.1142
  519loPI   C5A 8299  17.516   3.066   8.190 -0.0009  0.2486 -0.1260
  519loPI   C6A 8300  17.484   2.737   7.900  0.0593 -0.2763  0.3458
  519loPI   C1B 8301  16.515   4.445   9.452 -0.2961  0.0380  0.1573
  519loPI   C2B 8302  16.317   4.362   9.128  0.1038  0.1040 -0.2594
  519loPI   C3B 8303  16.621   4.252   8.829 -0.0418  0.2048 -0.0060
  519loPI   C4B 8304  16.721   3.891   8.504  0.2780 -0.0245 -0.2946
  520loPI    C1 8305  16.743  17.653  11.107  0.0845 -0.1594  0.1453
  520loPI    C2 8306  16.940  17.711  11.450 -0.0388  0.1060  0.1742
  520loPI    C3 8307  16.619  17.933  11.364 -0.0454 -0.0007 -0.0863
  520loPI   PO4 8308  16.920  17.737  10.905 -0.0748  0.0777  0.0049
  520loPI   GL1 8309  17.042  17.665  10.420  0.0271  0.2846 -0.3670
  520loPI   GL2 8310  16.801  17.639  10.183 -0.1379  0.4773 -0.0401
  520loPI   C1A 8311  17.065  18.020  10.172  0.0792 -0.3338  0.0232
  520loPI   C2A 8312  16.995  18.136   9.727  0.0023  0.2062  0.2396
  520loPI   C3A 8313  16.949  18.183   9.333  0.0791  0.0513 -0.0620
  520loPI   C4A 8314  16.912  18.168   8.825 -0.0513 -0.0634 -0.0216
  520loPI   C5A 8315  17.078  18.144   8.453  0.0980 -0.1750 -0.1086
  520loPI   C6A 8316  17.136  18.424   8.059  0.0658  0.2727 -0.2572
  520loPI   C1B 8317  16.759  17.382   9.846 -0.1081 -0.2590  0.3191
  520loPI   C2B 8318  16.694  17.338   9.411 -0.2954 -0.0624 -0.0236
  520loPI   C3B 8319  16.639  17.245   8.903  0.1027  0.1788  0.0073
  520loPI   C4B 8320  16.555  17.353   8.552  0.1927 -0.0857 -0.1434
  521loPI    C1 8321   7.930   1.523  10.745  0.2194 -0.2385  0.2420
  521loPI    C2 8322   7.554   1.490  10.878  0.0637 -0.0723 -0.1398
  521loPI    C3 8323   7.833   1.662  11.107 -0.1142 -0.1077  0.1073
  521loPI   PO4 8324   7.844   1.565  10.413  0.0765 -0.0877  0.2806
  521loPI   GL1 8325   7.795   1.271   9.994 -0.1768 -0.2592 -0.4013
  521loPI   GL2 8326   8.016   1.143  10.037 -0.2007 -0.3248 -0.2184
  521loPI   C1A 8327   7.714   1.053   9.577 -0.0749 -0.0106 -0.0511
  521loPI   C2A 8328   7.888   0.970   9.230 -0.2182  0.0999 -0.1524
  521loPI   C3A 8329   8.039   0.572   9.032  0.0163  0.0074 -0.1909
  521loPI   C4A 8330   8.062   0.705   8.604 -0.0711 -0.0416 -0.1990
  521loPI   C5A 8331   8.182   0.928   8.336 -0.1135 -0.0978  0.1079
  521loPI   C6A 8332   8.188   1.335   8.114 -0.2251  0.1230  0.1917
  521loPI   C1B 8333   8.272   1.181   9.623 -0.1055  0.1028  0.0247
  521loPI   C2B 8334   8.416   1.189   9.259  0.0344 -0.2791 -0.0325
  521loPI   C3B 8335   8.392   1.557   8.855 -0.0867 -0.1517  0.0240
  521loPI   C4B 8336   8.247   1.737   8.416 -0.1162 -0.0284  0.0080
  522loPI    C1 8337  16.563  12.918  10.815 -0.1783  0.0731 -0.1494
  522loPI    C2 8338  16.650  13.273  10.978  0.0340 -0.0352 -0.0219
  522loPI    C3 8339  16.920  12.978  10.987 -0.2333 -0.2799  0.0984
  522loPI   PO4 8340  16.374  13.030  10.616  0.0248 -0.0941 -0.1382
  522loPI   GL1 8341  16.409  13.001  10.164 -0.0939  0.1326  0.2000
  522loPI   GL2 8342  16.570  13.160  10.134 -0.0607  0.0013 -0.2579
  522loPI   C1A 8343  16.492  12.975   9.705 -0.0820 -0.0636  0.2849
  522loPI   C2A 8344  16.854  12.996   9.441 -0.2055  0.0051  0.0446
  522loPI   C3A 8345  17.010  13.202   9.063 -0.2912  0.2005  0.1508
  522loPI   C4A 8346  17.017  13.300   8.662  0.1698 -0.1617 -0.4204
  522loPI   C5A 8347  17.299  13.460   8.338 -0.1734 -0.1478 -0.1659
  522loPI   C6A 8348  17.453  13.628   8.092  0.2191 -0.1595 -0.1024
  522loPI   C1B 8349  16.786  13.398   9.863  0.1430 -0.1445  0.0832
  522loPI   C2B 8350  16.767  13.515   9.499 -0.2344 -0.1726 -0.0262
  522loPI   C3B 8351  16.459  13.351   9.207 -0.2616 -0.1722  0.1994
  522loPI   C4B 8352  16.218  13.544   8.898 -0.0808 -0.0495  0.0245
  523loPI    C1 8353   3.927  13.296  10.920  0.0278  0.0114 -0.1432
  523loPI    C2 8354   3.545  13.364  11.017  0.0827  0.2434 -0.0831
  523loPI    C3 8355   3.741  13.056  11.181  0.0090  0.3007  0.1161
  523loPI   PO4 8356   3.931  13.323  10.675 -0.0257  0.0440 -0.0751
  523loPI   GL1 8357   4.063  13.565  10.365 -0.3105 -0.1500  0.0896
  523loPI   GL2 8358   4.015  13.862  10.159 -0.0907  0.0781 -0.2392
  523loPI   C1A 8359   4.099  13.368  10.019 -0.0720  0.1054  0.1500
  523loPI   C2A 8360   3.961  13.158   9.616 -0.2344  0.0880  0.1005
  523loPI   C3A 8361   4.078  13.330   9.305  0.1307  0.0766  0.4881
  523loPI   C4A 8362   3.926  13.374   8.900 -0.0516  0.0076  0.4752
  523loPI   C5A 8363   3.944  13.346   8.455 -0.1113 -0.1665 -0.0622
  523loPI   C6A 8364   3.971  13.470   8.120 -0.1972 -0.1528  0.0387
  523loPI   C1B 8365   4.009  13.699   9.621 -0.1292 -0.3039  0.3640
  523loPI   C2B 8366   3.869  13.787   9.199 -0.1198 -0.0839  0.0972
  523loPI   C3B 8367   3.861  13.862   8.763 -0.0845 -0.0813  0.2048
  523loPI   C4B 8368   3.749  13.897   8.389  0.2742  0.0201  0.2998
  524loPI    C1 8369   8.332   2.676  10.844  0.1402  0.2188 -0.0524
  524loPI    C2 8370   8.475   2.512  11.180  0.2473 -0.0636 -0.2322
  524loPI    C3 8371   8.653   2.833  11.023  0.2479  0.0184 -0.0667
  524loPI   PO4 8372   8.284   2.490  10.631  0.1512 -0.0850  0.5120
  524loPI   GL1 8373   8.618   2.310  10.300  0.1379 -0.0218 -0.1176
  524loPI   GL2 8374   8.756   2.543  10.147 -0.3207 -0.2592  0.0580
  524loPI   C1A 8375   8.771   2.206   9.800  0.1490  0.2643  0.1917
  524loPI   C2A 8376   8.827   2.061   9.451  0.1051  0.0840  0.0094
  524loPI   C3A 8377   8.661   2.119   9.150  0.2561 -0.0848  0.3403
  524loPI   C4A 8378   8.627   1.986   8.730  0.0953 -0.4529  0.0827
  524loPI   C5A 8379   8.727   1.788   8.442 -0.0987 -0.1041  0.0151
  524loPI   C6A 8380   8.632   1.830   7.993 -0.4268 -0.2739 -0.1476
  524loPI   C1B 8381   8.669   2.663   9.618 -0.1548 -0.1265 -0.1885
  524loPI   C2B 8382   8.683   2.688   9.146  0.2214  0.0126 -0.3295
  524loPI   C3B 8383   8.788   2.520   8.736 -0.3409  0.0649 -0.0453
  524loPI   C4B 8384   9.050   2.229   8.485  0.0059  0.3160  0.2054
  525loPI    C1 8385   8.619  15.036  11.021  0.3094  0.1409  0.0436
  525loPI    C2 8386   8.794  14.819  11.308  0.0899  0.1146  0.1600
  525loPI    C3 8387   8.459  15.023  11.388 -0.0113  0.0524 -0.0957
  525loPI   PO4 8388   8.640  14.956  10.764  0.1418  0.1228 -0.0006
  525loPI   GL1 8389   8.333  15.014  10.397  0.0401  0.2703  0.0069
  525loPI   GL2 8390   8.201  14.736  10.299  0.2274  0.2401 -0.1269
  525loPI   C1A 8391   8.537  14.822   9.979  0.3121  0.0252  0.0365
  525loPI   C2A 8392   8.556  14.764   9.429 -0.1259  0.0633 -0.1280
  525loPI   C3A 8393   8.649  14.795   9.022 -0.1148 -0.0623  0.1057
  525loPI   C4A 8394   8.747  14.794   8.535  0.1152 -0.0835 -0.3066
  525loPI   C5A 8395   9.057  14.971   8.172  0.1341 -0.1845 -0.1093
  525loPI   C6A 8396   9.238  15.284   7.956  0.1042 -0.2705  0.1510
  525loPI   C1B 8397   8.011  14.755   9.854 -0.0380 -0.0834  0.0157
  525loPI   C2B 8398   8.008  14.834   9.467  0.1570 -0.1242  0.2133
  525loPI   C3B 8399   8.093  14.875   9.060  0.1208  0.0431 -0.2204
  525loPI   C4B 8400   7.898  14.761   8.615  0.4305  0.0637 -0.2619
  526loPI    C1 8401   2.339  15.850  11.154  0.0139  0.3062 -0.1904
  526loPI    C2 8402   2.695  15.704  11.046 -0.0227  0.0978 -0.0347
  526loPI    C3 8403   2.654  15.893  11.396 -0.0905  0.0129  0.0038
  526loPI   PO4 8404   2.233  15.923  10.964 -0.0204  0.0683  0.0094
  526loPI   GL1 8405   2.439  15.700  10.626  0.3739 -0.0803 -0.0179
  526loPI   GL2 8406   2.179  15.707  10.424 -0.0157 -0.1183 -0.1132
  526loPI   C1A 8407   2.578  15.588  10.180  0.0936 -0.0671 -0.3599
  526loPI   C2A 8408   2.625  15.588   9.757  0.1530 -0.1034  0.2060
  526loPI   C3A 8409   2.689  15.603   9.331 -0.1465  0.0996 -0.1087
  526loPI   C4A 8410   2.588  15.636   8.861 -0.2694 -0.1925 -0.1549
  526loPI   C5A 8411   2.526  15.665   8.363  0.3669 -0.1039  0.0985
  526loPI   C6A 8412   2.433  15.597   7.923  0.1275  0.1335 -0.1617
  526loPI   C1B 8413   2.197  15.785   9.944  0.1486 -0.2383  0.0038
  526loPI   C2B 8414   2.199  15.714   9.497  0.0246 -0.0493  0.1575
  526loPI   C3B 8415   2.220  15.810   9.105  0.1268  0.1177 -0.0369
  526loPI   C4B 8416   2.148  15.800   8.664  0.2437  0.0547 -0.2680
  527loPI    C1 8417  10.576  11.964  10.408 -0.2404 -0.1432 -0.3552
  527loPI    C2 8418  10.498  11.663  10.660 -0.2875  0.0739 -0.1067
  527loPI    C3 8419  10.811  11.641  10.413  0.0232  0.0422  0.2800
  527loPI   PO4 8420  10.286  12.024  10.369  0.0842 -0.2156 -0.2715
  527loPI   GL1 8421  10.047  12.300  10.013 -0.0662 -0.0585  0.1187
  527loPI   GL2 8422   9.785  12.107   9.823 -0.1016  0.0743 -0.2162
  527loPI   C1A 8423  10.282  12.204   9.625  0.2445  0.2603  0.3648
  527loPI   C2A 8424  10.441  12.205   9.254  0.0572  0.1905  0.2498
  527loPI   C3A 8425  10.435  12.159   8.749 -0.2172 -0.0188 -0.0251
  527loPI   C4A 8426  10.319  12.209   8.312 -0.2667  0.1754 -0.2030
  527loPI   C5A 8427  10.363  12.167   7.937  0.0567 -0.3980  0.5090
  527loPI   C6A 8428  10.151  12.246   7.547 -0.0152  0.0349 -0.1441
  527loPI   C1B 8429   9.822  12.273   9.428 -0.0299 -0.1825 -0.0486
  527loPI   C2B 8430   9.933  12.234   8.952  0.0559  0.1100 -0.0201
  527loPI   C3B 8431   9.862  12.153   8.494 -0.2992  0.2650 -0.0721
  527loPI   C4B 8432   9.882  12.053   8.057 -0.0442 -0.0084  0.2698
  528loPI    C1 8433  14.024  17.774  10.812 -0.0613  0.1137  0.2276
  528loPI    C2 8434  13.971  17.790  11.208  0.1699  0.0989  0.2609
  528loPI    C3 8435  14.336  17.840  11.053  0.0941  0.0242  0.0540
  528loPI   PO4 8436  13.875  17.626  10.680  0.1301  0.2211 -0.0930
  528loPI   GL1 8437  13.860  17.462  10.301  0.1398  0.1348  0.0319
  528loPI   GL2 8438  14.062  17.669  10.128 -0.2082  0.1212  0.0012
  528loPI   C1A 8439  13.378  17.352  10.180 -0.0656 -0.1062  0.2337
  528loPI   C2A 8440  13.293  17.519   9.696  0.0190 -0.0447  0.1415
  528loPI   C3A 8441  13.275  17.636   9.226  0.1674  0.4107 -0.2429
  528loPI   C4A 8442  13.362  17.491   8.835  0.0517 -0.0821  0.0573
  528loPI   C5A 8443  13.590  17.397   8.501 -0.0426  0.2361  0.2755
  528loPI   C6A 8444  13.489  17.107   8.230  0.1226  0.2434  0.2122
  528loPI   C1B 8445  14.191  17.726   9.695 -0.0114 -0.1859  0.3690
  528loPI   C2B 8446  14.194  17.654   9.267  0.0871  0.1111  0.0590
  528loPI   C3B 8447  14.331  17.737   8.857  0.3150 -0.1004 -0.0598
  528loPI   C4B 8448  14.357  17.560   8.461 -0.1668  0.0490  0.1359
  529loPI    C1 8449  10.495   8.642  10.862  0.1017  0.1998  0.1486
  529loPI    C2 8450  10.720   8.575  11.185 -0.0034  0.1673  0.2153
  529loPI    C3 8451  10.325   8.626  11.224 -0.0350  0.0342  0.0787
  529loPI   PO4 8452  10.679   8.713  10.662 -0.2625 -0.1948  0.2324
  529loPI   GL1 8453  10.736   8.932  10.342 -0.1039 -0.0408 -0.0838
  529loPI   GL2 8454  10.892   8.696  10.190  0.1745  0.2627 -0.0306
  529loPI   C1A 8455  10.642   9.045   9.879 -0.2626  0.0525  0.2782
  529loPI   C2A 8456  10.695   9.012   9.476 -0.3040 -0.3592 -0.1579
  529loPI   C3A 8457  10.733   9.075   8.996 -0.4363  0.2077 -0.0123
  529loPI   C4A 8458  10.709   9.039   8.508  0.0733  0.1191 -0.2382
  529loPI   C5A 8459  10.686   9.444   8.230 -0.0039 -0.0215  0.2706
  529loPI   C6A 8460  10.589   9.791   7.976  0.0105 -0.2712 -0.2925
  529loPI   C1B 8461  11.105   8.868   9.900  0.1286 -0.0224 -0.1701
  529loPI   C2B 8462  11.196   8.986   9.469 -0.1761  0.0380 -0.3123
  529loPI   C3B 8463  11.361   9.170   9.139  0.0390  0.0268 -0.0361
  529loPI   C4B 8464  11.176   9.114   8.760 -0.2331 -0.4780 -0.1948
  530loPI    C1 8465   5.041  11.354  10.526 -0.1134  0.0030 -0.0940
  530loPI    C2 8466   5.064  11.063  10.800  0.0554 -0.1053 -0.2212
  530loPI    C3 8467   4.914  11.420  10.900  0.2842 -0.0847  0.0615
  530loPI   PO4 8468   4.859  11.288  10.293  0.0583 -0.0169  0.0532
  530loPI   GL1 8469   4.586  11.243   9.920  0.0594  0.2503  0.2246
  530loPI   GL2 8470   4.913  11.043   9.795  0.1338  0.2539 -0.2582
  530loPI   C1A 8471   4.373  11.126   9.527 -0.1566 -0.2898 -0.2887
  530loPI   C2A 8472   4.127  11.191   9.196  0.0161 -0.2711  0.0640
  530loPI   C3A 8473   4.081  11.268   8.685  0.0156  0.2976  0.1380
  530loPI   C4A 8474   3.896  11.116   8.392 -0.1459  0.1549 -0.1307
  530loPI   C5A 8475   3.821  11.224   7.958  0.2605 -0.0305 -0.0803
  530loPI   C6A 8476   3.938  11.445   7.550  0.1137  0.0413 -0.1876
  530loPI   C1B 8477   5.074  11.209   9.455  0.1995  0.0685  0.2278
  530loPI   C2B 8478   4.967  11.283   9.074  0.0620 -0.2711 -0.1595
  530loPI   C3B 8479   5.046  11.461   8.731  0.1126  0.2063  0.1776
  530loPI   C4B 8480   4.980  11.559   8.365  0.0048  0.1643 -0.2258
  531loPI    C1 8481  13.657   1.850  11.018 -0.1234  0.1387  0.2579
  531loPI    C2 8482  13.421   1.537  11.096 -0.0524 -0.0049 -0.0854
  531loPI    C3 8483  13.803   1.534  11.214 -0.0215 -0.0982 -0.1854
  531loPI   PO4 8484  13.609   1.872  10.755  0.1920 -0.2855  0.0199
  531loPI   GL1 8485  13.447   1.916  10.318 -0.0700 -0.0174 -0.1586
  531loPI   GL2 8486  13.162   2.007  10.208 -0.1364 -0.2344  0.0956
  531loPI   C1A 8487  13.452   1.604  10.012 -0.3523 -0.2429 -0.2055
  531loPI   C2A 8488  13.430   1.511   9.573 -0.0097 -0.1237  0.1588
  531loPI   C3A 8489  13.449   1.577   9.120  0.1209 -0.0736 -0.1949
  531loPI   C4A 8490  13.463   1.539   8.701 -0.0495  0.1592  0.1486
  531loPI   C5A 8491  13.404   1.518   8.211  0.1010  0.1072  0.2352
  531loPI   C6A 8492  13.325   1.363   7.803 -0.2677  0.0443  0.1042
  531loPI   C1B 8493  13.336   2.002   9.760 -0.0399  0.0512 -0.1225
  531loPI   C2B 8494  13.339   2.026   9.295 -0.0350  0.2188  0.0278
  531loPI   C3B 8495  13.376   1.996   8.879  0.0180 -0.3118 -0.5315
  531loPI   C4B 8496  13.390   2.120   8.432 -0.1257 -0.0395 -0.1872
  532loPI    C1 8497   0.488  14.507  10.702  0.1982 -0.1356 -0.0063
  532loPI    C2 8498   0.615  14.701  11.028 -0.0650  0.1874 -0.0906
  532loPI    C3 8499   0.403  14.364  11.066  0.0504  0.1314  0.0668
  532loPI   PO4 8500   0.466  14.650  10.547 -0.0669  0.0486 -0.1604
  532loPI   GL1 8501   0.558  14.804  10.113 -0.0327  0.1596  0.1751
  532loPI   GL2 8502   0.417  15.066  10.278  0.0892  0.0632  0.0017
  532loPI   C1A 8503   0.533  14.960   9.728  0.0519  0.0544  0.3315
  532loPI   C2A 8504   0.497  15.027   9.301 -0.2586  0.1259 -0.1692
  532loPI   C3A 8505   0.474  15.071   8.906  0.3020 -0.0718  0.1519
  532loPI   C4A 8506   0.549  15.126   8.476  0.0168  0.1370  0.0377
  532loPI   C5A 8507   0.444  15.221   8.149  0.0154 -0.1791 -0.0096
  532loPI   C6A 8508   0.286  15.632   8.022 -0.1645 -0.3478  0.1214
  532loPI   C1B 8509   0.322  15.397  10.035 -0.2354 -0.0538 -0.0290
  532loPI   C2B 8510   0.439  15.482   9.591  0.1733 -0.1629 -0.0650
  532loPI   C3B 8511   0.406  15.566   9.175 -0.0286 -0.0327 -0.0506
  532loPI   C4B 8512   0.453  15.608   8.700  0.0181  0.0573 -0.3184
  533loPI    C1 8513  18.299  15.388  10.934  0.0204  0.1833 -0.1057
  533loPI    C2 8514  18.078  15.709  11.026 -0.0073  0.1330  0.0048
  533loPI    C3 8515  18.287  15.522  11.311 -0.1563 -0.0717 -0.0181
  533loPI   PO4 8516  18.129  15.226  10.851 -0.1928 -0.0249 -0.2002
  533loPI   GL1 8517  17.942  14.997  10.453 -0.0337  0.0136  0.0937
  533loPI   GL2 8518  17.931  14.765  10.200 -0.2127 -0.1360 -0.4206
  533loPI   C1A 8519  18.295  15.079  10.076  0.0631 -0.0639 -0.1124
  533loPI   C2A 8520  18.392  15.219   9.676  0.3780 -0.0539 -0.0875
  533loPI   C3A 8521  18.378  15.325   9.253 -0.3084  0.3465  0.0811
  533loPI   C4A 8522  18.456  15.345   8.801 -0.1194  0.2866 -0.0675
  533loPI   C5A 8523  18.429  15.358   8.454 -0.2349 -0.2587  0.1102
  533loPI   C6A 8524  18.330  15.021   8.182  0.2289  0.1887  0.0935
  533loPI   C1B 8525  17.978  14.906   9.747 -0.1258 -0.0129 -0.2876
  533loPI   C2B 8526  18.003  14.970   9.313  0.0151  0.0813 -0.0879
  533loPI   C3B 8527  18.084  15.025   8.881  0.0652  0.0594  0.1796
  533loPI   C4B 8528  17.945  15.160   8.469 -0.1554  0.1749 -0.3153
  534loPI    C1 8529   3.362   5.051  10.690  0.0006 -0.3472 -0.1564
  534loPI    C2 8530   2.989   4.908  10.700 -0.0245 -0.2693  0.0675
  534loPI    C3 8531   3.192   4.964  11.041  0.0251  0.1204 -0.0207
  534loPI   PO4 8532   3.389   5.102  10.432 -0.0077 -0.2042  0.4075
  534loPI   GL1 8533   3.375   4.961  10.029  0.0047 -0.1570 -0.0213
  534loPI   GL2 8534   3.630   4.987  10.002 -0.0958  0.3980 -0.1910
  534loPI   C1A 8535   3.381   5.243   9.636 -0.1680 -0.0747  0.0868
  534loPI   C2A 8536   3.272   5.261   9.282  0.0598  0.2222 -0.1507
  534loPI   C3A 8537   3.061   5.247   8.760  0.1735  0.2639 -0.0053
  534loPI   C4A 8538   2.882   5.393   8.379  0.1240  0.0758  0.1711
  534loPI   C5A 8539   2.858   5.583   8.044 -0.1276 -0.1131  0.0414
  534loPI   C6A 8540   2.553   5.499   7.779 -0.0501 -0.0141 -0.0251
  534loPI   C1B 8541   3.641   4.778   9.666 -0.1653  0.2200 -0.3597
  534loPI   C2B 8542   3.535   4.825   9.255 -0.0094  0.1790 -0.1137
  534loPI   C3B 8543   3.427   4.842   8.840  0.0267  0.3174 -0.3366
  534loPI   C4B 8544   3.114   4.761   8.601 -0.0193  0.0439  0.0642
  535loPI    C1 8545   8.385  10.472  10.863  0.1388 -0.1508 -0.0334
  535loPI    C2 8546   8.603  10.146  10.941  0.4936  0.0635 -0.1085
  535loPI    C3 8547   8.575  10.437  11.213 -0.1101 -0.1756  0.1016
  535loPI   PO4 8548   8.394  10.439  10.615 -0.0864 -0.3617 -0.0353
  535loPI   GL1 8549   8.588  10.701  10.410 -0.1662  0.1182  0.3493
  535loPI   GL2 8550   8.691  10.911  10.247  0.2332 -0.2426  0.1971
  535loPI   C1A 8551   8.753  10.443  10.057  0.4043  0.0072  0.4384
  535loPI   C2A 8552   8.717  10.441   9.701  0.0920  0.2173  0.0020
  535loPI   C3A 8553   8.845  10.383   9.187  0.0199  0.0754  0.0281
  535loPI   C4A 8554   8.837  10.340   8.804 -0.3104  0.0700  0.1505
  535loPI   C5A 8555   8.862  10.386   8.444 -0.0300  0.0168  0.1300
  535loPI   C6A 8556   8.738  10.574   8.068 -0.1287 -0.2683  0.2204
  535loPI   C1B 8557   8.422  10.814   9.895 -0.1810 -0.1145 -0.1639
  535loPI   C2B 8558   8.503  10.911   9.521 -0.4654 -0.0292 -0.2173
  535loPI   C3B 8559   8.545  10.842   9.054  0.0833  0.0837 -0.0251
  535loPI   C4B 8560   8.660  10.828   8.601 -0.0431 -0.2209  0.1705
  536loPI    C1 8561  12.298   1.771  11.169 -0.1933 -0.1188  0.0014
  536loPI    C2 8562  12.167   2.039  11.436 -0.0038 -0.0215 -0.0016
  536loPI    C3 8563  12.243   1.663  11.550  0.1506  0.0392  0.1004
  536loPI   PO4 8564  12.193   1.919  10.837  0.2147  0.1633  0.1753
  536loPI   GL1 8565  12.454   1.970  10.450 -0.1566  0.0300  0.1210
  536loPI   GL2 8566  12.671   2.072  10.264  0.0083 -0.0251  0.3579
  536loPI   C1A 8567  12.294   1.669  10.164  0.0493  0.3768 -0.4470
  536loPI   C2A 8568  12.054   1.599   9.705  0.1493  0.1824 -0.0770
  536loPI   C3A 8569  12.105   1.645   9.305 -0.1459 -0.0597  0.3802
  536loPI   C4A 8570  12.159   1.624   8.746 -0.0952 -0.1082  0.3624
  536loPI   C5A 8571  12.134   1.492   8.323 -0.2164 -0.1707 -0.1317
  536loPI   C6A 8572  12.446   1.439   7.926 -0.0239 -0.0553  0.1065
  536loPI   C1B 8573  12.509   2.015   9.711 -0.0170 -0.0105 -0.1632
  536loPI   C2B 8574  12.465   1.940   9.277 -0.0710 -0.1419  0.1481
  536loPI   C3B 8575  12.567   1.968   8.777 -0.0711  0.2356 -0.0649
  536loPI   C4B 8576  12.482   1.784   8.320 -0.0645  0.0150 -0.3381
  537loPI    C1 8577   2.435  11.147  10.638 -0.0487 -0.0425 -0.0256
  537loPI    C2 8578   2.431  11.019  11.017 -0.1432  0.0868  0.0178
  537loPI    C3 8579   2.766  11.173  10.862 -0.1296  0.1182  0.0778
  537loPI   PO4 8580   2.398  11.006  10.491  0.0148  0.0145  0.0638
  537loPI   GL1 8581   2.452  11.084  10.053  0.0645 -0.1236  0.2782
  537loPI   GL2 8582   2.159  11.196   9.938 -0.1031  0.2153 -0.0795
  537loPI   C1A 8583   2.758  11.288   9.688  0.2707 -0.1827 -0.0683
  537loPI   C2A 8584   2.674  11.221   9.215  0.3845  0.2010  0.1824
  537loPI   C3A 8585   2.544  11.124   8.842  0.1600  0.1904 -0.3169
  537loPI   C4A 8586   2.508  11.203   8.371  0.1096  0.0509 -0.0537
  537loPI   C5A 8587   2.616  11.496   8.033  0.1220 -0.0155 -0.0001
  537loPI   C6A 8588   2.776  11.730   7.659  0.2419 -0.1095 -0.1288
  537loPI   C1B 8589   2.227  11.321   9.499 -0.0211 -0.0799 -0.0168
  537loPI   C2B 8590   2.101  11.122   9.108 -0.2489  0.1347 -0.0770
  537loPI   C3B 8591   2.057  11.270   8.652 -0.0454 -0.2279  0.0258
  537loPI   C4B 8592   2.120  11.723   8.526 -0.0796  0.1206 -0.0601
  538loPI    C1 8593   2.175  15.003  11.192  0.3661 -0.0671  0.2537
  538loPI    C2 8594   1.894  14.866  11.441  0.0353  0.0560 -0.0439
  538loPI    C3 8595   1.919  15.258  11.364  0.1888  0.0281 -0.1405
  538loPI   PO4 8596   2.098  14.857  10.945 -0.1439 -0.0935 -0.1236
  538loPI   GL1 8597   2.158  14.841  10.461 -0.0275  0.4051  0.0411
  538loPI   GL2 8598   2.188  15.115  10.467  0.0177 -0.1458  0.2299
  538loPI   C1A 8599   1.889  14.880  10.135 -0.0277 -0.1306 -0.1427
  538loPI   C2A 8600   1.935  14.895   9.692 -0.2301  0.1085 -0.0294
  538loPI   C3A 8601   1.795  14.872   9.306 -0.2336 -0.2920  0.2211
  538loPI   C4A 8602   1.819  14.944   8.881 -0.1266  0.0448  0.5518
  538loPI   C5A 8603   1.739  15.041   8.386  0.1403  0.1456  0.0294
  538loPI   C6A 8604   1.714  15.198   7.972  0.0438 -0.1679  0.2088
  538loPI   C1B 8605   2.283  15.233   9.985  0.2961 -0.4392 -0.0936
  538loPI   C2B 8606   2.329  15.217   9.550 -0.3528 -0.0557  0.1237
  538loPI   C3B 8607   2.250  15.277   9.123 -0.0886  0.0278 -0.1273
  538loPI   C4B 8608   2.235  15.334   8.617  0.1207  0.1176 -0.2750
  539loPI    C1 8609   1.394   5.824  10.431 -0.1205 -0.1842 -0.0975
  539loPI    C2 8610   1.076   5.741  10.659  0.0235 -0.2165  0.0938
  539loPI    C3 8611   1.332   6.027  10.770 -0.0317 -0.0702 -0.1491
  539loPI   PO4 8612   1.249   5.753  10.174  0.0023 -0.1553 -0.3645
  539loPI   GL1 8613   1.017   5.721   9.847  0.0335  0.0020  0.0429
  539loPI   GL2 8614   0.951   5.424   9.772 -0.0334  0.1207  0.2174
  539loPI   C1A 8615   1.140   5.814   9.381  0.3881  0.2347 -0.2831
  539loPI   C2A 8616   1.244   5.713   8.968  0.1314  0.2106  0.1620
  539loPI   C3A 8617   1.454   5.464   8.691  0.1464 -0.3915 -0.0515
  539loPI   C4A 8618   1.593   5.125   8.475  0.1248  0.0504 -0.1014
  539loPI   C5A 8619   1.651   4.998   8.079  0.0982 -0.1732 -0.1382
  539loPI   C6A 8620   1.860   4.927   7.677  0.0990  0.3253 -0.0815
  539loPI   C1B 8621   0.976   5.333   9.260 -0.4333 -0.2050 -0.2396
  539loPI   C2B 8622   1.080   5.195   8.891 -0.1569 -0.0723 -0.2755
  539loPI   C3B 8623   1.091   5.151   8.450 -0.1790  0.1496  0.0340
  539loPI   C4B 8624   1.176   4.974   8.062 -0.0629  0.2032  0.0769
  540loPI    C1 8625  18.260  10.056  10.408 -0.1070 -0.1427 -0.0249
  540loPI    C2 8626  18.093  10.419  10.429 -0.1899 -0.1665 -0.2493
  540loPI    C3 8627  18.066  10.168  10.740  0.1054  0.1187  0.0148
  540loPI   PO4 8628  18.464  10.114  10.305 -0.0723 -0.1925  0.0924
  540loPI   GL1 8629  18.599  10.227   9.949  0.1763  0.0687 -0.1610
  540loPI   GL2 8630  18.221  10.301   9.911  0.1780 -0.2700  0.0889
  540loPI   C1A 8631  18.771   9.956   9.596 -0.3033  0.1242 -0.0170
  540loPI   C2A 8632  18.794   9.931   9.166 -0.1148  0.0509  0.0580
  540loPI   C3A 8633  18.726   9.971   8.713  0.2071  0.1343  0.0132
  540loPI   C4A 8634  18.830  10.168   8.295 -0.1541 -0.0781  0.0977
  540loPI   C5A 8635  18.745  10.185   7.892 -0.2121  0.3669 -0.3381
  540loPI   C6A 8636  18.733   9.731   7.831  0.3133  0.0572  0.1112
  540loPI   C1B 8637  18.351  10.181   9.457 -0.2582 -0.0687  0.1213
  540loPI   C2B 8638  18.280  10.228   9.043 -0.0080 -0.1092 -0.1228
  540loPI   C3B 8639  18.184  10.237   8.587 -0.3242 -0.0383  0.0609
  540loPI   C4B 8640  18.353  10.397   8.156 -0.0289 -0.1521 -0.0600
  541loPI    C1 8641   2.187   6.207  10.750  0.1324  0.1044  0.0046
  541loPI    C2 8642   1.839   6.401  10.712  0.1099  0.0852  0.1085
  541loPI    C3 8643   1.941   6.240  11.063  0.2957  0.2280  0.1218
  541loPI   PO4 8644   2.206   6.155  10.537 -0.0374  0.2238  0.2974
  541loPI   GL1 8645   2.340   6.315  10.047 -0.0796  0.1869  0.0823
  541loPI   GL2 8646   2.272   5.981  10.085 -0.2510  0.0785  0.1991
  541loPI   C1A 8647   2.354   6.337   9.593 -0.1584 -0.1602 -0.0679
  541loPI   C2A 8648   2.380   6.273   9.123 -0.0017 -0.1603  0.0795
  541loPI   C3A 8649   2.401   5.999   8.775  0.1375  0.2397 -0.2440
  541loPI   C4A 8650   2.459   5.861   8.355 -0.0496  0.3135 -0.4177
  541loPI   C5A 8651   2.318   5.808   8.021 -0.2248  0.2459  0.1811
  541loPI   C6A 8652   2.211   5.819   7.572  0.2406  0.0655 -0.1405
  541loPI   C1B 8653   2.139   5.839   9.674 -0.4910 -0.1355  0.0586
  541loPI   C2B 8654   2.199   5.518   9.329  0.3267 -0.0036 -0.0141
  541loPI   C3B 8655   2.014   5.222   9.052 -0.1007  0.3046 -0.1327
  541loPI   C4B 8656   2.142   4.832   8.975  0.0954  0.2831 -0.0515
  542loPI    C1 8657   9.275   4.927  10.584  0.2504 -0.2280  0.0010
  542loPI    C2 8658   9.139   4.803  10.939 -0.1472 -0.0915 -0.0983
  542loPI    C3 8659   9.188   5.193  10.869 -0.0282 -0.1207 -0.1796
  542loPI   PO4 8660   9.126   4.720  10.425 -0.0448 -0.1471  0.1526
  542loPI   GL1 8661   9.090   4.652  10.082  0.1421 -0.2831  0.0480
  542loPI   GL2 8662   8.751   4.475  10.090  0.0120 -0.0992 -0.2601
  542loPI   C1A 8663   8.905   4.557   9.630  0.3201 -0.0616  0.0136
  542loPI   C2A 8664   8.676   4.373   9.196  0.0771  0.0681 -0.2403
  542loPI   C3A 8665   8.437   4.070   8.872  0.1984 -0.2165 -0.3126
  542loPI   C4A 8666   8.258   3.834   8.529  0.1184 -0.3766 -0.2554
  542loPI   C5A 8667   8.001   3.877   8.007 -0.1257  0.4780 -0.0362
  542loPI   C6A 8668   8.005   4.206   7.752  0.2673  0.1137  0.0649
  542loPI   C1B 8669   8.946   4.075   9.846  0.6007  0.0753  0.3068
  542loPI   C2B 8670   9.037   4.077   9.456 -0.1704 -0.1134  0.1453
  542loPI   C3B 8671   8.960   3.939   8.968 -0.0069  0.2716 -0.0016
  542loPI   C4B 8672   8.896   4.217   8.730  0.2826  0.1995 -0.0919
  543loPI    C1 8673   2.051  17.749  11.001  0.0819  0.2041 -0.1366
  543loPI    C2 8674   1.901  17.429  10.813  0.1341  0.0888  0.0169
  543loPI    C3 8675   1.674  17.635  11.069  0.1624  0.0548  0.0696
  543loPI   PO4 8676   2.283  17.770  10.733 -0.1079  0.0850  0.1594
  543loPI   GL1 8677   2.477  17.785  10.362 -0.0400  0.0352  0.1047
  543loPI   GL2 8678   2.189  17.833  10.283  0.4420  0.0251 -0.0272
  543loPI   C1A 8679   2.690  17.725  10.023 -0.1972  0.2756 -0.0657
  543loPI   C2A 8680   2.624  17.587   9.644 -0.1037  0.0402 -0.1323
  543loPI   C3A 8681   2.785  17.456   9.202 -0.2215  0.0057 -0.1787
  543loPI   C4A 8682   2.736  17.398   8.658 -0.0551  0.1643 -0.1248
  543loPI   C5A 8683   2.522  17.501   8.279  0.2770 -0.1191 -0.1994
  543loPI   C6A 8684   2.274  17.563   7.910 -0.0095  0.0871  0.2771
  543loPI   C1B 8685   2.171  17.889   9.837 -0.2063  0.2596 -0.1760
  543loPI   C2B 8686   2.164  17.844   9.444  0.1461  0.1809  0.2844
  543loPI   C3B 8687   2.356  17.688   9.096 -0.0440  0.5986  0.3954
  543loPI   C4B 8688   2.363  17.730   8.731 -0.0502 -0.3339  0.5025
  544loPI    C1 8689   7.047  16.856  11.145  0.1740  0.3351  0.0351
  544loPI    C2 8690   7.269  16.695  11.436  0.0886 -0.0186 -0.0895
  544loPI    C3 8691   6.970  16.945  11.527  0.2349  0.0875  0.1072
  544loPI   PO4 8692   6.967  16.719  10.989 -0.0837  0.1180  0.1796
  544loPI   GL1 8693   6.925  16.537  10.646 -0.0243  0.1367 -0.0569
  544loPI   GL2 8694   7.192  16.419  10.604  0.0079  0.2520 -0.1440
  544loPI   C1A 8695   6.689  16.305  10.327 -0.1014 -0.1810  0.1513
  544loPI   C2A 8696   6.627  16.096   9.924 -0.0533 -0.5538  0.0163
  544loPI   C3A 8697   6.764  16.115   9.451  0.0806 -0.0297 -0.2869
  544loPI   C4A 8698   6.755  16.054   8.929 -0.2696  0.0350  0.5790
  544loPI   C5A 8699   6.551  15.882   8.545 -0.2175 -0.0567 -0.0637
  544loPI   C6A 8700   6.417  15.678   8.225  0.0262 -0.3178  0.2806
  544loPI   C1B 8701   7.164  16.273  10.166  0.2677 -0.0332 -0.0134
  544loPI   C2B 8702   7.014  16.398   9.855 -0.0815 -0.0750 -0.2627
  544loPI   C3B 8703   7.032  16.732   9.523  0.1225 -0.1712  0.2372
  544loPI   C4B 8704   7.057  16.789   9.055  0.2682  0.0012  0.2157
  545loPI    C1 8705   9.263  10.432  10.707 -0.0367  0.1029  0.1485
  545loPI    C2 8706   8.913  10.314  10.552 -0.0590  0.2038  0.1215
  545loPI    C3 8707   8.920  10.582  10.849  0.0061  0.4063 -0.0601
  545loPI   PO4 8708   9.369  10.475  10.461  0.1000  0.2595 -0.0240
  545loPI   GL1 8709   9.409  10.376  10.074 -0.0765  0.0538 -0.1562
  545loPI   GL2 8710   9.597  10.171  10.153  0.0330 -0.0698 -0.0466
  545loPI   C1A 8711   9.309  10.463   9.676 -0.1893 -0.0506 -0.0477
  545loPI   C2A 8712   9.351  10.418   9.219 -0.2297  0.0174  0.0820
  545loPI   C3A 8713   9.401  10.372   8.750  0.0311 -0.1848  0.1558
  545loPI   C4A 8714   9.401  10.365   8.311  0.0537  0.3848 -0.1807
  545loPI   C5A 8715   9.547  10.222   7.879  0.1059 -0.0171 -0.2305
  545loPI   C6A 8716   9.764  10.004   7.479  0.4285 -0.1796  0.1954
  545loPI   C1B 8717   9.535   9.983   9.690  0.1216 -0.0330  0.0710
  545loPI   C2B 8718   9.587   9.980   9.312  0.2268  0.1087  0.0138
  545loPI   C3B 8719   9.632   9.941   8.851 -0.0252 -0.0112 -0.1227
  545loPI   C4B 8720   9.608   9.923   8.386  0.4507 -0.1418 -0.2176
  546loPI    C1 8721   4.472   9.625  10.280  0.3297  0.1593  0.0094
  546loPI    C2 8722   4.189   9.459  10.508  0.1794  0.1201 -0.2032
  546loPI    C3 8723   4.568   9.467  10.635  0.0596  0.3163  0.1547
  546loPI   PO4 8724   4.507   9.536  10.132 -0.0377  0.0691  0.1797
  546loPI   GL1 8725   4.351   9.748   9.810  0.2840  0.2579  0.0109
  546loPI   GL2 8726   4.378  10.116   9.784  0.0651 -0.0919  0.1936
  546loPI   C1A 8727   4.317   9.874   9.368 -0.1766 -0.0773  0.5942
  546loPI   C2A 8728   4.172  10.236   9.151 -0.1077  0.0331 -0.0143
  546loPI   C3A 8729   4.164  10.274   8.727 -0.2190  0.0368  0.0695
  546loPI   C4A 8730   3.846  10.363   8.458 -0.2527  0.0391  0.0528
  546loPI   C5A 8731   3.730  10.380   8.033 -0.1624 -0.1147 -0.2663
  546loPI   C6A 8732   3.391  10.257   7.780 -0.3273 -0.1742 -0.2009
  546loPI   C1B 8733   4.636  10.263   9.456  0.2736 -0.2920 -0.2948
  546loPI   C2B 8734   4.647  10.390   9.014  0.1463  0.3131  0.0674
  546loPI   C3B 8735   4.638  10.580   8.563 -0.2410  0.0412 -0.1028
  546loPI   C4B 8736   4.686  10.674   8.028  0.0785  0.2926 -0.0487
  547loPI    C1 8737  12.455  13.127  11.077  0.0929  0.0971  0.1912
  547loPI    C2 8738  12.245  12.887  11.319 -0.1551 -0.1006 -0.2085
  547loPI    C3 8739  12.126  13.264  11.259 -0.1571 -0.0857 -0.1131
  547loPI   PO4 8740  12.468  13.053  10.807 -0.1018 -0.0225  0.0340
  547loPI   GL1 8741  12.528  13.198  10.386 -0.1896  0.0485 -0.0411
  547loPI   GL2 8742  12.255  13.496  10.320 -0.1553 -0.0963  0.1072
  547loPI   C1A 8743  12.583  12.965  10.121  0.1446 -0.0601  0.2098
  547loPI   C2A 8744  12.616  12.892   9.676  0.1800  0.1650 -0.4598
  547loPI   C3A 8745  12.554  12.613   9.265 -0.1419  0.2606  0.1008
  547loPI   C4A 8746  12.662  12.730   8.925 -0.0282 -0.1890  0.0983
  547loPI   C5A 8747  12.901  12.663   8.546 -0.0761  0.1156  0.0953
  547loPI   C6A 8748  12.838  12.517   8.167  0.0340  0.0948 -0.0271
  547loPI   C1B 8749  12.087  13.632   9.922 -0.0656  0.0948  0.0797
  547loPI   C2B 8750  12.020  13.640   9.480  0.3231  0.1808  0.6439
  547loPI   C3B 8751  12.173  13.591   9.017 -0.3912 -0.2243 -0.0183
  547loPI   C4B 8752  12.169  13.666   8.606 -0.1053 -0.0382 -0.0449
  548loPI    C1 8753   9.588  12.340  10.494  0.0451 -0.2924 -0.1126
  548loPI    C2 8754   9.916  12.369  10.722  0.0074  0.0680 -0.0985
  548loPI    C3 8755   9.581  12.209  10.872  0.0151  0.2029  0.0662
  548loPI   PO4 8756   9.628  12.369  10.291 -0.1481 -0.1898 -0.0252
  548loPI   GL1 8757   9.548  12.570   9.874 -0.1120 -0.1782 -0.0890
  548loPI   GL2 8758   9.344  12.236   9.908 -0.2245 -0.1070 -0.1348
  548loPI   C1A 8759   9.636  12.722   9.418 -0.0075 -0.1078  0.1209
  548loPI   C2A 8760   9.581  12.532   8.936 -0.0434 -0.1650  0.2254
  548loPI   C3A 8761   9.386  12.213   8.722  0.1721  0.0400 -0.0626
  548loPI   C4A 8762   9.315  12.047   8.349  0.0943 -0.0154  0.2574
  548loPI   C5A 8763   8.997  11.996   8.037 -0.0746 -0.0114  0.0932
  548loPI   C6A 8764   8.710  11.957   7.763  0.1414 -0.0868  0.1916
  548loPI   C1B 8765   9.343  12.227   9.477  0.0851 -0.0116  0.0795
  548loPI   C2B 8766   9.134  12.362   9.121 -0.0576  0.2089  0.0608
  548loPI   C3B 8767   8.966  12.552   8.752  0.0086  0.1526  0.1808
  548loPI   C4B 8768   9.099  12.495   8.362  0.1210 -0.1992  0.2083
  549loPI    C1 8769   9.531  11.465  10.382  0.2110  0.0298 -0.0221
  549loPI    C2 8770   9.435  11.283  10.725  0.0481 -0.0303 -0.0988
  549loPI    C3 8771   9.691  11.590  10.727 -0.2964  0.2643  0.1380
  549loPI   PO4 8772   9.590  11.299  10.218 -0.0907  0.1628 -0.0623
  549loPI   GL1 8773   9.861  11.369   9.952  0.3192  0.0400  0.2202
  549loPI   GL2 8774  10.042  11.052  10.122  0.0845  0.0656 -0.0322
  549loPI   C1A 8775   9.709  11.371   9.502  0.1306  0.2655  0.0191
  549loPI   C2A 8776   9.831  11.331   8.934  0.0756  0.0152  0.0931
  549loPI   C3A 8777   9.954  11.356   8.517 -0.1385  0.3075 -0.1220
  549loPI   C4A 8778  10.015  11.292   8.065  0.2215  0.0024  0.1753
  549loPI   C5A 8779   9.743  11.448   7.641  0.3355 -0.1842  0.1122
  549loPI   C6A 8780   9.564  11.552   7.295  0.1207 -0.0431 -0.3467
  549loPI   C1B 8781   9.978  10.838   9.748 -0.0284 -0.1249  0.4806
  549loPI   C2B 8782   9.993  10.940   9.304  0.1098  0.5332  0.0131
  549loPI   C3B 8783  10.151  10.905   8.818  0.1154  0.0744 -0.0996
  549loPI   C4B 8784  10.158  10.901   8.400 -0.3014  0.1228  0.2334
  550loPI    C1 8785   9.932   8.934  11.146  0.2569 -0.2685 -0.0003
  550loPI    C2 8786  10.128   9.091  11.457 -0.1102 -0.3007  0.2536
  550loPI    C3 8787   9.904   8.764  11.507 -0.4338 -0.1181  0.0300
  550loPI   PO4 8788  10.203   9.056  10.899 -0.0993  0.0318 -0.1675
  550loPI   GL1 8789  10.273   8.946  10.479  0.1206  0.0366  0.0769
  550loPI   GL2 8790   9.919   8.900  10.420  0.1710 -0.2825 -0.0285
  550loPI   C1A 8791  10.323   8.782  10.066 -0.0871 -0.3722  0.0272
  550loPI   C2A 8792  10.332   8.661   9.641  0.0332  0.3219 -0.0099
  550loPI   C3A 8793  10.400   8.587   9.185 -0.1200 -0.0801 -0.2657
  550loPI   C4A 8794  10.469   8.600   8.765 -0.1275  0.0634  0.3573
  550loPI   C5A 8795  10.324   8.581   8.310  0.0423 -0.0248  0.1023
  550loPI   C6A 8796   9.959   8.593   8.056 -0.0178 -0.0925 -0.1293
  550loPI   C1B 8797   9.882   8.765   9.889  0.2060 -0.0460 -0.0463
  550loPI   C2B 8798   9.834   8.652   9.461 -0.1588  0.1433  0.1911
  550loPI   C3B 8799   9.930   8.588   9.003  0.1056 -0.0934 -0.5685
  550loPI   C4B 8800   9.905   8.659   8.642 -0.0236  0.1916  0.1559
  551loPI    C1 8801   0.070  16.755  10.873 -0.0282 -0.2980 -0.0245
  551loPI    C2 8802   0.201  16.884  11.229  0.0191 -0.1197 -0.1053
  551loPI    C3 8803  -0.010  16.545  11.204  0.1150 -0.1944  0.0775
  551loPI   PO4 8804   0.022  17.046  10.807  0.3766 -0.0858  0.1154
  551loPI   GL1 8805  -0.117  17.314  10.479 -0.1005  0.0234 -0.0663
  551loPI   GL2 8806  -0.303  17.561  10.366 -0.1367  0.0359  0.0034
  551loPI   C1A 8807   0.048  17.224  10.085 -0.0458  0.1566  0.1151
  551loPI   C2A 8808   0.094  17.132   9.642 -0.0013 -0.0015  0.0974
  551loPI   C3A 8809   0.243  17.123   9.225  0.3457 -0.0165  0.1018
  551loPI   C4A 8810   0.151  17.165   8.731  0.2687  0.1598  0.1300
  551loPI   C5A 8811   0.044  17.094   8.289  0.3552 -0.2135  0.3727
  551loPI   C6A 8812   0.156  17.161   7.942  0.1862 -0.1110  0.0564
  551loPI   C1B 8813  -0.396  17.646   9.967  0.0594  0.2640  0.3719
  551loPI   C2B 8814  -0.381  17.793   9.504 -0.2076  0.3397  0.2134
  551loPI   C3B 8815  -0.500  17.764   9.048 -0.1441 -0.0147  0.1250
  551loPI   C4B 8816  -0.353  17.839   8.731 -0.0356 -0.2699 -0.0734
  552loPI    C1 8817  11.368  13.993  10.911  0.0028  0.0932 -0.1023
  552loPI    C2 8818  11.707  14.189  10.989 -0.0747  0.2095 -0.0550
  552loPI    C3 8819  11.561  13.929  11.255 -0.0380  0.1811 -0.0626
  552loPI   PO4 8820  11.475  13.908  10.652  0.1621  0.2266 -0.0066
  552loPI   GL1 8821  11.405  14.034  10.254 -0.0594 -0.0416 -0.2729
  552loPI   GL2 8822  11.792  13.958  10.133  0.1109 -0.3003 -0.0087
  552loPI   C1A 8823  11.328  14.102   9.811  0.2375 -0.1150 -0.2222
  552loPI   C2A 8824  11.286  14.085   9.282 -0.2553 -0.1310  0.0317
  552loPI   C3A 8825  11.272  14.040   8.840  0.1058  0.1363 -0.1309
  552loPI   C4A 8826  11.321  13.966   8.354  0.1995 -0.1378 -0.3289
  552loPI   C5A 8827  11.321  13.888   7.884 -0.3938 -0.1066  0.4254
  552loPI   C6A 8828  11.217  14.088   7.487  0.2565  0.1441 -0.1004
  552loPI   C1B 8829  11.794  14.075   9.809  0.0024  0.0817 -0.3706
  552loPI   C2B 8830  11.766  14.035   9.358  0.1286  0.1323 -0.0945
  552loPI   C3B 8831  11.828  14.002   8.906  0.0348  0.1080 -0.0855
  552loPI   C4B 8832  11.805  14.010   8.514 -0.2471 -0.0672  0.0880
  553loPI    C1 8833   7.362  15.877  10.847  0.2055  0.0793 -0.1024
  553loPI    C2 8834   7.580  15.945  11.175  0.1749  0.1038 -0.0872
  553loPI    C3 8835   7.471  15.572  11.082  0.2144  0.0927 -0.0892
  553loPI   PO4 8836   7.442  15.931  10.675  0.0210 -0.0438 -0.4039
  553loPI   GL1 8837   7.238  15.814  10.249 -0.1410 -0.0838 -0.2534
  553loPI   GL2 8838   7.576  15.707  10.122 -0.2355 -0.1153 -0.0076
  553loPI   C1A 8839   7.130  15.889   9.911  0.2114  0.1078 -0.3390
  553loPI   C2A 8840   7.291  16.087   9.570 -0.1800  0.2217 -0.1822
  553loPI   C3A 8841   7.257  16.320   9.177 -0.0648  0.0329  0.2330
  553loPI   C4A 8842   7.161  16.310   8.684  0.0555 -0.0366 -0.1702
  553loPI   C5A 8843   6.994  16.067   8.381 -0.2223  0.0531  0.0716
  553loPI   C6A 8844   7.100  15.882   8.047  0.0452  0.0457  0.0947
  553loPI   C1B 8845   7.703  16.077   9.839  0.1896  0.2857  0.0776
  553loPI   C2B 8846   7.779  16.064   9.440 -0.0937 -0.0148 -0.0827
  553loPI   C3B 8847   7.789  16.129   9.068  0.2188  0.3307 -0.2072
  553loPI   C4B 8848   7.681  16.413   8.803  0.0271 -0.0527  0.1070
  554loPI    C1 8849   5.470   5.559  10.669 -0.1036  0.2269  0.2185
  554loPI    C2 8850   5.151   5.553  10.428  0.1205  0.2084 -0.0833
  554loPI    C3 8851   5.180   5.291  10.730 -0.1863  0.2652 -0.0017
  554loPI   PO4 8852   5.612   5.697  10.500 -0.0392  0.2322 -0.0087
  554loPI   GL1 8853   5.684   5.551  10.104  0.2428  0.1284 -0.1536
  554loPI   GL2 8854   5.923   5.548   9.960  0.0507  0.2256  0.2251
  554loPI   C1A 8855   5.475   5.351   9.726  0.1193  0.1053  0.0773
  554loPI   C2A 8856   5.545   5.319   9.360 -0.0555 -0.0318 -0.0637
  554loPI   C3A 8857   5.573   5.403   8.919  0.1226  0.3117 -0.3411
  554loPI   C4A 8858   5.831   5.412   8.655 -0.1046 -0.0694  0.1327
  554loPI   C5A 8859   6.002   5.499   8.274  0.0507  0.2379 -0.0433
  554loPI   C6A 8860   6.015   5.844   8.173  0.0039  0.1621  0.2579
  554loPI   C1B 8861   5.982   5.409   9.556 -0.0116  0.0149 -0.2737
  554loPI   C2B 8862   6.103   5.483   9.099 -0.3709  0.4140 -0.1814
  554loPI   C3B 8863   6.269   5.230   8.680  0.3503  0.0726 -0.4204
  554loPI   C4B 8864   6.543   4.833   8.521 -0.0688 -0.2991  0.2328
  555loPI    C1 8865  11.951   3.236  11.004 -0.0605 -0.1908 -0.0260
  555loPI    C2 8866  12.078   3.234  11.383  0.1465 -0.0374 -0.0929
  555loPI    C3 8867  11.689   3.188  11.303  0.0717  0.1457  0.1499
  555loPI   PO4 8868  12.147   3.360  10.891 -0.0506  0.0610  0.2138
  555loPI   GL1 8869  12.202   3.464  10.456  0.1674  0.4789  0.1518
  555loPI   GL2 8870  12.138   3.853  10.353  0.0366  0.1905 -0.1293
  555loPI   C1A 8871  12.254   3.484   9.941 -0.0079  0.0499  0.0203
  555loPI   C2A 8872  12.210   3.455   9.527  0.1576  0.0525 -0.0526
  555loPI   C3A 8873  12.275   3.460   9.183 -0.0816 -0.1831 -0.0070
  555loPI   C4A 8874  12.301   3.517   8.812  0.1547  0.0178 -0.0520
  555loPI   C5A 8875  12.180   3.504   8.400 -0.3323  0.1916  0.0484
  555loPI   C6A 8876  12.138   3.291   7.976  0.1017 -0.1752  0.1077
  555loPI   C1B 8877  11.857   3.776  10.030 -0.1879 -0.1189  0.1813
  555loPI   C2B 8878  11.761   3.781   9.543  0.1500  0.0932  0.3498
  555loPI   C3B 8879  11.815   3.600   9.196  0.1587 -0.1834 -0.2200
  555loPI   C4B 8880  11.781   3.683   8.798  0.1643 -0.3035 -0.0521
  556loPI    C1 8881  14.405  11.811  10.298 -0.0163 -0.2219 -0.1394
  556loPI    C2 8882  14.088  11.891  10.067 -0.0926 -0.0720  0.0152
  556loPI    C3 8883  14.065  11.943  10.463  0.1746  0.0916  0.0113
  556loPI   PO4 8884  14.557  11.633  10.194 -0.0202 -0.0692 -0.3135
  556loPI   GL1 8885  14.626  11.512   9.819  0.0256 -0.0981  0.0050
  556loPI   GL2 8886  14.470  11.737   9.719 -0.1200 -0.0416  0.3541
  556loPI   C1A 8887  14.796  11.567   9.405 -0.1153 -0.0541 -0.2038
  556loPI   C2A 8888  14.982  11.385   9.023 -0.1295  0.0784  0.0396
  556loPI   C3A 8889  15.133  11.253   8.610  0.0485 -0.3040  0.0349
  556loPI   C4A 8890  15.473  11.066   8.457 -0.0916  0.0193 -0.0751
  556loPI   C5A 8891  15.575  10.918   8.075 -0.1791  0.3262  0.1918
  556loPI   C6A 8892  15.730  11.050   7.669  0.2128 -0.2830  0.2752
  556loPI   C1B 8893  14.227  11.610   9.367  0.0268  0.1685  0.3923
  556loPI   C2B 8894  14.091  11.762   8.884  0.0020  0.1252 -0.2850
  556loPI   C3B 8895  14.040  11.665   8.504 -0.0598 -0.1627  0.1132
  556loPI   C4B 8896  14.046  11.310   8.149  0.1193  0.0745 -0.0550
  557loPI    C1 8897  10.558  14.002  11.160  0.1437 -0.0980  0.2860
  557loPI    C2 8898  10.581  14.401  11.173 -0.0339 -0.0764  0.0248
  557loPI    C3 8899  10.322  14.208  11.409  0.0074 -0.0334  0.1060
  557loPI   PO4 8900  10.550  13.942  10.912  0.1928 -0.3105  0.0586
  557loPI   GL1 8901  10.744  13.892  10.537 -0.1616  0.0882  0.6772
  557loPI   GL2 8902  11.014  13.803  10.511  0.1351 -0.1287  0.0098
  557loPI   C1A 8903  10.648  14.154  10.145 -0.0449 -0.0061  0.1179
  557loPI   C2A 8904  10.709  14.124   9.661  0.0593 -0.4052  0.3062
  557loPI   C3A 8905  10.758  14.055   9.266  0.1686 -0.1393  0.0810
  557loPI   C4A 8906  10.775  14.065   8.957  0.0587 -0.4803  0.1582
  557loPI   C5A 8907  10.842  14.089   8.543 -0.0932  0.1903  0.0352
  557loPI   C6A 8908  10.879  13.918   8.054 -0.1449 -0.1160 -0.2458
  557loPI   C1B 8909  10.967  13.693  10.074  0.0511 -0.1816 -0.0991
  557loPI   C2B 8910  11.038  13.685   9.575 -0.2661  0.1347 -0.0352
  557loPI   C3B 8911  10.998  13.619   9.072  0.2068 -0.1765  0.1119
  557loPI   C4B 8912  11.116  13.512   8.715 -0.4034  0.4458 -0.2743
  558loPI    C1 8913   3.682   1.897  10.993 -0.0500 -0.0648  0.1596
  558loPI    C2 8914   3.748   1.512  10.911  0.1610 -0.0304  0.1623
  558loPI    C3 8915   3.691   1.629  11.289  0.1537 -0.0510  0.1676
  558loPI   PO4 8916   3.721   1.971  10.661  0.0106 -0.0714 -0.0254
  558loPI   GL1 8917   3.516   1.745  10.273  0.0719 -0.2203  0.1208
  558loPI   GL2 8918   3.483   1.551  10.418 -0.1206 -0.0875  0.2431
  558loPI   C1A 8919   3.576   1.698   9.903  0.3826 -0.0840 -0.1823
  558loPI   C2A 8920   3.651   1.609   9.420 -0.1158  0.2991 -0.0826
  558loPI   C3A 8921   3.967   1.740   9.026  0.0144 -0.0107 -0.0433
  558loPI   C4A 8922   3.980   1.873   8.543 -0.1495 -0.2344 -0.3118
  558loPI   C5A 8923   3.725   1.892   8.126  0.1233 -0.1956 -0.0020
  558loPI   C6A 8924   3.699   1.846   7.697 -0.0850  0.2652  0.3874
  558loPI   C1B 8925   3.552   1.158  10.165  0.2651  0.0325 -0.0117
  558loPI   C2B 8926   3.443   0.955   9.753 -0.1412 -0.0230  0.0420
  558loPI   C3B 8927   3.415   0.847   9.408 -0.0692  0.1348  0.2442
  558loPI   C4B 8928   3.466   0.721   8.896  0.1984 -0.3404  0.0398
  559loPI    C1 8929   6.710  11.771  10.721  0.1194 -0.0716  0.0553
  559loPI    C2 8930   6.714  11.377  10.785 -0.1139 -0.1017 -0.1001
  559loPI    C3 8931   6.458  11.609  10.985 -0.1780 -0.0683 -0.2200
  559loPI   PO4 8932   6.636  11.883  10.495  0.1436  0.2281 -0.1437
  559loPI   GL1 8933   6.371  11.799  10.124  0.2253  0.1782 -0.1373
  559loPI   GL2 8934   6.595  11.923  10.041 -0.0147  0.1422  0.1542
  559loPI   C1A 8935   6.439  11.757   9.578 -0.0403  0.0066  0.0755
  559loPI   C2A 8936   6.744  11.682   9.235 -0.1955 -0.1601 -0.4428
  559loPI   C3A 8937   6.905  11.485   8.788 -0.1194  0.1873  0.0451
  559loPI   C4A 8938   7.073  11.671   8.431  0.2872 -0.1916 -0.0956
  559loPI   C5A 8939   7.291  11.936   8.185  0.0979  0.3969  0.3570
  559loPI   C6A 8940   7.309  12.197   7.796 -0.0509 -0.0201 -0.0531
  559loPI   C1B 8941   6.930  12.128   9.690  0.1709  0.1828  0.2083
  559loPI   C2B 8942   7.074  12.173   9.164  0.0438  0.0490 -0.2148
  559loPI   C3B 8943   7.172  12.138   8.709  0.0140 -0.0767 -0.1173
  559loPI   C4B 8944   7.006  12.342   8.242 -0.1346  0.0338 -0.2987
  560loPI    C1 8945   2.931   2.666  10.588 -0.0078  0.0993  0.1854
  560loPI    C2 8946   2.880   2.403  10.885  0.0976 -0.0049  0.1123
  560loPI    C3 8947   3.070   2.748  10.954 -0.0782  0.0722  0.2184
  560loPI   PO4 8948   3.001   2.463  10.351 -0.1269 -0.1897 -0.2044
  560loPI   GL1 8949   2.991   2.296   9.944  0.1291 -0.0178  0.2256
  560loPI   GL2 8950   3.052   2.000  10.082  0.1038 -0.0012 -0.0587
  560loPI   C1A 8951   3.084   2.444   9.562 -0.1184 -0.2375  0.0607
  560loPI   C2A 8952   3.135   2.420   9.116  0.3173  0.1214 -0.2269
  560loPI   C3A 8953   3.144   2.424   8.720 -0.1514 -0.0303  0.1587
  560loPI   C4A 8954   3.013   2.210   8.339  0.0070  0.2277  0.4102
  560loPI   C5A 8955   2.859   2.007   8.010 -0.0728  0.0002  0.2842
  560loPI   C6A 8956   3.121   1.698   7.904  0.0651  0.1455  0.3877
  560loPI   C1B 8957   3.163   1.870   9.633  0.3136  0.1332 -0.1001
  560loPI   C2B 8958   3.105   1.942   9.268  0.0196 -0.3934  0.1139
  560loPI   C3B 8959   3.097   1.893   8.843  0.1937  0.3091 -0.0655
  560loPI   C4B 8960   3.303   1.768   8.385 -0.1987  0.0280 -0.2519
  561loPI    C1 8961   1.593   9.551  10.470  0.1014 -0.1894  0.0026
  561loPI    C2 8962   1.681   9.905  10.635  0.0933 -0.0767 -0.2304
  561loPI    C3 8963   1.672   9.575  10.861  0.1474  0.0639 -0.0202
  561loPI   PO4 8964   1.745   9.498  10.248  0.1468 -0.1205 -0.0438
  561loPI   GL1 8965   1.742   9.495   9.843  0.0235  0.2200  0.1942
  561loPI   GL2 8966   1.944   9.385   9.667  0.3088  0.2172  0.0078
  561loPI   C1A 8967   1.497   9.320   9.419  0.2894 -0.0795  0.1923
  561loPI   C2A 8968   1.426   9.004   9.073  0.2285  0.0169  0.1043
  561loPI   C3A 8969   1.159   8.951   8.713 -0.2096 -0.1683 -0.2412
  561loPI   C4A 8970   1.054   9.365   8.343 -0.0904  0.1587 -0.1710
  561loPI   C5A 8971   1.293   9.824   8.315 -0.1511  0.0857 -0.2422
  561loPI   C6A 8972   1.383  10.193   8.085  0.0856  0.1059 -0.1443
  561loPI   C1B 8973   2.047   9.635   9.356  0.4245 -0.1851  0.0988
  561loPI   C2B 8974   2.239   9.765   9.128  0.2875 -0.1074  0.0334
  561loPI   C3B 8975   2.189   9.749   8.761  0.3409 -0.0001  0.2746
  561loPI   C4B 8976   2.064   9.850   8.378  0.0099  0.1607 -0.1397
  562loPI    C1 8977   7.499   0.073  11.042 -0.2791 -0.0538  0.1555
  562loPI    C2 8978   7.232  -0.153  11.235 -0.1830 -0.1171  0.2154
  562loPI    C3 8979   7.531   0.019  11.437 -0.1081 -0.1463  0.1302
  562loPI   PO4 8980   7.518  -0.108  10.778  0.0467 -0.1471  0.0286
  562loPI   GL1 8981   7.419  -0.344  10.285  0.0737  0.1405  0.1548
  562loPI   GL2 8982   7.588  -0.492  10.276  0.3527  0.1929  0.1290
  562loPI   C1A 8983   7.190  -0.235   9.902 -0.2512 -0.3769 -0.2547
  562loPI   C2A 8984   7.274  -0.267   9.396 -0.2774  0.0567 -0.1767
  562loPI   C3A 8985   7.448  -0.151   8.926  0.1332 -0.4572 -0.1976
  562loPI   C4A 8986   7.373  -0.028   8.544  0.2712 -0.0323  0.2050
  562loPI   C5A 8987   7.094  -0.104   8.216  0.0518  0.0341 -0.1947
  562loPI   C6A 8988   7.226  -0.315   7.814  0.0453 -0.2195  0.1572
  562loPI   C1B 8989   7.599  -0.495   9.794 -0.2802 -0.1197 -0.2469
  562loPI   C2B 8990   7.705  -0.404   9.384 -0.0641 -0.2427 -0.1068
  562loPI   C3B 8991   7.920  -0.327   9.035 -0.1212 -0.0754  0.0983
  562loPI   C4B 8992   8.097  -0.273   8.605  0.1002 -0.1915  0.1835
  563loPI    C1 8993  11.498  11.110  10.603  0.1105 -0.0330  0.0488
  563loPI    C2 8994  11.423  11.307  10.943  0.0834 -0.0735  0.0665
  563loPI    C3 8995  11.263  10.946  10.883 -0.0557  0.0092 -0.0647
  563loPI   PO4 8996  11.463  11.229  10.312 -0.1239 -0.1339  0.1251
  563loPI   GL1 8997  11.397  11.441  10.065  0.0959 -0.0461 -0.0966
  563loPI   GL2 8998  11.156  11.683  10.020  0.1721 -0.2620 -0.0366
  563loPI   C1A 8999  11.284  11.324   9.657  0.4562  0.1538  0.0545
  563loPI   C2A 9000  11.413  11.326   9.123 -0.2823  0.0776 -0.3145
  563loPI   C3A 9001  11.452  11.297   8.707 -0.0216  0.2101  0.0473
  563loPI   C4A 9002  11.377  11.158   8.355  0.0206  0.2527 -0.1181
  563loPI   C5A 9003  11.669  10.855   8.028  0.3352  0.1284 -0.0960
  563loPI   C6A 9004  11.945  10.557   7.832  0.1661 -0.1861 -0.1294
  563loPI   C1B 9005  11.132  11.838   9.653 -0.1844  0.2082 -0.0182
  563loPI   C2B 9006  10.999  11.673   9.312 -0.0543 -0.4324 -0.5285
  563loPI   C3B 9007  11.021  11.686   8.812  0.1533  0.1942 -0.1948
  563loPI   C4B 9008  11.239  11.844   8.425 -0.0347  0.2785 -0.0876
  564loPI    C1 9009  12.281  16.769  10.822 -0.0448  0.0054  0.0403
  564loPI    C2 9010  12.675  16.765  10.892 -0.0552  0.1083  0.1072
  564loPI    C3 9011  12.430  16.544  11.117 -0.0330  0.0217  0.0470
  564loPI   PO4 9012  12.224  16.850  10.550  0.0029 -0.1223 -0.1746
  564loPI   GL1 9013  12.352  16.535  10.206 -0.0840  0.1135 -0.0437
  564loPI   GL2 9014  12.143  16.394  10.152 -0.0714  0.2111 -0.4662
  564loPI   C1A 9015  12.362  16.724   9.781 -0.0334  0.0635  0.1023
  564loPI   C2A 9016  12.565  16.817   9.360 -0.1742 -0.4024  0.2907
  564loPI   C3A 9017  12.482  16.850   8.926  0.1269 -0.2504  0.1082
  564loPI   C4A 9018  12.379  16.828   8.576 -0.1219 -0.1276 -0.0651
  564loPI   C5A 9019  12.183  16.668   8.241  0.0602  0.2755  0.2419
  564loPI   C6A 9020  12.264  16.553   7.836  0.2240  0.1664  0.2841
  564loPI   C1B 9021  12.055  16.274   9.700 -0.0337  0.2056 -0.1768
  564loPI   C2B 9022  12.289  16.294   9.289  0.1262 -0.0037  0.0999
  564loPI   C3B 9023  12.521  16.286   8.981  0.2292 -0.0581  0.2748
  564loPI   C4B 9024  12.515  16.318   8.504  0.3808  0.1634 -0.1894
  565loPI    C1 9025   9.653   9.989  10.676  0.2028 -0.0635  0.2221
  565loPI    C2 9026   9.957  10.214  10.546  0.2000 -0.1736  0.0212
  565loPI    C3 9027   9.720  10.348  10.839  0.2290  0.0628 -0.0611
  565loPI   PO4 9028   9.637   9.820  10.461  0.2759  0.1486  0.1316
  565loPI   GL1 9029   9.686   9.379  10.350 -0.0199 -0.2676  0.0860
  565loPI   GL2 9030   9.835   9.634  10.041 -0.2228  0.1817 -0.0324
  565loPI   C1A 9031   9.628   9.154  10.011 -0.0986 -0.3634  0.1485
  565loPI   C2A 9032   9.663   9.130   9.533  0.2232  0.1537 -0.0492
  565loPI   C3A 9033   9.599   9.030   9.060  0.2844  0.2352  0.0153
  565loPI   C4A 9034   9.572   9.043   8.638 -0.0549 -0.0289 -0.0617
  565loPI   C5A 9035   9.609   9.296   8.292  0.2941 -0.2309 -0.0136
  565loPI   C6A 9036   9.763   9.526   7.828 -0.1614  0.2028 -0.0480
  565loPI   C1B 9037   9.889   9.574   9.600  0.0414 -0.1516 -0.2950
  565loPI   C2B 9038   9.872   9.533   9.170  0.1268  0.0704 -0.0836
  565loPI   C3B 9039   9.872   9.453   8.664 -0.1820  0.1440 -0.0546
  565loPI   C4B 9040  10.133   9.525   8.232 -0.1156  0.0370  0.0350
  566loPI    C1 9041   0.168   8.459  10.402  0.0225  0.0220 -0.0311
  566loPI    C2 9042  -0.007   8.816  10.360  0.0684  0.0441 -0.0367
  566loPI    C3 9043   0.155   8.713  10.711  0.1086  0.0528 -0.0527
  566loPI   PO4 9044   0.280   8.421  10.066  0.1002 -0.1422  0.0892
  566loPI   GL1 9045   0.113   8.467   9.727  0.1566  0.1682  0.1183
  566loPI   GL2 9046  -0.135   8.618   9.633  0.2160  0.1333 -0.1166
  566loPI   C1A 9047   0.297   8.289   9.329 -0.0451  0.3208 -0.1583
  566loPI   C2A 9048   0.459   8.574   9.015 -0.1349 -0.3007 -0.2640
  566loPI   C3A 9049   0.565   8.593   8.683 -0.0722 -0.1767 -0.0237
  566loPI   C4A 9050   0.442   8.668   8.161  0.0640 -0.3905 -0.3074
  566loPI   C5A 9051   0.218   8.569   7.877 -0.0387 -0.1337 -0.0152
  566loPI   C6A 9052  -0.037   8.577   7.610 -0.1814 -0.1765  0.0950
  566loPI   C1B 9053  -0.038   8.575   9.194  0.1219 -0.0740 -0.0706
  566loPI   C2B 9054   0.025   8.512   8.753 -0.4139 -0.0651  0.0907
  566loPI   C3B 9055  -0.079   8.413   8.287  0.2266 -0.0441 -0.1535
  566loPI   C4B 9056  -0.114   8.223   7.924 -0.1244 -0.0354 -0.2056
  567loPI    C1 9057  13.022   6.238  10.465  0.1179 -0.1262 -0.0379
  567loPI    C2 9058  12.867   6.362  10.812  0.2638 -0.0081 -0.0139
  567loPI    C3 9059  13.106   6.041  10.803  0.2342 -0.0303 -0.0098
  567loPI   PO4 9060  12.891   6.200  10.346 -0.2243 -0.1914 -0.1001
  567loPI   GL1 9061  12.812   5.924   9.986  0.0739  0.2329  0.0810
  567loPI   GL2 9062  12.591   5.677   9.987 -0.3088 -0.1594 -0.0621
  567loPI   C1A 9063  12.874   6.131   9.632 -0.1506  0.1431  0.1674
  567loPI   C2A 9064  12.806   6.187   9.200 -0.0148 -0.2374 -0.0034
  567loPI   C3A 9065  12.905   6.230   8.729 -0.2690  0.1377 -0.2017
  567loPI   C4A 9066  13.260   6.103   8.532  0.1032  0.0394 -0.0959
  567loPI   C5A 9067  13.660   6.118   8.378 -0.1761  0.1129 -0.0124
  567loPI   C6A 9068  14.079   6.032   8.222 -0.0076 -0.0956  0.2948
  567loPI   C1B 9069  12.534   5.737   9.579 -0.2993  0.0690 -0.3143
  567loPI   C2B 9070  12.359   5.818   9.237 -0.0983  0.1153 -0.1835
  567loPI   C3B 9071  12.406   5.990   8.782  0.3178  0.0504  0.1096
  567loPI   C4B 9072  12.496   6.274   8.369 -0.0671  0.1433 -0.0515
  568loPI    C1 9073  15.710   4.881  10.295  0.0718 -0.1304  0.1316
  568loPI    C2 9074  15.829   5.086  10.617  0.2004 -0.1047  0.0683
  568loPI    C3 9075  15.754   4.694  10.646  0.3460 -0.1306  0.0985
  568loPI   PO4 9076  15.573   5.049  10.141  0.1747  0.0488  0.2823
  568loPI   GL1 9077  15.487   4.975   9.758 -0.0162  0.3275 -0.0877
  568loPI   GL2 9078  15.305   5.165   9.662  0.1895 -0.3000  0.1510
  568loPI   C1A 9079  15.612   4.910   9.322 -0.0921 -0.0582 -0.2252
  568loPI   C2A 9080  15.890   4.943   8.886  0.0095 -0.0262 -0.1043
  568loPI   C3A 9081  16.173   5.116   8.612  0.0397  0.0861  0.0836
  568loPI   C4A 9082  16.160   5.133   8.151 -0.0008 -0.0860 -0.2411
  568loPI   C5A 9083  16.325   4.981   7.864 -0.4783  0.2952  0.0054
  568loPI   C6A 9084  16.487   4.725   7.508 -0.0606  0.0200  0.0324
  568loPI   C1B 9085  15.291   5.324   9.334 -0.0979  0.0415  0.0483
  568loPI   C2B 9086  15.014   5.188   9.036 -0.1994  0.0542  0.3390
  568loPI   C3B 9087  14.670   4.894   8.987  0.5656 -0.0237  0.1212
  568loPI   C4B 9088  14.345   4.564   8.839  0.1819  0.3207  0.1600
  569loPI    C1 9089   2.982  10.458  10.560 -0.1662  0.1989  0.0091
  569loPI    C2 9090   2.648  10.324  10.735  0.0303 -0.0709  0.1864
  569loPI    C3 9091   2.774  10.698  10.803 -0.1785 -0.0017  0.1996
  569loPI   PO4 9092   2.951  10.349  10.278 -0.1820 -0.2886 -0.0554
  569loPI   GL1 9093   2.786  10.470   9.896 -0.2775 -0.2085  0.0532
  569loPI   GL2 9094   2.983  10.696   9.923  0.1175 -0.0358 -0.0788
  569loPI   C1A 9095   2.476  10.626   9.620 -0.0138 -0.0894  0.3740
  569loPI   C2A 9096   2.379  10.724   9.203 -0.1847 -0.1232 -0.1072
  569loPI   C3A 9097   2.220  10.811   8.716 -0.0734  0.0126  0.3676
  569loPI   C4A 9098   2.057  10.769   8.289  0.1333 -0.2283  0.2665
  569loPI   C5A 9099   1.877  10.765   7.879 -0.1603  0.0945 -0.3410
  569loPI   C6A 9100   1.536  10.811   7.551 -0.2141 -0.3447  0.2469
  569loPI   C1B 9101   2.906  10.846   9.495 -0.1471 -0.1328  0.2411
  569loPI   C2B 9102   2.928  10.791   9.099  0.2006 -0.2510 -0.0585
  569loPI   C3B 9103   2.673  10.650   8.821 -0.0056  0.0764 -0.0874
  569loPI   C4B 9104   2.677  10.674   8.394 -0.3182 -0.0958 -0.0060
  570loPI    C1 9105  12.627   5.111  10.712  0.0050 -0.0735 -0.0101
  570loPI    C2 9106  12.246   5.229  10.697  0.0885  0.1763 -0.2335
  570loPI    C3 9107  12.520   5.461  10.873  0.1535  0.0398 -0.1539
  570loPI   PO4 9108  12.712   5.014  10.521  0.0932  0.0882  0.1360
  570loPI   GL1 9109  12.666   4.838  10.110 -0.0875 -0.0660 -0.1058
  570loPI   GL2 9110  12.403   5.052  10.095  0.1789  0.0159 -0.1048
  570loPI   C1A 9111  12.944   4.812   9.761 -0.0781  0.0602 -0.1004
  570loPI   C2A 9112  13.013   4.578   9.400 -0.1088 -0.0799  0.3149
  570loPI   C3A 9113  13.006   4.653   9.020  0.1955  0.0563 -0.1776
  570loPI   C4A 9114  13.034   4.575   8.610  0.1103  0.0498  0.2280
  570loPI   C5A 9115  13.025   4.514   8.128 -0.1466  0.0368  0.0574
  570loPI   C6A 9116  13.130   4.263   7.748  0.1105  0.1880 -0.3364
  570loPI   C1B 9117  12.409   4.893   9.716 -0.0936 -0.0285  0.0743
  570loPI   C2B 9118  12.577   4.830   9.306  0.0376  0.0201  0.1012
  570loPI   C3B 9119  12.591   4.816   8.837  0.1064  0.0492  0.0113
  570loPI   C4B 9120  12.638   4.813   8.377 -0.1970 -0.0274 -0.0013
  571loPI    C1 9121   3.297   4.536  10.865  0.2647  0.1423 -0.0092
  571loPI    C2 9122   3.541   4.478  11.177  0.0658 -0.0696  0.1100
  571loPI    C3 9123   3.144   4.447  11.224  0.0482 -0.4508 -0.2351
  571loPI   PO4 9124   3.607   4.606  10.663  0.0877 -0.0705 -0.0046
  571loPI   GL1 9125   3.616   4.535  10.236 -0.1631  0.3382  0.0306
  571loPI   GL2 9126   3.437   4.345  10.022 -0.0667 -0.0783  0.0389
  571loPI   C1A 9127   3.997   4.464   9.972 -0.1867 -0.0482 -0.0095
  571loPI   C2A 9128   4.013   4.467   9.525  0.2458  0.0392 -0.1774
  571loPI   C3A 9129   4.045   4.278   9.115 -0.0889 -0.0036 -0.0854
  571loPI   C4A 9130   3.919   4.086   8.734 -0.1684  0.1257  0.0349
  571loPI   C5A 9131   3.628   4.004   8.458 -0.1819  0.2942  0.0483
  571loPI   C6A 9132   3.482   3.944   8.051  0.1007  0.1598 -0.0070
  571loPI   C1B 9133   3.192   4.486   9.680 -0.0950  0.3653 -0.0502
  571loPI   C2B 9134   2.853   4.293   9.436 -0.0390  0.0748 -0.0776
  571loPI   C3B 9135   2.501   4.617   9.229 -0.2755  0.1577  0.0504
  571loPI   C4B 9136   2.286   5.020   9.386 -0.0530  0.2092 -0.0417
  572loPI    C1 9137  18.072   7.417  10.771  0.1080  0.0888  0.0571
  572loPI    C2 9138  17.681   7.377  10.694  0.1550 -0.1344 -0.0757
  572loPI    C3 9139  17.804   7.474  11.063 -0.0336  0.1320 -0.0801
  572loPI   PO4 9140  18.163   7.356  10.464 -0.1070  0.0184 -0.1142
  572loPI   GL1 9141  18.347   7.539  10.045  0.2283  0.1333 -0.0055
  572loPI   GL2 9142  18.035   7.343   9.995 -0.1325  0.2856 -0.2119
  572loPI   C1A 9143  18.384   7.356   9.632 -0.0377  0.2300 -0.3792
  572loPI   C2A 9144  18.294   7.369   9.164  0.0138  0.1010 -0.1706
  572loPI   C3A 9145  18.351   7.570   8.839 -0.0532  0.1406  0.1779
  572loPI   C4A 9146  18.504   7.338   8.390 -0.3061 -0.1813  0.1222
  572loPI   C5A 9147  18.587   7.424   7.935  0.0791 -0.2542 -0.1381
  572loPI   C6A 9148  18.913   7.294   7.551 -0.1609  0.0214 -0.3513
  572loPI   C1B 9149  17.863   7.517   9.706 -0.0692 -0.1282  0.0572
  572loPI   C2B 9150  17.927   7.714   9.378 -0.1137 -0.1004  0.3481
  572loPI   C3B 9151  17.828   7.760   8.946 -0.1284 -0.0712  0.1016
  572loPI   C4B 9152  17.497   7.676   8.551  0.1329 -0.0478 -0.0899
  573loPI    C1 9153  12.630   7.890  10.832 -0.1192 -0.1341  0.0295
  573loPI    C2 9154  12.615   8.171  11.117  0.0020 -0.0291 -0.0665
  573loPI    C3 9155  12.498   7.797  11.198 -0.0650  0.0253  0.0904
  573loPI   PO4 9156  12.407   7.899  10.643 -0.0208  0.1476 -0.1952
  573loPI   GL1 9157  12.252   7.779  10.176 -0.0899  0.0825  0.0138
  573loPI   GL2 9158  12.009   8.006  10.079  0.1716 -0.1566 -0.2231
  573loPI   C1A 9159  12.571   7.806   9.797  0.0698 -0.0489  0.2087
  573loPI   C2A 9160  12.633   7.705   9.395  0.1082  0.0696 -0.0103
  573loPI   C3A 9161  12.618   7.714   8.975 -0.1254 -0.1383 -0.1308
  573loPI   C4A 9162  12.440   7.624   8.590 -0.0682  0.2398  0.1379
  573loPI   C5A 9163  12.635   7.803   8.131 -0.0512  0.0771 -0.0552
  573loPI   C6A 9164  12.816   7.675   7.825  0.0099  0.1996  0.1154
  573loPI   C1B 9165  12.330   8.204   9.688  0.0692  0.3837 -0.0123
  573loPI   C2B 9166  12.332   8.264   9.299 -0.0414  0.1702  0.0618
  573loPI   C3B 9167  12.324   8.206   8.900 -0.1866 -0.2525 -0.0632
  573loPI   C4B 9168  12.288   8.087   8.427  0.0132 -0.2578  0.0685
  574loPI    C1 9169   4.108  12.713  10.940  0.1306  0.0920 -0.1799
  574loPI    C2 9170   4.496  12.622  10.977  0.1019  0.0716  0.0938
  574loPI    C3 9171   4.284  12.729  11.299 -0.1060  0.1429 -0.0642
  574loPI   PO4 9172   4.058  12.835  10.683 -0.2012 -0.0433 -0.0457
  574loPI   GL1 9173   3.966  12.737  10.295 -0.0978 -0.0319  0.2730
  574loPI   GL2 9174   4.214  12.831  10.069  0.1622 -0.1102  0.4737
  574loPI   C1A 9175   3.686  13.028  10.055 -0.3152 -0.0122 -0.1380
  574loPI   C2A 9176   3.437  13.173   9.740  0.0709  0.3193  0.0397
  574loPI   C3A 9177   3.553  13.436   9.424 -0.0530  0.0230  0.0886
  574loPI   C4A 9178   3.478  13.531   9.059  0.2371  0.0355 -0.0342
  574loPI   C5A 9179   3.457  13.541   8.651 -0.1069 -0.0038 -0.0242
  574loPI   C6A 9180   3.482  13.533   8.198 -0.1548  0.2253  0.1809
  574loPI   C1B 9181   4.116  12.574   9.722 -0.0665  0.0185 -0.3063
  574loPI   C2B 9182   4.152  12.760   9.335  0.3712  0.1207 -0.1119
  574loPI   C3B 9183   4.053  12.903   8.982 -0.0044 -0.1521 -0.2476
  574loPI   C4B 9184   4.125  12.859   8.563 -0.1563  0.3076 -0.2390
  575loPI    C1 9185  15.139  15.427  10.910  0.1116 -0.0677 -0.0573
  575loPI    C2 9186  14.944  15.727  11.089  0.3961 -0.0228  0.1871
  575loPI    C3 9187  14.803  15.354  11.113  0.0993  0.0719 -0.0263
  575loPI   PO4 9188  15.144  15.497  10.657 -0.1054 -0.0390 -0.0187
  575loPI   GL1 9189  15.271  15.787  10.353 -0.2286  0.2909  0.3765
  575loPI   GL2 9190  15.013  15.854  10.158  0.0899 -0.0653  0.0894
  575loPI   C1A 9191  15.290  15.544   9.896 -0.0273 -0.0447 -0.1237
  575loPI   C2A 9192  15.153  15.529   9.444  0.0339  0.0802  0.5625
  575loPI   C3A 9193  15.272  15.379   9.081 -0.2890  0.0552  0.1595
  575loPI   C4A 9194  15.367  15.333   8.595 -0.1809  0.3647  0.0521
  575loPI   C5A 9195  15.417  15.231   8.171 -0.5238  0.2120 -0.0562
  575loPI   C6A 9196  15.579  15.323   7.750 -0.0073  0.3139 -0.4988
  575loPI   C1B 9197  14.921  15.849   9.710 -0.0632  0.3175  0.0201
  575loPI   C2B 9198  14.644  16.016   9.517  0.0588  0.0024  0.2222
  575loPI   C3B 9199  14.260  15.904   9.369  0.1576  0.0174  0.0726
  575loPI   C4B 9200  14.042  15.560   9.221 -0.1296 -0.1040 -0.1277
  576loPI    C1 9201   5.790  17.350  11.208 -0.2148  0.0430  0.1428
  576loPI    C2 9202   5.999  17.691  11.222 -0.0372 -0.0551 -0.0564
  576loPI    C3 9203   6.145  17.359  11.391 -0.2281 -0.0255  0.1722
  576loPI   PO4 9204   5.734  17.372  10.939 -0.1078  0.1072  0.2129
  576loPI   GL1 9205   5.826  17.332  10.555 -0.3002  0.0903  0.1176
  576loPI   GL2 9206   6.123  17.316  10.407 -0.2467  0.5066  0.0080
  576loPI   C1A 9207   5.667  17.081  10.133  0.0453 -0.1607 -0.0012
  576loPI   C2A 9208   5.587  16.897   9.707  0.1337  0.1553 -0.1154
  576loPI   C3A 9209   5.605  16.974   9.320  0.0070 -0.0151  0.4905
  576loPI   C4A 9210   5.528  16.908   8.923  0.3651  0.0732 -0.1986
  576loPI   C5A 9211   5.665  16.673   8.501 -0.1954  0.3709  0.2315
  576loPI   C6A 9212   5.365  16.500   8.202 -0.0594 -0.1866  0.3594
  576loPI   C1B 9213   6.082  17.327   9.891  0.0965  0.2617 -0.0887
  576loPI   C2B 9214   6.028  17.261   9.425  0.0629 -0.2775  0.1722
  576loPI   C3B 9215   5.961  17.294   9.013  0.0005  0.0982 -0.0223
  576loPI   C4B 9216   6.025  17.046   8.675 -0.1574  0.2610 -0.0032
  577loPI    C1 9217   4.939   9.790  10.445  0.0799  0.2963 -0.0440
  577loPI    C2 9218   5.095   9.662  10.790  0.0243  0.0970 -0.0911
  577loPI    C3 9219   5.031  10.053  10.732 -0.0124  0.1276  0.1428
  577loPI   PO4 9220   5.020   9.613  10.256 -0.0745 -0.0155  0.0702
  577loPI   GL1 9221   5.134   9.420   9.904  0.1134 -0.2180 -0.0460
  577loPI   GL2 9222   4.905   9.556   9.746 -0.0087  0.0577 -0.1892
  577loPI   C1A 9223   5.172   9.338   9.371  0.1379  0.1731 -0.1766
  577loPI   C2A 9224   5.182   9.571   9.052 -0.1638  0.3497  0.0915
  577loPI   C3A 9225   5.127   9.801   8.692 -0.1568  0.1544  0.2261
  577loPI   C4A 9226   4.862   9.838   8.215  0.2126  0.0217 -0.0460
  577loPI   C5A 9227   4.564  10.155   8.051 -0.0557 -0.1168  0.1066
  577loPI   C6A 9228   4.218  10.350   8.067 -0.1244  0.3365 -0.2298
  577loPI   C1B 9229   4.928   9.843   9.370 -0.0619  0.0483  0.2606
  577loPI   C2B 9230   4.732   9.889   9.093  0.2506  0.1718  0.2220
  577loPI   C3B 9231   4.587  10.055   8.633 -0.0568  0.2996  0.1330
  577loPI   C4B 9232   4.204   9.931   8.359  0.2447  0.0930 -0.1853
  578loPI    C1 9233  14.841   0.821  10.807  0.2915  0.1674  0.0466
  578loPI    C2 9234  14.855   1.114  11.079  0.1299 -0.0766  0.3221
  578loPI    C3 9235  14.590   0.816  11.118  0.3353 -0.2953  0.0816
  578loPI   PO4 9236  14.926   0.982  10.600  0.1286 -0.2376 -0.1156
  578loPI   GL1 9237  14.875   1.192  10.238  0.3426  0.2056 -0.2960
  578loPI   GL2 9238  14.818   1.439  10.063  0.0150 -0.0223 -0.0283
  578loPI   C1A 9239  14.872   1.049   9.792  0.0134  0.1086 -0.0512
  578loPI   C2A 9240  14.912   0.983   9.388 -0.0190  0.1610 -0.1470
  578loPI   C3A 9241  14.945   0.927   9.018 -0.1851 -0.1936 -0.3934
  578loPI   C4A 9242  14.966   0.929   8.616 -0.0379  0.0028 -0.2966
  578loPI   C5A 9243  15.155   0.959   8.197  0.2978 -0.0389  0.1243
  578loPI   C6A 9244  15.021   0.769   7.875  0.2249 -0.1020  0.0064
  578loPI   C1B 9245  14.804   1.493   9.586  0.0006 -0.2178 -0.1379
  578loPI   C2B 9246  14.813   1.438   9.170 -0.0607 -0.0905 -0.2584
  578loPI   C3B 9247  14.923   1.390   8.708 -0.0884  0.1770 -0.0396
  578loPI   C4B 9248  14.907   1.399   8.351 -0.0879 -0.1258  0.0834
  579loPI    C1 9249   0.190   5.642  10.468 -0.0027 -0.0958 -0.1226
  579loPI    C2 9250   0.058   5.841  10.789  0.1951  0.1299 -0.1790
  579loPI    C3 9251  -0.201   5.647  10.554  0.0259  0.1342  0.0015
  579loPI   PO4 9252   0.315   5.808  10.254 -0.0389  0.1787  0.2369
  579loPI   GL1 9253   0.538   5.930   9.943 -0.0265  0.1676  0.2990
  579loPI   GL2 9254   0.269   5.978   9.730 -0.2576  0.1237 -0.0636
  579loPI   C1A 9255   0.637   5.715   9.534 -0.1897 -0.0111 -0.1345
  579loPI   C2A 9256   0.734   5.749   9.101 -0.2453  0.2859  0.1030
  579loPI   C3A 9257   0.801   5.556   8.672  0.0050  0.3744  0.0150
  579loPI   C4A 9258   0.633   5.306   8.333  0.4346 -0.1352 -0.0190
  579loPI   C5A 9259   0.546   4.968   8.055  0.0452  0.1337  0.2520
  579loPI   C6A 9260   0.368   4.695   7.751 -0.1235 -0.0242 -0.0428
  579loPI   C1B 9261   0.368   6.133   9.348  0.3587 -0.1166  0.1513
  579loPI   C2B 9262   0.410   6.206   8.855 -0.2360  0.4853 -0.2232
  579loPI   C3B 9263   0.478   5.878   8.549  0.3064 -0.1802 -0.2273
  579loPI   C4B 9264   0.647   5.831   8.224 -0.0472 -0.1095 -0.0906
  580loPI    C1 9265   1.258   9.256  10.775 -0.1593  0.0997 -0.0316
  580loPI    C2 9266   0.919   9.052  10.831  0.0248 -0.1709  0.1173
  580loPI    C3 9267   0.908   9.449  10.788 -0.3460 -0.2147 -0.2544
  580loPI   PO4 9268   1.312   9.112  10.418 -0.2166  0.1089  0.1574
  580loPI   GL1 9269   1.280   9.305   9.894 -0.0864  0.0495 -0.1083
  580loPI   GL2 9270   1.015   9.554   9.904  0.2485  0.3863 -0.0161
  580loPI   C1A 9271   1.259   8.894   9.564  0.2834 -0.3557  0.0137
  580loPI   C2A 9272   1.525   8.620   9.319  0.3529  0.1550  0.1253
  580loPI   C3A 9273   1.521   8.395   8.923 -0.0738 -0.1348  0.1353
  580loPI   C4A 9274   1.701   8.411   8.487  0.1884  0.2952 -0.4754
  580loPI   C5A 9275   1.812   8.557   8.054 -0.1272  0.0210  0.2454
  580loPI   C6A 9276   1.871   8.758   7.594  0.0842 -0.2497  0.1122
  580loPI   C1B 9277   0.756   9.645   9.438 -0.2206  0.1003  0.2075
  580loPI   C2B 9278   0.851   9.710   9.054  0.0661 -0.2233  0.0881
  580loPI   C3B 9279   0.732   9.602   8.651 -0.0147 -0.0131  0.2462
  580loPI   C4B 9280   0.507   9.697   8.307  0.3265 -0.0433 -0.0769
  581loPI    C1 9281  11.972   0.621  11.155 -0.1567  0.2821  0.1561
  581loPI    C2 9282  12.285   0.757  11.364  0.0496 -0.0802  0.0908
  581loPI    C3 9283  11.984   0.571  11.552 -0.0505  0.1210  0.1330
  581loPI   PO4 9284  12.127   0.526  10.877 -0.1505  0.2572 -0.1271
  581loPI   GL1 9285  11.903   0.273  10.591 -0.0451 -0.0443 -0.1171
  581loPI   GL2 9286  12.134   0.148  10.329  0.1086 -0.1143  0.1701
  581loPI   C1A 9287  11.761   0.346  10.166 -0.1321  0.0060  0.0916
  581loPI   C2A 9288  11.724   0.277   9.782  0.1009 -0.0160 -0.3898
  581loPI   C3A 9289  11.645   0.283   9.359 -0.2388  0.0224  0.2001
  581loPI   C4A 9290  11.743   0.314   8.872 -0.0814  0.0781 -0.0942
  581loPI   C5A 9291  11.809   0.140   8.514  0.0757 -0.2983 -0.2064
  581loPI   C6A 9292  11.941   0.210   8.078 -0.0744  0.2745 -0.1635
  581loPI   C1B 9293  12.212   0.102   9.945 -0.2633  0.0395 -0.1033
  581loPI   C2B 9294  12.223   0.203   9.531 -0.1191 -0.0733 -0.2562
  581loPI   C3B 9295  12.228   0.082   9.136 -0.0007  0.0616  0.1412
  581loPI   C4B 9296  12.254   0.135   8.752  0.3157 -0.2367  0.1381
  582loPI    C1 9297   4.197  10.339  10.316  0.0966  0.1816 -0.1368
  582loPI    C2 9298   4.334  10.538  10.634  0.2154  0.2463 -0.2276
  582loPI    C3 9299   3.970  10.620  10.489  0.0125 -0.0322  0.1070
  582loPI   PO4 9300   4.455  10.421  10.131  0.0641  0.1285  0.1752
  582loPI   GL1 9301   4.636  10.637   9.803  0.0880  0.0990 -0.1617
  582loPI   GL2 9302   4.329  10.667   9.714 -0.0709  0.3304  0.2600
  582loPI   C1A 9303   4.776  10.805   9.361  0.0231 -0.0307  0.3516
  582loPI   C2A 9304   4.946  10.836   8.902 -0.1130  0.2135 -0.4374
  582loPI   C3A 9305   5.095  10.764   8.399 -0.4122  0.0720 -0.1728
  582loPI   C4A 9306   5.060  10.972   8.086 -0.0370  0.1982 -0.0242
  582loPI   C5A 9307   5.301  10.714   7.736  0.1244 -0.2307  0.0479
  582loPI   C6A 9308   5.313  10.272   7.499 -0.1708 -0.1095  0.1695
  582loPI   C1B 9309   4.284  10.720   9.250 -0.0105 -0.0031  0.0509
  582loPI   C2B 9310   4.438  10.888   8.872 -0.0454 -0.4069 -0.0518
  582loPI   C3B 9311   4.513  11.118   8.473  0.1173  0.2472 -0.1151
  582loPI   C4B 9312   4.404  11.171   8.008  0.0526 -0.3033  0.0643
  583loPI    C1 9313   7.938  15.888  10.833  0.0313 -0.0173 -0.0677
  583loPI    C2 9314   8.315  15.875  10.965 -0.0663  0.0563  0.2262
  583loPI    C3 9315   8.056  16.134  11.126 -0.2255  0.0529 -0.0208
  583loPI   PO4 9316   7.935  15.921  10.552  0.2669  0.2637  0.0558
  583loPI   GL1 9317   8.023  15.911  10.211  0.1289  0.0347 -0.1553
  583loPI   GL2 9318   8.261  16.005  10.144 -0.0272  0.0754  0.0780
  583loPI   C1A 9319   7.979  15.648   9.808  0.1059  0.0954 -0.1129
  583loPI   C2A 9320   8.090  15.700   9.362  0.1440  0.1015  0.1149
  583loPI   C3A 9321   8.056  15.633   8.971 -0.1058 -0.0157  0.0457
  583loPI   C4A 9322   7.983  15.471   8.558  0.2584  0.0808  0.2807
  583loPI   C5A 9323   8.069  15.473   8.099 -0.0319  0.0860  0.0278
  583loPI   C6A 9324   8.118  15.299   7.703 -0.2432  0.1309 -0.2441
  583loPI   C1B 9325   8.378  16.089   9.672 -0.2982 -0.1646 -0.3276
  583loPI   C2B 9326   8.359  16.117   9.162 -0.1148 -0.3218  0.0108
  583loPI   C3B 9327   8.313  16.203   8.708  0.0106  0.2502 -0.0874
  583loPI   C4B 9328   8.181  15.955   8.411  0.6276 -0.0827 -0.2514
  584loPI    C1 9329  15.829   0.526  10.822  0.0044 -0.0615 -0.1417
  584loPI    C2 9330  15.650   0.812  11.038  0.0033 -0.0801 -0.1179
  584loPI    C3 9331  15.657   0.435  11.171  0.3270 -0.0249  0.0308
  584loPI   PO4 9332  15.844   0.617  10.543  0.0427  0.1264 -0.3531
  584loPI   GL1 9333  15.611   0.755  10.199  0.2129 -0.1082 -0.0930
  584loPI   GL2 9334  15.215   0.803  10.105 -0.1193  0.0199  0.0048
  584loPI   C1A 9335  15.909   0.579   9.840  0.1766 -0.0775  0.3757
  584loPI   C2A 9336  15.866   0.576   9.455  0.1730  0.1755 -0.0778
  584loPI   C3A 9337  15.913   0.617   9.047 -0.0359  0.0420 -0.0786
  584loPI   C4A 9338  16.033   0.579   8.634 -0.0994 -0.0829  0.0573
  584loPI   C5A 9339  16.170   0.736   8.210 -0.1159 -0.2603  0.0404
  584loPI   C6A 9340  15.853   1.070   7.957  0.1209  0.0492 -0.3076
  584loPI   C1B 9341  15.399   0.784   9.668 -0.0185  0.0502 -0.1244
  584loPI   C2B 9342  15.417   0.731   9.133 -0.2363 -0.1394  0.2354
  584loPI   C3B 9343  15.409   0.659   8.682  0.0526 -0.0075  0.2184
  584loPI   C4B 9344  15.656   0.679   8.257 -0.0218  0.0350  0.2503
  585loPI    C1 9345   9.455  14.797  10.915 -0.0911 -0.1567 -0.1250
  585loPI    C2 9346   9.130  14.669  10.721 -0.2204  0.0055 -0.0178
  585loPI    C3 9347   9.179  14.581  11.108 -0.2058  0.1000  0.0018
  585loPI   PO4 9348   9.629  14.858  10.734  0.2018 -0.0771  0.1550
  585loPI   GL1 9349   9.531  14.717  10.332  0.0227 -0.0675 -0.1372
  585loPI   GL2 9350   9.359  14.413  10.224 -0.2501  0.1431 -0.0537
  585loPI   C1A 9351   9.536  14.832   9.863  0.1951  0.0368 -0.1404
  585loPI   C2A 9352   9.669  14.849   9.455 -0.1699  0.0618  0.1728
  585loPI   C3A 9353   9.647  14.977   9.057 -0.0639  0.2586  0.2767
  585loPI   C4A 9354   9.696  15.001   8.611  0.1081  0.1482  0.0424
  585loPI   C5A 9355   9.590  14.984   8.164  0.0361  0.1356  0.4789
  585loPI   C6A 9356   9.762  14.772   7.723 -0.1481  0.2627 -0.0012
  585loPI   C1B 9357   9.390  14.376   9.799  0.0504 -0.1843 -0.3446
  585loPI   C2B 9358   9.427  14.450   9.361 -0.1420 -0.1010 -0.0336
  585loPI   C3B 9359   9.481  14.498   8.885  0.0422 -0.1175  0.2839
  585loPI   C4B 9360   9.339  14.697   8.439 -0.3164  0.0410 -0.0683
  586loPI    C1 9361  12.562   6.940  10.968 -0.2354  0.4511 -0.1029
  586loPI    C2 9362  12.423   7.248  11.182 -0.3284  0.2014  0.2049
  586loPI    C3 9363  12.325   6.874  11.284 -0.2929  0.0710 -0.2203
  586loPI   PO4 9364  12.593   7.002  10.699  0.2190 -0.4305  0.0162
  586loPI   GL1 9365  12.390   7.102  10.337 -0.2621  0.0364 -0.0310
  586loPI   GL2 9366  12.510   6.963  10.203  0.0786  0.0828  0.2271
  586loPI   C1A 9367  12.182   7.327  10.037  0.0040 -0.3779  0.2394
  586loPI   C2A 9368  12.196   7.377   9.532 -0.4988  0.2511  0.1591
  586loPI   C3A 9369  12.261   7.319   9.086  0.1032 -0.0198 -0.0475
  586loPI   C4A 9370  12.195   7.248   8.701  0.1010 -0.1067  0.0313
  586loPI   C5A 9371  12.445   7.173   8.343  0.1796 -0.2536  0.1760
  586loPI   C6A 9372  12.523   7.109   7.971  0.0274 -0.2608 -0.0129
  586loPI   C1B 9373  12.363   6.883   9.799 -0.1398 -0.1635  0.3900
  586loPI   C2B 9374  12.193   6.842   9.379  0.0691 -0.2192 -0.0475
  586loPI   C3B 9375  11.993   6.850   8.987  0.1573  0.3044 -0.0571
  586loPI   C4B 9376  11.869   6.850   8.635  0.1501  0.2024  0.0847
  587loPI    C1 9377   6.954  15.540  10.623 -0.0909 -0.2058 -0.0961
  587loPI    C2 9378   6.932  15.939  10.611  0.1768 -0.1894 -0.0915
  587loPI    C3 9379   6.719  15.719  10.354 -0.1530 -0.0517  0.0593
  587loPI   PO4 9380   7.136  15.439  10.709  0.1090  0.1706  0.0001
  587loPI   GL1 9381   7.254  15.223  10.363 -0.1570  0.2863  0.0590
  587loPI   GL2 9382   6.970  15.092  10.362  0.0342  0.0556  0.1762
  587loPI   C1A 9383   7.338  15.245   9.940 -0.2334 -0.0058 -0.3231
  587loPI   C2A 9384   7.397  15.547   9.635 -0.1349 -0.0215 -0.0821
  587loPI   C3A 9385   7.574  15.665   9.145  0.1056  0.1579  0.3178
  587loPI   C4A 9386   7.690  15.899   8.660  0.1764  0.0066  0.0077
  587loPI   C5A 9387   7.535  16.174   8.330 -0.0553 -0.1502  0.4815
  587loPI   C6A 9388   7.528  16.182   7.849  0.1185 -0.3776 -0.0709
  587loPI   C1B 9389   6.839  15.418   9.973 -0.2027  0.3118  0.0546
  587loPI   C2B 9390   6.794  15.616   9.619 -0.1106 -0.0816  0.2920
  587loPI   C3B 9391   6.970  15.645   9.194  0.0383 -0.2116  0.1395
  587loPI   C4B 9392   7.226  15.789   8.770 -0.0381  0.3465 -0.1309
  588loPI    C1 9393  16.504  12.056  10.458 -0.2915 -0.2636 -0.0683
  588loPI    C2 9394  16.578  11.812  10.766  0.0546  0.0089  0.0712
  588loPI    C3 9395  16.281  12.079  10.789 -0.1716 -0.2334  0.0110
  588loPI   PO4 9396  16.504  11.912  10.226  0.1487  0.2664  0.3397
  588loPI   GL1 9397  16.903  11.805   9.995 -0.1005 -0.0672  0.2109
  588loPI   GL2 9398  16.696  11.563   9.909 -0.0011  0.0504 -0.2013
  588loPI   C1A 9399  16.843  12.059   9.600 -0.3077 -0.3576  0.1367
  588loPI   C2A 9400  16.696  12.004   9.171  0.0098  0.0487  0.0341
  588loPI   C3A 9401  16.552  12.211   8.848  0.0906  0.2122 -0.1428
  588loPI   C4A 9402  16.495  12.498   8.594  0.0128  0.0134 -0.0186
  588loPI   C5A 9403  16.295  12.874   8.393  0.0629  0.3772 -0.1791
  588loPI   C6A 9404  16.480  13.229   8.544 -0.4432 -0.1091 -0.1578
  588loPI   C1B 9405  16.754  11.591   9.535 -0.0447  0.0400  0.0785
  588loPI   C2B 9406  16.886  11.492   9.085  0.1718  0.0469 -0.0184
  588loPI   C3B 9407  16.835  11.570   8.713 -0.1307  0.0496  0.2798
  588loPI   C4B 9408  16.687  11.804   8.358  0.1144 -0.4998 -0.2102
  589loPI    C1 9409   6.533  15.692  11.038 -0.1349  0.0063  0.1858
  589loPI    C2 9410   6.916  15.794  11.096 -0.1742  0.0862  0.3101
  589loPI    C3 9411   6.804  15.410  11.120 -0.0415  0.0193 -0.0692
  589loPI   PO4 9412   6.468  15.792  10.785  0.0626  0.2569 -0.3420
  589loPI   GL1 9413   6.224  15.569  10.469  0.0833  0.1690  0.2104
  589loPI   GL2 9414   5.853  15.460  10.505  0.0419 -0.0626 -0.0064
  589loPI   C1A 9415   6.323  15.622  10.025 -0.1903  0.2554  0.0727
  589loPI   C2A 9416   6.249  15.697   9.600  0.0685  0.0124 -0.3989
  589loPI   C3A 9417   6.446  15.742   9.250 -0.1766 -0.0238 -0.1020
  589loPI   C4A 9418   6.307  15.557   8.886  0.0619 -0.0859 -0.1823
  589loPI   C5A 9419   6.161  15.368   8.495  0.1311 -0.0269 -0.4013
  589loPI   C6A 9420   6.171  15.297   8.071 -0.1057  0.2938  0.0022
  589loPI   C1B 9421   5.825  15.306  10.112  0.0217 -0.2656 -0.0052
  589loPI   C2B 9422   5.847  15.380   9.627  0.1031  0.1903 -0.1060
  589loPI   C3B 9423   5.923  15.448   9.272 -0.1399 -0.0349  0.1932
  589loPI   C4B 9424   5.861  15.273   8.979  0.0174 -0.3238  0.3340
  590loPI    C1 9425   4.348  13.228  11.216 -0.1278  0.1461 -0.1468
  590loPI    C2 9426   4.667  13.098  11.419 -0.1052 -0.0414 -0.2998
  590loPI    C3 9427   4.466  13.419  11.547 -0.1901 -0.2527  0.1119
  590loPI   PO4 9428   4.416  13.133  10.932 -0.2955 -0.1385  0.1643
  590loPI   GL1 9429   4.393  13.212  10.428  0.1335 -0.1800 -0.1179
  590loPI   GL2 9430   4.635  13.124  10.264  0.1747 -0.0685 -0.1511
  590loPI   C1A 9431   4.497  13.633  10.120 -0.0406 -0.1025  0.2273
  590loPI   C2A 9432   4.569  13.645   9.751  0.0118 -0.1677  0.1770
  590loPI   C3A 9433   4.486  13.613   9.411  0.0177 -0.2948  0.0188
  590loPI   C4A 9434   4.359  13.569   8.951  0.1188 -0.0025  0.0892
  590loPI   C5A 9435   4.300  13.676   8.451  0.1207 -0.0940  0.0852
  590loPI   C6A 9436   4.321  14.033   8.323 -0.1931 -0.0034 -0.1714
  590loPI   C1B 9437   4.492  13.151   9.833 -0.0660  0.2524 -0.1667
  590loPI   C2B 9438   4.478  13.069   9.434 -0.0233  0.1679  0.1272
  590loPI   C3B 9439   4.537  13.056   9.010 -0.0549  0.2672  0.0863
  590loPI   C4B 9440   4.638  12.919   8.568 -0.0584 -0.1286 -0.0418
  591loPI    C1 9441   2.510   2.089  10.745 -0.1156 -0.0477  0.1696
  591loPI    C2 9442   2.341   1.742  10.849 -0.1736 -0.0360  0.1146
  591loPI    C3 9443   2.138   2.084  10.890 -0.1708 -0.0238  0.0304
  591loPI   PO4 9444   2.690   2.014  10.448 -0.0388  0.0462 -0.2146
  591loPI   GL1 9445   2.519   2.085  10.001 -0.2104  0.1241  0.1443
  591loPI   GL2 9446   2.546   2.442   9.970 -0.2040  0.1440 -0.0513
  591loPI   C1A 9447   2.657   2.122   9.502  0.0149  0.1298  0.0726
  591loPI   C2A 9448   2.680   2.182   9.100  0.0803 -0.3570 -0.4816
  591loPI   C3A 9449   2.647   2.166   8.664  0.1065  0.0999  0.0430
  591loPI   C4A 9450   2.441   2.329   8.179 -0.0572  0.0794  0.1320
  591loPI   C5A 9451   2.313   2.071   7.859  0.0496 -0.1684  0.0094
  591loPI   C6A 9452   2.522   2.051   7.457 -0.0665 -0.1849 -0.0378
  591loPI   C1B 9453   2.593   2.756   9.687  0.0600 -0.0438  0.1031
  591loPI   C2B 9454   2.715   2.692   9.292 -0.1186  0.1199  0.3667
  591loPI   C3B 9455   2.769   2.725   8.829 -0.0919  0.2055  0.1305
  591loPI   C4B 9456   2.825   2.675   8.409  0.0142 -0.0583  0.0959
  592loPI    C1 9457   4.196   3.582  10.722 -0.1902  0.0309 -0.1321
  592loPI    C2 9458   3.939   3.644  11.023  0.0010  0.2340 -0.0080
  592loPI    C3 9459   4.275   3.437  11.086 -0.0284  0.1520 -0.1181
  592loPI   PO4 9460   4.219   3.793  10.624  0.2571  0.0200  0.2866
  592loPI   GL1 9461   4.416   3.885  10.265 -0.0790  0.2366 -0.1278
  592loPI   GL2 9462   4.670   3.932  10.164 -0.0474  0.1038 -0.0928
  592loPI   C1A 9463   4.210   3.953   9.910 -0.1162  0.0781  0.0540
  592loPI   C2A 9464   4.141   3.979   9.501  0.2071 -0.2356  0.2577
  592loPI   C3A 9465   4.246   3.836   9.060 -0.1341  0.0703  0.0052
  592loPI   C4A 9466   4.362   3.907   8.625  0.0421  0.0977 -0.2641
  592loPI   C5A 9467   4.369   4.269   8.326 -0.1071  0.0456  0.0007
  592loPI   C6A 9468   4.597   4.562   8.179 -0.0149 -0.4066 -0.0591
  592loPI   C1B 9469   4.772   3.925   9.855  0.0106  0.0212  0.0856
  592loPI   C2B 9470   4.693   3.921   9.359  0.1243 -0.0202  0.0945
  592loPI   C3B 9471   4.787   4.070   8.947 -0.0281 -0.2224  0.0596
  592loPI   C4B 9472   4.811   4.311   8.557 -0.2572 -0.0702 -0.1956
  593loPI    C1 9473   9.516   6.896  10.992 -0.0173  0.1794 -0.3421
  593loPI    C2 9474   9.572   7.266  11.132  0.0053  0.0922 -0.1160
  593loPI    C3 9475   9.534   6.960  11.386  0.0385 -0.0690 -0.3024
  593loPI   PO4 9476   9.710   6.876  10.777  0.0335  0.1007 -0.3096
  593loPI   GL1 9477   9.876   6.774  10.445  0.1279  0.0651  0.2386
  593loPI   GL2 9478   9.727   7.097  10.302 -0.1692  0.0551 -0.0141
  593loPI   C1A 9479   9.853   6.768   9.944  0.1107 -0.2906  0.3807
  593loPI   C2A 9480  10.002   6.843   9.555  0.1224 -0.3640 -0.1173
  593loPI   C3A 9481   9.946   6.937   9.236  0.2060  0.3411  0.0701
  593loPI   C4A 9482   9.974   6.873   8.837 -0.0439  0.0306  0.0311
  593loPI   C5A 9483   9.781   6.816   8.416  0.2991  0.1616  0.1207
  593loPI   C6A 9484   9.735   6.645   7.991 -0.0330 -0.2049 -0.0271
  593loPI   C1B 9485   9.645   7.281   9.848 -0.2738  0.1237 -0.0659
  593loPI   C2B 9486   9.645   7.270   9.431  0.1605 -0.2133  0.0290
  593loPI   C3B 9487   9.670   7.276   8.958  0.0290 -0.0772  0.0104
  593loPI   C4B 9488   9.691   7.328   8.460  0.0807  0.0400  0.0454
  594loPI    C1 9489   1.604   7.753  10.271  0.2401  0.1761 -0.2029
  594loPI    C2 9490   1.686   8.022  10.555  0.0785  0.1431 -0.1243
  594loPI    C3 9491   1.520   7.671  10.653  0.4418 -0.0565 -0.2062
  594loPI   PO4 9492   1.831   7.747  10.149  0.3903  0.1076  0.1576
  594loPI   GL1 9493   2.002   7.723   9.821 -0.1190 -0.1318  0.0139
  594loPI   GL2 9494   2.027   7.378   9.900 -0.0361 -0.0750 -0.2091
  594loPI   C1A 9495   2.001   7.681   9.441  0.0076 -0.0467  0.2679
  594loPI   C2A 9496   2.047   7.539   9.033  0.0192 -0.0519 -0.0186
  594loPI   C3A 9497   2.232   7.764   8.634 -0.1638 -0.1488  0.0833
  594loPI   C4A 9498   2.297   7.970   8.244 -0.2494 -0.4408 -0.1323
  594loPI   C5A 9499   2.363   8.120   7.830  0.0529 -0.2899  0.1761
  594loPI   C6A 9500   2.736   8.133   7.540  0.0766  0.1861  0.2193
  594loPI   C1B 9501   1.771   7.099   9.621 -0.0069 -0.0956  0.0422
  594loPI   C2B 9502   1.841   7.058   9.210  0.0324  0.0276 -0.3939
  594loPI   C3B 9503   1.829   7.092   8.886 -0.4000  0.0858 -0.1426
  594loPI   C4B 9504   2.106   7.278   8.552  0.4325  0.1948 -0.0252
  595loPI    C1 9505  17.752  18.275  10.820 -0.2884 -0.1196 -0.1927
  595loPI    C2 9506  17.521  18.391  11.125  0.1251 -0.0344  0.0959
  595loPI    C3 9507  17.704  18.036  11.137 -0.0297 -0.1250 -0.1553
  595loPI   PO4 9508  17.600  18.358  10.641 -0.0412  0.3531 -0.0724
  595loPI   GL1 9509  17.547  18.417  10.253 -0.1653 -0.0346  0.3020
  595loPI   GL2 9510  17.419  18.784  10.325 -0.1004  0.1079 -0.0461
  595loPI   C1A 9511  17.373  18.481   9.724 -0.1449  0.0756 -0.0612
  595loPI   C2A 9512  17.369  18.478   9.317  0.0424  0.2845  0.3308
  595loPI   C3A 9513  17.485  18.432   8.929  0.0299  0.2347 -0.1644
  595loPI   C4A 9514  17.438  18.512   8.443  0.0215 -0.2198 -0.0018
  595loPI   C5A 9515  17.529  18.703   8.024  0.1010 -0.0221  0.0071
  595loPI   C6A 9516  17.248  18.734   7.695 -0.0836  0.0964 -0.1774
  595loPI   C1B 9517  17.285  18.925   9.935 -0.2852 -0.2648  0.1308
  595loPI   C2B 9518  17.169  18.973   9.557  0.2050 -0.0062 -0.0946
  595loPI   C3B 9519  17.198  18.964   9.174 -0.2465 -0.0948 -0.3941
  595loPI   C4B 9520  17.448  18.908   8.745  0.0073  0.1694  0.0453
  596loPI    C1 9521  18.144   4.515  10.309  0.0344 -0.0638  0.0829
  596loPI    C2 9522  18.051   4.626  10.682 -0.2758  0.1371 -0.0505
  596loPI    C3 9523  18.145   4.245  10.604 -0.0998  0.1163  0.2508
  596loPI   PO4 9524  18.285   4.780  10.251 -0.1040 -0.0212 -0.1341
  596loPI   GL1 9525  18.700   4.741  10.058  0.2019 -0.2904 -0.1009
  596loPI   GL2 9526  18.477   4.814   9.784 -0.0840  0.1971 -0.0258
  596loPI   C1A 9527  19.053   4.743   9.702 -0.4060  0.1043 -0.1739
  596loPI   C2A 9528  19.363   4.473   9.512 -0.1471 -0.2881  0.0881
  596loPI   C3A 9529  19.489   4.504   9.104  0.3237  0.2388 -0.1694
  596loPI   C4A 9530  19.571   4.710   8.815 -0.0426  0.0578 -0.1951
  596loPI   C5A 9531  19.816   4.579   8.420 -0.0669  0.2528  0.0322
  596loPI   C6A 9532  20.177   4.389   8.041 -0.0259  0.0692  0.0638
  596loPI   C1B 9533  18.370   5.044   9.379  0.2702  0.2231 -0.0730
  596loPI   C2B 9534  18.397   5.065   8.972  0.0737  0.0749 -0.0002
  596loPI   C3B 9535  18.715   4.976   8.693 -0.2266 -0.1627 -0.0501
  596loPI   C4B 9536  19.065   4.842   8.531  0.0081 -0.2073  0.1779
  597loPI    C1 9537  13.872   4.723  10.647 -0.0234  0.0370 -0.0079
  597loPI    C2 9538  13.786   4.966  10.953  0.0868  0.2469 -0.1408
  597loPI    C3 9539  14.143   4.786  10.935  0.0507  0.1712 -0.1055
  597loPI   PO4 9540  13.861   4.808  10.433 -0.1509 -0.0434  0.1641
  597loPI   GL1 9541  13.818   4.837   9.993 -0.3971  0.3554 -0.1447
  597loPI   GL2 9542  13.693   4.457   9.936 -0.1962 -0.1847 -0.2360
  597loPI   C1A 9543  13.794   4.897   9.566  0.0343 -0.2284 -0.1307
  597loPI   C2A 9544  13.603   4.913   9.184  0.0423  0.1424 -0.0456
  597loPI   C3A 9545  13.402   4.841   8.812 -0.0337  0.0405 -0.0541
  597loPI   C4A 9546  13.241   5.002   8.403  0.0702 -0.1938 -0.1253
  597loPI   C5A 9547  13.279   4.980   8.022 -0.0522 -0.2115  0.3215
  597loPI   C6A 9548  13.456   4.799   7.643 -0.2525 -0.2177 -0.1395
  597loPI   C1B 9549  13.483   4.336   9.554 -0.1959  0.2680  0.1577
  597loPI   C2B 9550  13.188   4.064   9.306 -0.2103  0.1531  0.2893
  597loPI   C3B 9551  13.153   4.084   8.846  0.0400  0.1050 -0.1700
  597loPI   C4B 9552  13.047   4.002   8.329 -0.0024  0.0081 -0.3286
  598loPI    C1 9553  15.896  12.855  10.348 -0.1718  0.2081 -0.1316
  598loPI    C2 9554  15.542  12.909  10.527 -0.0874  0.2068  0.0381
  598loPI    C3 9555  15.873  12.868  10.747 -0.0346 -0.1907 -0.1065
  598loPI   PO4 9556  15.952  12.660  10.134 -0.3081  0.2063  0.1270
  598loPI   GL1 9557  15.742  12.526   9.751 -0.0705 -0.2168 -0.0339
  598loPI   GL2 9558  15.697  12.236   9.746  0.0001 -0.0980 -0.0299
  598loPI   C1A 9559  15.732  12.496   9.297 -0.1466 -0.2134  0.0018
  598loPI   C2A 9560  15.942  12.587   9.011 -0.0166  0.0208 -0.1518
  598loPI   C3A 9561  15.995  12.544   8.595  0.2784 -0.1218  0.3126
  598loPI   C4A 9562  15.693  12.665   8.234 -0.1763  0.4383 -0.0091
  598loPI   C5A 9563  15.543  13.136   8.169 -0.1990 -0.0517 -0.1076
  598loPI   C6A 9564  15.466  13.634   8.240 -0.1012  0.1012  0.0046
  598loPI   C1B 9565  15.629  12.019   9.323 -0.0173  0.0479 -0.1585
  598loPI   C2B 9566  15.493  12.167   8.940  0.1449  0.0043 -0.1362
  598loPI   C3B 9567  15.377  12.468   8.725 -0.1001 -0.0821  0.0710
  598loPI   C4B 9568  15.252  12.807   8.457  0.2803 -0.1564  0.1202
  599loPI    C1 9569   4.253  14.283  10.986 -0.1275  0.0076 -0.3014
  599loPI    C2 9570   4.533  14.494  10.794  0.1120 -0.1079 -0.0861
  599loPI    C3 9571   4.615  14.331  11.149 -0.2620 -0.0630  0.0255
  599loPI   PO4 9572   4.108  14.131  10.756  0.1353 -0.0935  0.0027
  599loPI   GL1 9573   3.839  14.238  10.390  0.2571 -0.1131  0.1524
  599loPI   GL2 9574   3.649  14.439  10.437 -0.2443 -0.2704  0.1195
  599loPI   C1A 9575   3.895  14.298   9.953  0.1179  0.1450  0.0763
  599loPI   C2A 9576   3.900  14.215   9.512 -0.4433  0.0119 -0.3684
  599loPI   C3A 9577   3.887  14.254   9.094 -0.4261 -0.1560  0.1345
  599loPI   C4A 9578   3.879  14.348   8.652 -0.0608  0.1278 -0.0473
  599loPI   C5A 9579   3.936  14.499   8.208  0.0505 -0.1827 -0.0265
  599loPI   C6A 9580   4.146  14.794   8.018 -0.0434  0.0608  0.1602
  599loPI   C1B 9581   3.800  14.651  10.249  0.2209  0.1033 -0.2368
  599loPI   C2B 9582   3.785  14.788   9.814  0.1114  0.0545 -0.0007
  599loPI   C3B 9583   3.716  14.776   9.363  0.0542 -0.1616  0.0658
  599loPI   C4B 9584   3.738  14.792   8.917 -0.0421 -0.2499 -0.0260
  600loPI    C1 9585   9.045  16.156  10.792 -0.3000  0.0756  0.1412
  600loPI    C2 9586   9.089  16.539  10.899 -0.0019  0.1013 -0.0591
  600loPI    C3 9587   9.323  16.258  11.061  0.0619  0.0625 -0.2168
  600loPI   PO4 9588   9.125  16.142  10.450  0.1620  0.3857  0.0027
  600loPI   GL1 9589   9.065  16.019  10.070  0.1479 -0.3173  0.1505
  600loPI   GL2 9590   8.769  16.039  10.118  0.1573 -0.0349 -0.0560
  600loPI   C1A 9591   9.005  15.713   9.789  0.1840 -0.1422 -0.0643
  600loPI   C2A 9592   9.123  15.687   9.447  0.2906  0.0382 -0.3631
  600loPI   C3A 9593   9.227  15.811   9.117 -0.0831  0.0120  0.4303
  600loPI   C4A 9594   9.150  15.756   8.700 -0.1441 -0.0094 -0.2148
  600loPI   C5A 9595   9.073  15.724   8.300  0.1118 -0.1315  0.3067
  600loPI   C6A 9596   8.889  15.574   8.057  0.1380 -0.0302  0.3264
  600loPI   C1B 9597   8.850  16.159   9.659  0.1080 -0.2044 -0.0669
  600loPI   C2B 9598   8.843  16.084   9.336  0.2871  0.0808  0.0107
  600loPI   C3B 9599   8.805  16.129   8.911  0.1490  0.3339  0.1548
  600loPI   C4B 9600   8.687  16.029   8.467  0.1209  0.0921 -0.1895
  601loPI    C1 9601   4.246  17.974  10.968  0.1870  0.0660  0.1107
  601loPI    C2 9602   4.481  18.142  11.244 -0.0031 -0.0865  0.3698
  601loPI    C3 9603   4.123  18.301  11.163  0.1790  0.1418 -0.0196
  601loPI   PO4 9604   4.299  18.033  10.685  0.1450  0.0320  0.2717
  601loPI   GL1 9605   4.570  17.917  10.419 -0.2614 -0.0816 -0.1277
  601loPI   GL2 9606   4.458  17.818  10.270 -0.2446 -0.0133 -0.2215
  601loPI   C1A 9607   4.466  18.191  10.042 -0.1676  0.0216 -0.1465
  601loPI   C2A 9608   4.451  18.197   9.665 -0.0638  0.3557  0.0110
  601loPI   C3A 9609   4.509  18.309   9.194 -0.1700 -0.0942 -0.2086
  601loPI   C4A 9610   4.392  18.394   8.731  0.1521 -0.1412  0.0298
  601loPI   C5A 9611   4.546  18.555   8.388  0.0134  0.1936 -0.0766
  601loPI   C6A 9612   4.759  18.527   8.129 -0.0373  0.0250  0.1224
  601loPI   C1B 9613   4.559  17.739   9.860  0.0290 -0.4974 -0.1177
  601loPI   C2B 9614   4.550  17.674   9.440 -0.0074  0.1950  0.1739
  601loPI   C3B 9615   4.521  17.838   8.998  0.5259  0.0524 -0.1609
  601loPI   C4B 9616   4.980  18.096   8.844 -0.1529 -0.1131 -0.2329
  602loPI    C1 9617  15.552   8.546  10.760 -0.2193  0.3376 -0.3163
  602loPI    C2 9618  15.436   8.733  11.094  0.1315  0.3748 -0.2109
  602loPI    C3 9619  15.252   8.397  10.979  0.1893  0.2069  0.1732
  602loPI   PO4 9620  15.596   8.612  10.602 -0.0174  0.0179  0.0707
  602loPI   GL1 9621  15.568   8.559  10.200  0.0893  0.1668  0.1722
  602loPI   GL2 9622  15.367   8.258  10.240 -0.1632 -0.1359 -0.1570
  602loPI   C1A 9623  15.628   8.869   9.969  0.0083  0.1511  0.0927
  602loPI   C2A 9624  15.480   8.794   9.620 -0.0503 -0.2289  0.1547
  602loPI   C3A 9625  15.409   8.523   9.239 -0.2115 -0.0597 -0.0134
  602loPI   C4A 9626  15.306   8.405   8.854 -0.0271  0.2379  0.1823
  602loPI   C5A 9627  15.165   8.456   8.392 -0.2865  0.0369  0.2766
  602loPI   C6A 9628  15.090   8.395   7.978  0.0916 -0.2001  0.1857
  602loPI   C1B 9629  15.300   8.338   9.750 -0.2614 -0.0218  0.3825
  602loPI   C2B 9630  14.970   8.523   9.558 -0.3772  0.1059  0.1185
  602loPI   C3B 9631  14.881   8.506   9.171  0.2009  0.3173  0.1788
  602loPI   C4B 9632  14.793   8.385   8.786  0.1382 -0.0805  0.1650
  603loPI    C1 9633  12.926   2.955  11.019 -0.0794  0.0436  0.0027
  603loPI    C2 9634  13.136   3.188  10.771  0.0585 -0.0595  0.0213
  603loPI    C3 9635  13.200   3.208  11.165  0.1701 -0.2272  0.0126
  603loPI   PO4 9636  12.829   2.812  10.784  0.0625 -0.0311 -0.0242
  603loPI   GL1 9637  12.682   2.714  10.362  0.0885 -0.1493 -0.5057
  603loPI   GL2 9638  12.988   2.983  10.303 -0.0730 -0.0357 -0.2933
  603loPI   C1A 9639  12.709   2.814   9.931  0.0868 -0.2910 -0.3356
  603loPI   C2A 9640  12.748   2.757   9.550  0.3288 -0.0245 -0.2790
  603loPI   C3A 9641  12.831   2.733   9.137 -0.1789  0.2276 -0.0458
  603loPI   C4A 9642  12.987   2.703   8.717  0.2543 -0.1829  0.0585
  603loPI   C5A 9643  12.776   2.716   8.372 -0.1753 -0.0756  0.3261
  603loPI   C6A 9644  12.913   2.877   7.873  0.0406 -0.0273  0.2235
  603loPI   C1B 9645  13.203   3.017   9.975  0.2619 -0.1523  0.0787
  603loPI   C2B 9646  13.252   2.991   9.549  0.1643 -0.0684 -0.0660
  603loPI   C3B 9647  13.301   3.100   9.155 -0.0619 -0.1211  0.1116
  603loPI   C4B 9648  13.416   3.094   8.730 -0.2365  0.2034  0.0494
  604loPI    C1 9649   0.859  17.333  11.064  0.0469 -0.3159 -0.2081
  604loPI    C2 9650   0.483  17.218  10.994 -0.0163 -0.1905 -0.0786
  604loPI    C3 9651   0.645  17.163  11.355  0.1116 -0.3018 -0.1521
  604loPI   PO4 9652   0.958  17.234  10.732 -0.0951  0.0829 -0.1348
  604loPI   GL1 9653   0.868  17.415  10.342 -0.0618 -0.0570 -0.0073
  604loPI   GL2 9654   1.120  17.557  10.376 -0.1208 -0.4464 -0.0992
  604loPI   C1A 9655   0.588  17.297  10.075 -0.0884  0.3783  0.0805
  604loPI   C2A 9656   0.553  17.333   9.646 -0.1609  0.0363  0.0799
  604loPI   C3A 9657   0.684  17.414   9.228  0.2186 -0.2764 -0.1559
  604loPI   C4A 9658   0.517  17.484   8.905  0.0133 -0.3138 -0.0850
  604loPI   C5A 9659   0.537  17.484   8.514 -0.1825 -0.1381  0.0242
  604loPI   C6A 9660   0.132  17.675   8.385 -0.0001  0.2776  0.1315
  604loPI   C1B 9661   1.074  17.489   9.873 -0.4714  0.0640  0.0848
  604loPI   C2B 9662   1.055  17.582   9.458 -0.0294  0.0176 -0.2194
  604loPI   C3B 9663   0.951  17.767   9.023 -0.0533  0.0659 -0.1335
  604loPI   C4B 9664   0.933  17.756   8.652 -0.1459 -0.1263  0.1829
  605loPI    C1 9665  17.157   1.863  10.565 -0.0899 -0.1900 -0.1762
  605loPI    C2 9666  17.238   1.719  10.929 -0.3339 -0.0178 -0.0505
  605loPI    C3 9667  17.223   2.114  10.870 -0.1575 -0.0435 -0.2806
  605loPI   PO4 9668  16.933   1.633  10.507  0.0743 -0.2333  0.0019
  605loPI   GL1 9669  16.851   1.413  10.163 -0.1637  0.3607 -0.4928
  605loPI   GL2 9670  16.527   1.222  10.212 -0.0287  0.1660  0.0498
  605loPI   C1A 9671  17.042   1.516   9.749 -0.1215 -0.2503  0.1129
  605loPI   C2A 9672  17.049   1.567   9.314  0.0690  0.1568  0.1409
  605loPI   C3A 9673  16.980   1.629   8.807 -0.2966  0.0303  0.0861
  605loPI   C4A 9674  17.120   1.803   8.333 -0.1190  0.0443  0.1881
  605loPI   C5A 9675  17.073   2.218   8.093 -0.1119  0.2414  0.0630
  605loPI   C6A 9676  17.087   2.460   7.718 -0.1323  0.0207 -0.0787
  605loPI   C1B 9677  16.615   1.219   9.746  0.0420 -0.2428  0.3870
  605loPI   C2B 9678  16.660   1.173   9.359 -0.5109  0.0644 -0.1166
  605loPI   C3B 9679  16.630   1.270   8.888 -0.1509 -0.1821 -0.0792
  605loPI   C4B 9680  16.794   1.180   8.466  0.2266  0.1990  0.1698
  606loPI    C1 9681   2.294  16.861  11.110 -0.1216 -0.2528  0.1748
  606loPI    C2 9682   1.917  16.994  11.125 -0.0031  0.1479 -0.1814
  606loPI    C3 9683   2.213  17.217  11.275  0.0939 -0.1828  0.1319
  606loPI   PO4 9684   2.287  16.788  10.788  0.0172 -0.1629  0.2065
  606loPI   GL1 9685   2.006  16.769  10.512 -0.2112 -0.0386  0.0178
  606loPI   GL2 9686   1.796  16.550  10.402 -0.2834 -0.1493  0.1857
  606loPI   C1A 9687   2.220  16.829  10.115  0.5025  0.2161  0.0575
  606loPI   C2A 9688   1.943  16.721   9.735  0.0664 -0.0301  0.0689
  606loPI   C3A 9689   1.958  16.847   9.270 -0.2198 -0.1249 -0.2363
  606loPI   C4A 9690   1.684  16.998   9.049  0.0963 -0.1720  0.1367
  606loPI   C5A 9691   1.611  17.139   8.639 -0.0117  0.0567 -0.1851
  606loPI   C6A 9692   1.189  17.236   8.409  0.1251  0.0663  0.0940
  606loPI   C1B 9693   1.648  16.376   9.999  0.2336 -0.1158  0.0947
  606loPI   C2B 9694   1.566  16.264   9.512  0.2036 -0.2844 -0.0011
  606loPI   C3B 9695   1.344  16.164   9.163 -0.1896  0.1566  0.0465
  606loPI   C4B 9696   1.219  16.254   8.737  0.1347 -0.2009 -0.0859
  607loPI    C1 9697   6.986   8.860  11.083  0.1304  0.1160  0.1127
  607loPI    C2 9698   7.119   8.542  11.286  0.0899  0.0102 -0.0254
  607loPI    C3 9699   7.012   8.874  11.482  0.0165 -0.1037  0.1292
  607loPI   PO4 9700   6.928   8.698  10.826  0.0556  0.0484 -0.1816
  607loPI   GL1 9701   6.988   8.473  10.564  0.0524 -0.1491 -0.0490
  607loPI   GL2 9702   6.764   8.217  10.438 -0.0398 -0.0855 -0.0117
  607loPI   C1A 9703   7.173   8.577  10.093 -0.0587 -0.3324  0.1059
  607loPI   C2A 9704   7.330   8.625   9.636  0.1248  0.2347 -0.1806
  607loPI   C3A 9705   7.202   8.592   9.239  0.1581 -0.2381 -0.4467
  607loPI   C4A 9706   7.308   8.603   8.817  0.0836 -0.0838  0.0960
  607loPI   C5A 9707   7.393   8.542   8.408  0.0383 -0.0322  0.4017
  607loPI   C6A 9708   7.440   8.251   8.101 -0.0415  0.1592 -0.1228
  607loPI   C1B 9709   6.914   8.171  10.032 -0.3126 -0.1424 -0.2825
  607loPI   C2B 9710   7.111   8.117   9.642  0.0249  0.1013  0.0147
  607loPI   C3B 9711   6.918   8.154   9.289 -0.2873 -0.0343 -0.1357
  607loPI   C4B 9712   7.070   8.178   8.897  0.1446 -0.0974  0.0325
  608loPI    C1 9713  12.905   0.769  10.837  0.1863 -0.1318  0.2283
  608loPI    C2 9714  12.603   0.572  11.010  0.0477 -0.1659 -0.0467
  608loPI    C3 9715  12.748   0.905  11.178 -0.1632 -0.1327  0.0721
  608loPI   PO4 9716  12.826   0.739  10.522 -0.2748  0.0154 -0.1930
  608loPI   GL1 9717  12.501   0.836  10.376  0.1427 -0.1238  0.2053
  608loPI   GL2 9718  12.358   1.171  10.276 -0.0701  0.0562 -0.0050
  608loPI   C1A 9719  12.555   0.842   9.954  0.0130 -0.1510 -0.0815
  608loPI   C2A 9720  12.557   0.935   9.540 -0.0346  0.2404  0.0774
  608loPI   C3A 9721  12.618   0.939   9.110 -0.0771  0.0374  0.2045
  608loPI   C4A 9722  12.608   0.756   8.666 -0.2324 -0.2910 -0.1557
  608loPI   C5A 9723  12.665   0.831   8.209  0.0998 -0.0266  0.2299
  608loPI   C6A 9724  12.898   1.072   7.821 -0.2499 -0.1289 -0.1100
  608loPI   C1B 9725  12.437   1.326   9.873 -0.2980 -0.1016  0.4702
  608loPI   C2B 9726  12.568   1.479   9.465  0.2281 -0.2437 -0.1064
  608loPI   C3B 9727  12.578   1.406   8.993 -0.3158 -0.0294  0.0556
  608loPI   C4B 9728  12.563   1.373   8.577  0.1359  0.1809 -0.4216
  609POPI    C1 9729   7.464   3.428  10.437 -0.1729  0.3658  0.1179
  609POPI    C2 9730   7.645   3.702  10.664  0.2250  0.0732  0.1639
  609POPI    C3 9731   7.480   3.380  10.833 -0.1828  0.2446  0.1041
  609POPI   PO4 9732   7.617   3.453  10.149 -0.1182 -0.3044  0.1241
  609POPI   GL1 9733   7.941   3.236   9.908  0.1513 -0.4110 -0.0055
  609POPI   GL2 9734   7.687   3.116   9.783 -0.1572  0.0951  0.0352
  609POPI   C1A 9735   8.103   2.978   9.528  0.1668 -0.2261  0.3945
  609POPI   D2A 9736   8.277   2.561   9.334 -0.1591  0.1810 -0.2315
  609POPI   C3A 9737   8.228   2.369   8.966 -0.0734 -0.1638  0.0443
  609POPI   C4A 9738   8.044   1.995   8.834  0.2461 -0.3297  0.0105
  609POPI   C1B 9739   7.520   3.238   9.234 -0.0958 -0.2394  0.1151
  609POPI   C2B 9740   7.491   3.265   8.753 -0.1664  0.1703  0.0520
  609POPI   C3B 9741   7.878   3.142   8.646 -0.0760  0.1360  0.1212
  609POPI   C4B 9742   8.174   3.318   8.650 -0.0189  0.1768 -0.4071
  610POPI    C1 9743   1.124   2.263  10.538 -0.0099 -0.1653  0.0431
  610POPI    C2 9744   1.110   2.639  10.403  0.1371 -0.0823  0.2537
  610POPI    C3 9745   0.894   2.533  10.722 -0.1159 -0.2475  0.0320
  610POPI   PO4 9746   1.125   2.174  10.315 -0.1124 -0.3834 -0.2468
  610POPI   GL1 9747   1.179   2.191   9.866  0.1692  0.4897 -0.1884
  610POPI   GL2 9748   1.160   1.901   9.900 -0.2809 -0.0415  0.0178
  610POPI   C1A 9749   1.333   2.238   9.447  0.3300 -0.0741  0.1333
  610POPI   D2A 9750   1.337   2.315   8.982 -0.1040  0.0296 -0.0304
  610POPI   C3A 9751   1.427   2.628   8.719  0.0727 -0.1338  0.1370
  610POPI   C4A 9752   1.832   2.824   8.944 -0.0552  0.2088  0.2197
  610POPI   C1B 9753   1.382   1.567   9.669 -0.0155  0.1867  0.1796
  610POPI   C2B 9754   1.101   1.262   9.402  0.1029  0.1865  0.0072
  610POPI   C3B 9755   0.858   0.990   9.216  0.2013  0.0478 -0.2281
  610POPI   C4B 9756   0.654   0.873   8.914  0.2130 -0.2469  0.0523
  611POPI    C1 9757   0.809   1.288  10.727  0.0110 -0.1990 -0.0085
  611POPI    C2 9758   0.990   1.259  11.082  0.1474  0.0943 -0.0511
  611POPI    C3 9759   0.782   1.588  10.990  0.0044 -0.0348 -0.1943
  611POPI   PO4 9760   0.610   1.128  10.623  0.1831  0.2695 -0.0449
  611POPI   GL1 9761   0.413   1.300  10.211  0.0914 -0.0825  0.3686
  611POPI   GL2 9762   0.552   0.986  10.114 -0.4286 -0.0301  0.2096
  611POPI   C1A 9763   0.424   1.597   9.874 -0.0288 -0.0131 -0.3570
  611POPI   D2A 9764   0.396   1.830   9.493  0.0310  0.0787  0.2934
  611POPI   C3A 9765   0.653   1.906   9.094 -0.1377 -0.2028  0.1972
  611POPI   C4A 9766   0.606   2.040   8.661  0.1446  0.2753 -0.2539
  611POPI   C1B 9767   0.623   1.174   9.665  0.0157  0.2133 -0.1596
  611POPI   C2B 9768   0.513   1.411   9.339  0.0470  0.1090 -0.3094
  611POPI   C3B 9769   0.679   1.433   8.839  0.2189 -0.0940 -0.2038
  611POPI   C4B 9770   0.537   1.588   8.454  0.1305  0.0982 -0.1678
  612POPI    C1 9771   2.669   7.640  10.593  0.3597  0.2134  0.1029
  612POPI    C2 9772   2.595   7.536  10.972  0.1444  0.0541  0.0193
  612POPI    C3 9773   2.487   7.898  10.839 -0.1751 -0.0465 -0.0047
  612POPI   PO4 9774   2.946   7.631  10.537 -0.0505 -0.0170 -0.0137
  612POPI   GL1 9775   3.090   7.653  10.153  0.1652 -0.0119  0.0074
  612POPI   GL2 9776   3.273   7.326   9.972  0.2052 -0.0531  0.0979
  612POPI   C1A 9777   3.134   7.751   9.734  0.0938  0.0484  0.1628
  612POPI   D2A 9778   2.992   7.530   9.355 -0.2441 -0.1772 -0.3493
  612POPI   C3A 9779   3.109   7.563   8.961 -0.1528 -0.2644  0.0210
  612POPI   C4A 9780   3.076   7.487   8.501 -0.1303  0.1927 -0.0742
  612POPI   C1B 9781   3.363   7.246   9.441 -0.1953  0.3013  0.2002
  612POPI   C2B 9782   3.404   7.086   9.058  0.1599  0.2997 -0.0541
  612POPI   C3B 9783   3.436   7.010   8.613  0.3456 -0.1123 -0.2071
  612POPI   C4B 9784   3.595   7.263   8.232  0.0279  0.3116  0.0052
  613POPI    C1 9785   5.629   0.983  10.931  0.0969 -0.1806  0.0525
  613POPI    C2 9786   5.913   1.241  11.045 -0.0711  0.0651 -0.0743
  613POPI    C3 9787   5.731   1.009  11.317  0.1802 -0.0243  0.0206
  613POPI   PO4 9788   5.416   1.040  10.767  0.0266  0.2549  0.4597
  613POPI   GL1 9789   5.295   1.124  10.353  0.3883 -0.3184 -0.2302
  613POPI   GL2 9790   5.074   1.349  10.180  0.2285  0.1410 -0.2524
  613POPI   C1A 9791   5.510   1.316  10.063  0.0277 -0.0019  0.0807
  613POPI   D2A 9792   5.510   1.272   9.640  0.0577 -0.1293  0.0860
  613POPI   C3A 9793   5.038   1.151   9.571 -0.1251 -0.2023  0.2342
  613POPI   C4A 9794   4.793   0.731   9.756  0.1323 -0.1626 -0.0688
  613POPI   C1B 9795   5.127   1.655   9.827 -0.0205  0.0926  0.0041
  613POPI   C2B 9796   5.096   1.677   9.327 -0.1895 -0.0608  0.1074
  613POPI   C3B 9797   5.229   1.340   9.024  0.0242 -0.0935 -0.0486
  613POPI   C4B 9798   5.366   1.100   8.659 -0.1066 -0.2313 -0.3262
  614POPI    C1 9799   9.003   0.405  10.884 -0.1622 -0.3075  0.0590
  614POPI    C2 9800   9.196   0.427  11.233  0.0007 -0.0287 -0.0457
  614POPI    C3 9801   8.802   0.492  11.218 -0.0202 -0.1184  0.0965
  614POPI   PO4 9802   9.055   0.210  10.752 -0.1857  0.1960  0.2388
  614POPI   GL1 9803   9.270   0.142  10.387  0.2339 -0.2897 -0.0323
  614POPI   GL2 9804   9.476   0.009  10.211  0.0825  0.0701 -0.2716
  614POPI   C1A 9805   9.286   0.411  10.001  0.0577  0.0006 -0.3538
  614POPI   D2A 9806   9.235   0.806   9.879  0.3119  0.1158  0.0979
  614POPI   C3A 9807   9.351   0.905   9.506  0.1911  0.0453 -0.2889
  614POPI   C4A 9808   9.480   0.903   9.094  0.0919  0.0833 -0.1246
  614POPI   C1B 9809   9.703  -0.320  10.030  0.1783  0.0739 -0.0778
  614POPI   C2B 9810   9.880  -0.326   9.578  0.0183  0.0297  0.3279
  614POPI   C3B 9811   9.651  -0.167   9.235 -0.0115 -0.4645  0.2189
  614POPI   C4B 9812   9.319  -0.114   9.047  0.0105 -0.2937  0.2507
  615POPI    C1 9813  11.690   6.207  11.058  0.1439  0.0492  0.0807
  615POPI    C2 9814  11.442   6.394  11.311  0.0859  0.0916 -0.0072
  615POPI    C3 9815  11.525   6.006  11.363 -0.3919 -0.0530 -0.2629
  615POPI   PO4 9816  11.606   6.373  10.794 -0.5250  0.2104 -0.1585
  615POPI   GL1 9817  11.599   6.465  10.301  0.2257  0.1161 -0.0953
  615POPI   GL2 9818  11.657   6.303  10.097  0.0019  0.2232 -0.0448
  615POPI   C1A 9819  11.481   6.760   9.957 -0.2023 -0.1649 -0.0805
  615POPI   D2A 9820  11.303   6.735   9.699  0.1217  0.1493 -0.1140
  615POPI   C3A 9821  11.162   6.453   9.473 -0.4182 -0.0884 -0.1523
  615POPI   C4A 9822  11.264   6.380   9.201 -0.1875  0.4780  0.0772
  615POPI   C1B 9823  11.420   6.228   9.791 -0.0101 -0.0769  0.2810
  615POPI   C2B 9824  11.528   6.008   9.460  0.1350 -0.0588 -0.0410
  615POPI   C3B 9825  11.449   5.919   9.045 -0.0520 -0.0059  0.0071
  615POPI   C4B 9826  11.265   6.042   8.679 -0.3935  0.0168 -0.0284
  616POPI    C1 9827  13.770  11.532  10.495 -0.0922 -0.5232 -0.3087
  616POPI    C2 9828  14.153  11.496  10.604 -0.0463  0.3689 -0.1033
  616POPI    C3 9829  13.885  11.647  10.860 -0.5036 -0.0495 -0.3183
  616POPI   PO4 9830  13.700  11.331  10.416 -0.2930 -0.2687 -0.3313
  616POPI   GL1 9831  13.640  11.178  10.079 -0.1237 -0.1945  0.2832
  616POPI   GL2 9832  13.565  11.053   9.860  0.1076 -0.0843 -0.0426
  616POPI   C1A 9833  13.836  11.429   9.671 -0.1705  0.0154 -0.2901
  616POPI   D2A 9834  13.583  11.366   9.339 -0.0604  0.0643 -0.3885
  616POPI   C3A 9835  13.653  11.634   8.978  0.0776  0.2501 -0.2084
  616POPI   C4A 9836  13.653  11.928   8.648 -0.2071  0.0345  0.1723
  616POPI   C1B 9837  13.784  10.930   9.507  0.0365 -0.1208 -0.0867
  616POPI   C2B 9838  13.971  11.142   9.100  0.0237 -0.1341 -0.1593
  616POPI   C3B 9839  14.054  11.172   8.626  0.0186 -0.1027 -0.1176
  616POPI   C4B 9840  13.664  11.018   8.382  0.3086  0.3662  0.4312
  617POPI    C1 9841   3.381   7.975  10.672  0.0885 -0.1205  0.2067
  617POPI    C2 9842   3.682   8.202  10.807  0.1908 -0.0711 -0.0962
  617POPI    C3 9843   3.424   8.038  11.064  0.2643  0.1811  0.1431
  617POPI   PO4 9844   3.296   8.127  10.444 -0.2514 -0.1612 -0.1043
  617POPI   GL1 9845   3.335   8.294  10.079 -0.0033 -0.0811  0.1001
  617POPI   GL2 9846   3.064   8.192   9.958  0.0214 -0.1996 -0.0772
  617POPI   C1A 9847   3.434   8.081   9.693  0.0730 -0.0467  0.0914
  617POPI   D2A 9848   3.333   7.889   9.283  0.0699 -0.0479 -0.1967
  617POPI   C3A 9849   3.323   8.005   8.833  0.0388 -0.3052  0.1927
  617POPI   C4A 9850   3.233   8.183   8.458 -0.0349 -0.3034 -0.1848
  617POPI   C1B 9851   3.077   8.423   9.538  0.1266 -0.1264 -0.1422
  617POPI   C2B 9852   3.012   8.394   9.022 -0.1452  0.0316  0.4855
  617POPI   C3B 9853   3.084   8.638   8.702 -0.2292  0.1550 -0.0910
  617POPI   C4B 9854   3.274   8.703   8.262  0.1131 -0.2994  0.1704
  618POPI    C1 9855   1.486   5.093  10.802 -0.3744 -0.0382  0.0828
  618POPI    C2 9856   1.735   4.808  10.670 -0.0507  0.2692  0.0157
  618POPI    C3 9857   1.393   4.707  10.851  0.1228 -0.1609  0.1144
  618POPI   PO4 9858   1.526   5.261  10.543  0.0163 -0.0259 -0.1441
  618POPI   GL1 9859   1.741   5.515  10.158  0.2856  0.1433 -0.2348
  618POPI   GL2 9860   1.739   5.749   9.882 -0.1153  0.0848 -0.0516
  618POPI   C1A 9861   1.442   5.296   9.660 -0.0830 -0.1754  0.0141
  618POPI   D2A 9862   1.462   5.347   9.254 -0.2071 -0.0863 -0.3445
  618POPI   C3A 9863   1.575   5.038   8.964 -0.1745  0.1940 -0.0191
  618POPI   C4A 9864   1.656   4.670   9.046  0.2291 -0.2166  0.0705
  618POPI   C1B 9865   1.670   5.752   9.441 -0.0627 -0.1303 -0.3743
  618POPI   C2B 9866   1.777   5.771   9.028 -0.0483  0.3067 -0.1367
  618POPI   C3B 9867   1.826   5.836   8.633  0.0639  0.2460  0.0686
  618POPI   C4B 9868   1.917   5.681   8.346  0.0274 -0.2306 -0.1415
  619POPI    C1 9869  17.987   3.792  10.394  0.0146 -0.0387  0.0139
  619POPI    C2 9870  17.625   3.886  10.538 -0.0390 -0.0194 -0.1308
  619POPI    C3 9871  17.824   3.570  10.684 -0.1553 -0.0865 -0.1168
  619POPI   PO4 9872  18.016   3.986  10.175 -0.0174 -0.3037 -0.1314
  619POPI   GL1 9873  18.126   3.989   9.666  0.1671  0.1259  0.2712
  619POPI   GL2 9874  18.509   3.884   9.745  0.0491  0.1226 -0.0842
  619POPI   C1A 9875  17.892   3.877   9.246  0.0073 -0.0691 -0.1876
  619POPI   D2A 9876  17.678   3.796   8.797  0.0349 -0.0022  0.0994
  619POPI   C3A 9877  17.632   4.108   8.544  0.1340  0.0314  0.4948
  619POPI   C4A 9878  17.869   3.998   8.257 -0.0720 -0.2957 -0.5916
  619POPI   C1B 9879  18.485   4.159   9.410 -0.0842  0.0923  0.2627
  619POPI   C2B 9880  18.610   4.104   9.069  0.3212  0.1190 -0.2289
  619POPI   C3B 9881  18.673   3.884   8.797 -0.2519 -0.1204  0.0416
  619POPI   C4B 9882  18.643   3.744   8.348 -0.1226  0.2336 -0.1249
  620POPI    C1 9883   4.848   6.983  10.909 -0.1050 -0.0976 -0.0347
  620POPI    C2 9884   4.659   6.633  10.946 -0.0151 -0.1667 -0.2174
  620POPI    C3 9885   5.056   6.651  10.984 -0.0535 -0.0229  0.1594
  620POPI   PO4 9886   4.729   7.073  10.677 -0.1325  0.0068  0.2356
  620POPI   GL1 9887   4.811   7.212  10.274 -0.0455 -0.1118 -0.0779
  620POPI   GL2 9888   4.538   7.122  10.205 -0.0737 -0.1456  0.2821
  620POPI   C1A 9889   4.934   7.179   9.824  0.0592  0.1704 -0.1401
  620POPI   D2A 9890   4.857   7.108   9.382 -0.0495 -0.1086  0.1343
  620POPI   C3A 9891   5.018   7.111   9.098  0.0140 -0.1572  0.0316
  620POPI   C4A 9892   5.102   7.120   8.702  0.1172  0.0907  0.1337
  620POPI   C1B 9893   4.471   7.157   9.724 -0.0406  0.0038  0.3271
  620POPI   C2B 9894   4.384   7.118   9.227  0.0919  0.0249  0.0721
  620POPI   C3B 9895   4.475   7.140   8.792 -0.1474  0.0419 -0.4157
  620POPI   C4B 9896   4.491   7.179   8.350 -0.0867 -0.2568  0.1486
  621POPI    C1 9897   7.220   5.092  10.371  0.0002  0.0744 -0.2379
  621POPI    C2 9898   7.556   5.113  10.587 -0.0232 -0.2437 -0.1649
  621POPI    C3 9899   7.201   5.114  10.770 -0.0592 -0.0460 -0.2334
  621POPI   PO4 9900   7.229   5.239  10.214  0.0010 -0.1551  0.2822
  621POPI   GL1 9901   7.473   5.422   9.902  0.0016 -0.3111 -0.1838
  621POPI   GL2 9902   7.807   5.464  10.117  0.4012 -0.0103  0.2069
  621POPI   C1A 9903   7.593   5.534   9.513  0.1516  0.1833 -0.0109
  621POPI   D2A 9904   7.645   5.605   9.034 -0.0439 -0.0256 -0.1929
  621POPI   C3A 9905   7.806   5.274   8.725  0.0091  0.0116 -0.2051
  621POPI   C4A 9906   7.877   5.147   8.303 -0.1817 -0.1310  0.0413
  621POPI   C1B 9907   8.085   5.519   9.804 -0.0296  0.0114  0.1003
  621POPI   C2B 9908   8.205   5.522   9.325  0.1457 -0.0603  0.1517
  621POPI   C3B 9909   8.142   5.536   8.954  0.4216 -0.2727  0.1291
  621POPI   C4B 9910   8.184   5.629   8.555 -0.0996 -0.0535  0.1089
  622POPI    C1 9911  12.673  11.318  10.861 -0.2381 -0.2828 -0.1078
  622POPI    C2 9912  13.027  11.136  10.898  0.1093  0.3511 -0.1740
  622POPI    C3 9913  12.690  10.920  10.902  0.4754 -0.2419  0.1216
  622POPI   PO4 9914  12.761  11.541  10.787  0.0279  0.1631  0.2608
  622POPI   GL1 9915  12.759  11.492  10.360 -0.0574  0.1026 -0.0750
  622POPI   GL2 9916  12.711  11.659  10.170  0.2628 -0.0612  0.0379
  622POPI   C1A 9917  12.687  11.237   9.945 -0.0334 -0.2802 -0.2510
  622POPI   D2A 9918  12.363  11.264   9.741 -0.1009  0.0818  0.0373
  622POPI   C3A 9919  12.403  11.356   9.344  0.1267 -0.3966  0.0958
  622POPI   C4A 9920  12.424  11.339   8.947 -0.0336  0.2388  0.1625
  622POPI   C1B 9921  12.675  11.705   9.754 -0.0185  0.3236 -0.0752
  622POPI   C2B 9922  12.622  11.821   9.326 -0.0795 -0.2290 -0.0260
  622POPI   C3B 9923  12.648  11.779   8.838 -0.1246 -0.0202 -0.1970
  622POPI   C4B 9924  12.591  11.706   8.451  0.0764  0.2206  0.2146
  623POPI    C1 9925  13.207  16.791  11.105  0.1013  0.0160 -0.0644
  623POPI    C2 9926  13.142  16.408  11.009 -0.0251 -0.0321  0.2034
  623POPI    C3 9927  12.924  16.582  11.296  0.1439  0.1931  0.1977
  623POPI   PO4 9928  13.389  16.869  10.920 -0.1877  0.0305 -0.0066
  623POPI   GL1 9929  13.482  16.921  10.464  0.0621  0.1049 -0.0944
  623POPI   GL2 9930  13.330  16.845  10.150 -0.1167  0.0878 -0.1418
  623POPI   C1A 9931  13.757  17.004  10.106  0.0735 -0.0967 -0.1443
  623POPI   D2A 9932  13.846  17.355   9.795  0.1590 -0.1868  0.3711
  623POPI   C3A 9933  13.737  17.378   9.412 -0.0392  0.1454 -0.0885
  623POPI   C4A 9934  13.864  17.299   8.920 -0.2330 -0.0311 -0.0810
  623POPI   C1B 9935  13.447  17.007   9.713  0.0070  0.1135 -0.1635
  623POPI   C2B 9936  13.312  17.038   9.214  0.1389 -0.1227 -0.1457
  623POPI   C3B 9937  13.517  16.960   8.820 -0.0731 -0.0301 -0.1005
  623POPI   C4B 9938  13.487  16.718   8.502  0.2882  0.0299 -0.2333
  624POPI    C1 9939  16.883  12.602  10.643  0.1341 -0.0827  0.0610
  624POPI    C2 9940  16.914  12.927  10.413  0.1207 -0.2806 -0.2258
  624POPI    C3 9941  17.216  12.824  10.654  0.0683  0.0212 -0.0264
  624POPI   PO4 9942  16.890  12.407  10.494  0.2008 -0.3125  0.0485
  624POPI   GL1 9943  16.815  12.352  10.028 -0.0361  0.1851  0.0904
  624POPI   GL2 9944  16.579  12.561  10.016 -0.3328 -0.1003  0.2518
  624POPI   C1A 9945  17.046  12.768   9.947 -0.0010 -0.2941  0.0540
  624POPI   D2A 9946  17.283  13.132   9.681  0.2505  0.2561 -0.0851
  624POPI   C3A 9947  17.344  13.468   9.421 -0.0439 -0.1583 -0.1257
  624POPI   C4A 9948  17.344  13.591   8.896  0.0984 -0.2163  0.1526
  624POPI   C1B 9949  16.735  12.569   9.601 -0.0918  0.1002 -0.0321
  624POPI   C2B 9950  17.017  12.517   9.186 -0.0738  0.0399  0.1792
  624POPI   C3B 9951  17.177  12.714   8.919  0.2501  0.0109 -0.0399
  624POPI   C4B 9952  17.346  12.958   8.584 -0.0841  0.1155  0.0987
  625DPPI    C1 9953   2.191   9.287  10.343  0.0212 -0.2022  0.0837
  625DPPI    C2 9954   2.492   9.549  10.319 -0.0515 -0.0910  0.3454
  625DPPI    C3 9955   2.137   9.666  10.461 -0.1648 -0.2665  0.2103
  625DPPI   PO4 9956   2.198   9.192  10.042 -0.1030 -0.0062 -0.0877
  625DPPI   GL1 9957   2.432   9.189   9.684 -0.0475  0.1163 -0.3206
  625DPPI   GL2 9958   2.393   8.799   9.739 -0.0405  0.2566  0.0214
  625DPPI   C1A 9959   2.626   9.311   9.380  0.2105  0.1018 -0.2382
  625DPPI   C2A 9960   2.421   9.331   9.029 -0.0565 -0.0992 -0.0717
  625DPPI   C3A 9961   2.594   9.346   8.691  0.2906 -0.2427 -0.4016
  625DPPI   C4A 9962   2.695   9.441   8.296 -0.0895  0.2553  0.0666
  625DPPI   C1B 9963   2.312   8.880   9.293  0.0248 -0.1482 -0.3790
  625DPPI   C2B 9964   2.026   9.154   9.182  0.0672 -0.0148 -0.1329
  625DPPI   C3B 9965   1.752   9.477   9.007  0.2401  0.0050 -0.0641
  625DPPI   C4B 9966   1.672   9.773   8.702  0.1179  0.2590 -0.0996
  626DPPI    C1 9967  14.846   2.176  10.823  0.0097  0.1886 -0.0422
  626DPPI    C2 9968  15.136   2.450  10.850 -0.0417  0.2311  0.0828
  626DPPI    C3 9969  14.753   2.560  10.886 -0.0785  0.1874 -0.1614
  626DPPI   PO4 9970  14.781   2.014  10.612 -0.1938  0.1608 -0.1694
  626DPPI   GL1 9971  14.921   2.066  10.246 -0.2174  0.1147  0.2930
  626DPPI   GL2 9972  15.205   2.397  10.237 -0.1810  0.1129 -0.0360
  626DPPI   C1A 9973  14.769   2.039   9.814 -0.1624 -0.0079  0.0720
  626DPPI   C2A 9974  14.832   1.950   9.326  0.0861 -0.2115  0.0499
  626DPPI   C3A 9975  14.779   1.960   8.802  0.1672 -0.1091  0.1700
  626DPPI   C4A 9976  14.708   1.946   8.327  0.0197  0.1101 -0.1114
  626DPPI   C1B 9977  15.200   2.301   9.881 -0.4724  0.0068 -0.0032
  626DPPI   C2B 9978  15.202   2.267   9.474  0.0986 -0.0049  0.1314
  626DPPI   C3B 9979  15.113   2.234   9.013 -0.2440 -0.3064 -0.2788
  626DPPI   C4B 9980  15.122   2.213   8.596 -0.0843  0.0515 -0.0577
  627DPPI    C1 9981   0.446   3.742  10.816  0.1240  0.1486  0.1824
  627DPPI    C2 9982   0.145   4.004  10.792 -0.0543 -0.0650  0.0462
  627DPPI    C3 9983   0.452   4.074  11.039 -0.1335  0.2357  0.0632
  627DPPI   PO4 9984   0.393   3.622  10.537  0.1321 -0.3619 -0.0248
  627DPPI   GL1 9985   0.237   3.455  10.124 -0.0063  0.0506  0.0510
  627DPPI   GL2 9986   0.170   3.066  10.091 -0.1116  0.1830  0.3229
  627DPPI   C1A 9987   0.227   3.375   9.725 -0.0907 -0.2096 -0.0361
  627DPPI   C2A 9988   0.426   3.287   9.320 -0.2118  0.1012  0.0399
  627DPPI   C3A 9989   0.519   3.425   9.005  0.1140 -0.0498  0.0189
  627DPPI   C4A 9990   0.555   3.488   8.675 -0.1968  0.0585  0.1571
  627DPPI   C1B 9991   0.251   2.928   9.643  0.0118  0.2678  0.1033
  627DPPI   C2B 9992   0.360   2.828   9.312  0.3825 -0.0360  0.2214
  627DPPI   C3B 9993   0.598   2.935   8.988  0.0012 -0.0513  0.3288
  627DPPI   C4B 9994   0.535   2.935   8.480  0.2469 -0.0091 -0.0324
  628DPPI    C1 9995   0.510   3.124  10.538  0.3780 -0.0165  0.0885
  628DPPI    C2 9996   0.515   2.912  10.878  0.1598  0.0461  0.1322
  628DPPI    C3 9997   0.652   3.288  10.874  0.1583  0.0469  0.1519
  628DPPI   PO4 9998   0.670   2.873  10.414  0.2383  0.1324  0.1673
  628DPPI   GL1 9999   0.748   2.811   9.970 -0.0337 -0.0227 -0.2019
  628DPPI   GL210000   1.043   2.632   9.910  0.0906 -0.1013  0.3027
  628DPPI   C1A10001   0.773   2.949   9.557  0.0662  0.2241 -0.0636
  628DPPI   C2A10002   0.981   3.268   9.238 -0.1584  0.1827 -0.0670
  628DPPI   C3A10003   0.996   3.497   8.895 -0.0224  0.1649 -0.0243
  628DPPI   C4A10004   1.123   3.742   8.449  0.1181  0.2531  0.0972
  628DPPI   C1B10005   1.233   2.715   9.491  0.2140 -0.3532 -0.1254
  628DPPI   C2B10006   1.025   2.767   9.113 -0.3280 -0.3124 -0.4539
  628DPPI   C3B10007   0.947   2.769   8.631 -0.3680 -0.2878  0.1192
  628DPPI   C4B10008   0.865   2.638   8.206  0.1498 -0.1278  0.1414
  629DPPI    C110009  17.737   2.594  10.533 -0.1445  0.0960  0.0951
  629DPPI    C210010  17.634   2.426  10.881 -0.0973 -0.1292  0.0022
  629DPPI    C310011  17.353   2.514  10.611 -0.1768  0.3778  0.2379
  629DPPI   PO410012  17.994   2.490  10.519 -0.1355  0.3951 -0.1366
  629DPPI   GL110013  18.335   2.411  10.241  0.0679  0.0383 -0.0232
  629DPPI   GL210014  18.660   2.609  10.199 -0.2230 -0.2414 -0.0933
  629DPPI   C1A10015  18.230   2.609   9.790  0.0522  0.4270 -0.0155
  629DPPI   C2A10016  18.228   2.485   9.367 -0.1618  0.3172  0.2041
  629DPPI   C3A10017  18.198   2.606   8.932  0.2520  0.1214  0.0099
  629DPPI   C4A10018  18.407   2.745   8.564 -0.1641  0.1110  0.0772
  629DPPI   C1B10019  18.826   2.509   9.781 -0.0410 -0.0232  0.0019
  629DPPI   C2B10020  18.707   2.308   9.387  0.4014 -0.0856 -0.0273
  629DPPI   C3B10021  18.635   2.452   8.987  0.0057  0.0178  0.0662
  629DPPI   C4B10022  18.833   2.479   8.603  0.0555  0.1776  0.3127
  630DPPI    C110023  13.351   2.691  10.803 -0.0408  0.1018 -0.0089
  630DPPI    C210024  13.561   2.849  11.104  0.2798 -0.1620 -0.0885
  630DPPI    C310025  13.575   2.455  11.035 -0.2469 -0.1863 -0.0969
  630DPPI   PO410026  13.446   2.804  10.626 -0.5232 -0.0078  0.2723
  630DPPI   GL110027  13.636   2.881  10.258  0.1442  0.0830 -0.0250
  630DPPI   GL210028  13.856   3.198  10.163  0.1065  0.1797 -0.0006
  630DPPI   C1A10029  13.658   2.851   9.840 -0.0304 -0.2353 -0.0497
  630DPPI   C2A10030  13.778   2.842   9.463 -0.0340  0.0856  0.1812
  630DPPI   C3A10031  13.751   2.752   9.031 -0.0310 -0.3213 -0.1657
  630DPPI   C4A10032  13.827   2.857   8.560 -0.0986 -0.0723  0.2126
  630DPPI   C1B10033  13.600   3.370   9.861 -0.2020 -0.1151  0.3009
  630DPPI   C2B10034  13.664   3.304   9.390  0.0205  0.0855 -0.1918
  630DPPI   C3B10035  13.779   3.368   8.877  0.0524  0.1162 -0.2334
  630DPPI   C4B10036  13.713   3.632   8.545 -0.0057  0.0127  0.3196
  631DPPI    C110037  16.845   2.756  10.800 -0.1008  0.0390  0.0990
  631DPPI    C210038  17.127   2.623  11.050 -0.0971 -0.0179  0.0647
  631DPPI    C310039  17.078   3.016  10.995 -0.0288 -0.0077  0.0757
  631DPPI   PO410040  16.907   2.640  10.520  0.2951 -0.0499  0.1599
  631DPPI   GL110041  16.655   2.642  10.201 -0.3511 -0.1365  0.0043
  631DPPI   GL210042  16.446   2.672  10.061 -0.1187 -0.1859  0.1310
  631DPPI   C1A10043  16.945   2.653   9.859  0.0686  0.2425  0.1262
  631DPPI   C2A10044  17.209   2.886   9.556  0.1336 -0.0853  0.1597
  631DPPI   C3A10045  17.082   2.750   9.163 -0.3304 -0.0924  0.0964
  631DPPI   C4A10046  16.905   2.672   8.748 -0.2919  0.0417 -0.1076
  631DPPI   C1B10047  16.458   2.760   9.592 -0.0034  0.2335 -0.1088
  631DPPI   C2B10048  16.593   2.797   9.305  0.1283 -0.2219  0.1526
  631DPPI   C3B10049  16.441   2.851   8.918 -0.0181 -0.3965  0.0255
  631DPPI   C4B10050  16.578   2.940   8.512 -0.1350 -0.0254 -0.1305
  632DPPI    C110051  12.743  12.261  10.801 -0.2863  0.1578  0.0690
  632DPPI    C210052  12.626  11.942  11.012  0.0550 -0.2323 -0.3135
  632DPPI    C310053  12.981  12.111  11.085 -0.2546  0.2681  0.1010
  632DPPI   PO410054  12.626  12.194  10.532 -0.1554  0.1053 -0.0009
  632DPPI   GL110055  12.831  12.158  10.115  0.3183  0.0136 -0.1838
  632DPPI   GL210056  13.161  12.195  10.016 -0.0577  0.1929  0.0263
  632DPPI   C1A10057  12.794  12.183   9.713 -0.1398  0.3086 -0.2796
  632DPPI   C2A10058  12.897  12.284   9.305  0.1388 -0.1076 -0.1972
  632DPPI   C3A10059  12.968  12.200   8.897 -0.0808 -0.0690 -0.0261
  632DPPI   C4A10060  13.118  12.208   8.483  0.2294 -0.2999 -0.2780
  632DPPI   C1B10061  13.273  11.929   9.678  0.2171  0.3552  0.2169
  632DPPI   C2B10062  13.271  11.845   9.210  0.1281  0.0604 -0.1310
  632DPPI   C3B10063  13.180  11.724   8.770 -0.2119 -0.0685 -0.1472
  632DPPI   C4B10064  13.172  11.703   8.366 -0.0307  0.1121  0.1119
  633DPPI    C110065   3.689  12.446  10.662 -0.1138 -0.0518 -0.2589
  633DPPI    C210066   3.789  12.165  10.395  0.0783 -0.0307 -0.2109
  633DPPI    C310067   4.069  12.323  10.633 -0.0908 -0.0463  0.0008
  633DPPI   PO410068   3.368  12.445  10.549 -0.0867 -0.1489  0.0637
  633DPPI   GL110069   3.473  12.644  10.217 -0.0169  0.3531  0.0293
  633DPPI   GL210070   3.698  12.523   9.952  0.1474 -0.0963  0.2256
  633DPPI   C1A10071   3.202  12.671   9.820 -0.1446  0.0023 -0.1202
  633DPPI   C2A10072   3.140  13.018   9.443 -0.0255  0.0293  0.0474
  633DPPI   C3A10073   3.157  13.127   9.007 -0.0726 -0.1860 -0.1418
  633DPPI   C4A10074   3.136  13.238   8.583  0.1133  0.1451 -0.0404
  633DPPI   C1B10075   3.638  12.766   9.551 -0.3368  0.0847 -0.1867
  633DPPI   C2B10076   3.586  12.969   9.203  0.1399 -0.0762 -0.0964
  633DPPI   C3B10077   3.554  13.012   8.767 -0.0853 -0.4920  0.0220
  633DPPI   C4B10078   3.622  13.008   8.335 -0.0372 -0.0464 -0.3553
  634DPPI    C110079  11.074  17.998  10.755  0.1154 -0.0343 -0.0783
  634DPPI    C210080  10.862  17.750  10.523  0.0569 -0.0491 -0.0094
  634DPPI    C310081  10.985  17.630  10.884 -0.1076  0.0764  0.0897
  634DPPI   PO410082  11.238  18.101  10.625  0.0079 -0.2185 -0.1573
  634DPPI   GL110083  11.383  18.015  10.272  0.3029 -0.5270 -0.0111
  634DPPI   GL210084  11.794  17.930  10.261  0.1749 -0.1267  0.0679
  634DPPI   C1A10085  11.160  18.090   9.941 -0.1483  0.1348  0.1431
  634DPPI   C2A10086  10.946  18.120   9.630  0.0671 -0.4670 -0.0703
  634DPPI   C3A10087  10.900  18.133   9.249 -0.2637  0.0155 -0.0762
  634DPPI   C4A10088  10.764  18.129   8.887  0.0779 -0.1980  0.2043
  634DPPI   C1B10089  11.822  18.140   9.949  0.3065  0.0727  0.0388
  634DPPI   C2B10090  11.842  18.218   9.543 -0.4364  0.1100 -0.3564
  634DPPI   C3B10091  11.772  18.276   9.071 -0.4307 -0.3076  0.0941
  634DPPI   C4B10092  11.991  18.115   8.667 -0.0356  0.1838  0.1663
  635PYPI    C110093  13.448  11.951  10.549 -0.1209 -0.0277  0.0097
  635PYPI    C210094  13.195  12.259  10.580 -0.2783 -0.1740  0.2070
  635PYPI    C310095  13.056  11.893  10.494 -0.0505 -0.1243 -0.4262
  635PYPI   PO410096  13.586  11.968  10.378 -0.0286 -0.1625  0.1090
  635PYPI   GL110097  13.593  11.752  10.027  0.1685 -0.1019  0.5608
  635PYPI   GL210098  13.316  11.671  10.089  0.0710  0.1759 -0.1721
  635PYPI   C1A10099  13.812  11.915   9.599 -0.0891 -0.0877  0.0803
  635PYPI   C2A10100  13.888  12.177   9.222  0.1676  0.0724  0.0285
  635PYPI   D3A10101  14.084  12.294   8.792 -0.1429  0.1347 -0.0443
  635PYPI   C4A10102  14.437  12.048   8.639  0.5649 -0.0028 -0.4680
  635PYPI   C1B10103  13.233  11.423   9.852 -0.1286  0.1356  0.1975
  635PYPI   C2B10104  13.027  11.435   9.428  0.0183  0.2220 -0.1702
  635PYPI   C3B10105  12.895  11.465   9.084 -0.2950  0.1171 -0.0287
  635PYPI   C4B10106  12.852  11.309   8.633  0.1469 -0.1775  0.0043
  636PYPI    C110107  11.868  11.766  10.450  0.0687  0.4294  0.1264
  636PYPI    C210108  11.686  11.765  10.806 -0.1761  0.0069  0.0071
  636PYPI    C310109  11.894  11.445  10.687 -0.1825  0.1049 -0.2730
  636PYPI   PO410110  11.630  11.804  10.317  0.0782 -0.4460  0.1662
  636PYPI   GL110111  11.489  12.056  10.047 -0.0412 -0.3003  0.1657
  636PYPI   GL210112  11.602  12.380  10.136 -0.2184  0.3007  0.4019
  636PYPI   C1A10113  11.348  12.299   9.658  0.2122  0.4700  0.1368
  636PYPI   C2A10114  11.384  12.288   9.165 -0.1682 -0.0606 -0.1825
  636PYPI   D3A10115  11.398  12.259   8.723  0.0681  0.0528  0.1642
  636PYPI   C4A10116  11.248  12.467   8.347  0.0407 -0.1117  0.0529
  636PYPI   C1B10117  11.833  12.226   9.784 -0.0094 -0.0598 -0.0904
  636PYPI   C2B10118  11.897  12.240   9.360  0.0651  0.1047 -0.1658
  636PYPI   C3B10119  11.857  12.220   8.912  0.1000  0.1857  0.1107
  636PYPI   C4B10120  12.108  12.216   8.588 -0.0036  0.2734 -0.2246
  637PYPI    C110121   4.170   4.656  10.912 -0.1034 -0.1191  0.0051
  637PYPI    C210122   4.346   4.421  11.183  0.1472  0.2737  0.1918
  637PYPI    C310123   4.043   4.659  11.291  0.0616  0.2254  0.0610
  637PYPI   PO410124   4.344   4.737  10.740  0.1936  0.1680  0.0791
  637PYPI   GL110125   4.496   4.672  10.369  0.2160 -0.1330 -0.0238
  637PYPI   GL210126   4.454   4.387  10.151 -0.1186 -0.1422 -0.0328
  637PYPI   C1A10127   4.394   4.884  10.053  0.1309  0.2295  0.0554
  637PYPI   C2A10128   4.229   4.918   9.602  0.0198  0.1742 -0.2539
  637PYPI   D3A10129   4.209   4.758   9.169 -0.0065 -0.0691  0.0781
  637PYPI   C4A10130   3.970   4.692   8.756 -0.0931 -0.3219 -0.1178
  637PYPI   C1B10131   4.496   4.371   9.744 -0.1747 -0.1116  0.0158
  637PYPI   C2B10132   4.515   4.366   9.267 -0.3446 -0.2191  0.0137
  637PYPI   C3B10133   4.462   4.433   8.842  0.3869  0.0369  0.0007
  637PYPI   C4B10134   4.484   4.773   8.641 -0.3745  0.0225  0.0959
  638PYPI    C110135  14.881  16.206  11.081 -0.2033  0.1139  0.0549
  638PYPI    C210136  14.885  16.288  11.472  0.0110  0.2915  0.0177
  638PYPI    C310137  15.229  16.236  11.276 -0.1025 -0.1022 -0.0869
  638PYPI   PO410138  14.821  16.376  10.873  0.0981  0.2721 -0.1711
  638PYPI   GL110139  14.884  16.294  10.415 -0.1977  0.0433  0.0043
  638PYPI   GL210140  15.199  16.305  10.403  0.0325  0.0617  0.3225
  638PYPI   C1A10141  14.626  16.164  10.034  0.1378 -0.0820  0.0993
  638PYPI   C2A10142  14.376  15.795   9.897 -0.0855  0.1743 -0.1000
  638PYPI   D3A10143  14.310  15.423   9.625 -0.1954 -0.0622  0.2570
  638PYPI   C4A10144  14.684  15.468   9.337  0.1093  0.1170 -0.0531
  638PYPI   C1B10145  15.160  16.323   9.937 -0.2173  0.0261  0.2452
  638PYPI   C2B10146  15.094  16.283   9.490  0.0903  0.2152  0.0745
  638PYPI   C3B10147  14.959  16.391   9.214 -0.0970 -0.1437 -0.0257
  638PYPI   C4B10148  14.685  16.281   8.870 -0.1792 -0.1345  0.0091
  639PYPI    C110149   7.241   3.899  10.427 -0.1596 -0.0583 -0.1466
  639PYPI    C210150   7.116   3.733  10.768  0.0882 -0.1526 -0.0999
  639PYPI    C310151   7.131   4.131  10.734 -0.0573 -0.1418 -0.0462
  639PYPI   PO410152   7.138   3.794  10.194  0.0761  0.0426  0.0955
  639PYPI   GL110153   7.088   3.474   9.953 -0.0564 -0.1979 -0.0781
  639PYPI   GL210154   6.994   3.681   9.766  0.0895 -0.1062 -0.0837
  639PYPI   C1A10155   7.234   3.147   9.638 -0.0829 -0.1701 -0.1816
  639PYPI   C2A10156   7.242   2.814   9.313  0.1397 -0.0931 -0.3249
  639PYPI   D3A10157   7.084   2.696   8.868 -0.4061  0.2859 -0.0815
  639PYPI   C4A10158   6.819   2.685   8.452 -0.2073  0.3676 -0.1713
  639PYPI   C1B10159   7.174   3.626   9.444 -0.0306  0.0030  0.1478
  639PYPI   C2B10160   7.557   3.882   9.280  0.1597 -0.2835 -0.3639
  639PYPI   C3B10161   7.604   4.091   8.939  0.0336 -0.1123  0.0964
  639PYPI   C4B10162   7.886   4.293   8.867  0.3008  0.1019 -0.0746
  640PYPI    C110163  10.539  17.961  11.072  0.1596 -0.1772 -0.0329
  640PYPI    C210164  10.608  17.623  11.275  0.0609 -0.1827 -0.0078
  640PYPI    C310165  10.476  17.948  11.467 -0.1880 -0.2350 -0.0866
  640PYPI   PO410166  10.556  17.941  10.858 -0.0335  0.0349 -0.0874
  640PYPI   GL110167  10.639  18.235  10.531 -0.2231  0.2053 -0.1087
  640PYPI   GL210168  10.971  18.312  10.307  0.1488  0.1232  0.0788
  640PYPI   C1A10169  10.623  17.969  10.151 -0.1394  0.0517 -0.1696
  640PYPI   C2A10170  10.405  18.059   9.716 -0.0567  0.1354 -0.1555
  640PYPI   D3A10171  10.443  18.307   9.355 -0.0779  0.0046  0.3879
  640PYPI   C4A10172  10.183  18.111   9.146 -0.0619 -0.1841 -0.1224
  640PYPI   C1B10173  10.858  18.593   9.876  0.0559 -0.1722  0.0321
  640PYPI   C2B10174  10.874  18.626   9.431  0.1630 -0.1094 -0.0460
  640PYPI   C3B10175  10.880  18.583   8.919 -0.2062  0.0241  0.1371
  640PYPI   C4B10176  10.823  18.874   8.570 -0.1900  0.1644  0.6008
  641ERGO   ROH10177   0.807   9.075   9.823 -0.0830  0.1448  0.0974
  641ERGO    R110178   0.761   9.147   9.553 -0.0196  0.0247  0.0539
  641ERGO    R210179   0.965   9.188   9.372  0.0198 -0.1209  0.0678
  641ERGO    R310180   0.829   9.005   9.225 -0.0062 -0.1557  0.1334
  641ERGO    R410181   0.857   9.237   9.048 -0.0171 -0.2023  0.0669
  641ERGO    R510182   0.672   9.135   9.099 -0.0167 -0.1813  0.1173
  641ERGO    C110183   0.666   9.093   8.720 -0.0630 -0.2825  0.1279
  641ERGO    C210184   0.579   9.175   8.363  0.3190 -0.2078  0.2109
  642ERGO   ROH10185   7.781  17.491  10.025 -0.0023  0.0028  0.1368
  642ERGO    R110186   7.865  17.392   9.773  0.0708 -0.0027  0.1632
  642ERGO    R210187   7.763  17.485   9.534 -0.0291 -0.1679  0.1379
  642ERGO    R310188   8.025  17.527   9.476 -0.0673  0.0475  0.1123
  642ERGO    R410189   7.885  17.566   9.221 -0.0851 -0.4083  0.0515
  642ERGO    R510190   8.053  17.432   9.258  0.0566 -0.1834  0.2277
  642ERGO    C110191   8.202  17.652   8.984 -0.1535 -0.3461 -0.0228
  642ERGO    C210192   8.133  17.606   8.747 -0.0782 -0.2619 -0.0393
  643ERGO   ROH10193   5.389  18.370  10.206 -0.2554 -0.0145  0.1847
  643ERGO    R110194   5.514  18.251   9.981 -0.0915 -0.1088  0.3237
  643ERGO    R210195   5.417  18.021   9.861 -0.1002 -0.0664  0.2493
  643ERGO    R310196   5.423  18.175   9.637  0.2170 -0.0918  0.2354
  643ERGO    R410197   5.409  17.900   9.538 -0.2203 -0.0858  0.2588
  643ERGO    R510198   5.557  18.050   9.483  0.0516 -0.3345  0.2822
  643ERGO    C110199   5.410  17.973   9.139  0.0075 -0.1211  0.2514
  643ERGO    C210200   5.484  17.947   8.741  0.0782  0.0535  0.0757
  644ERGO   ROH10201   5.543  10.495   9.872  0.2244 -0.0035  0.0307
  644ERGO    R110202   5.724  10.387   9.683  0.0617 -0.1059 -0.0701
  644ERGO    R210203   5.665  10.369   9.413 -0.0353  0.0766 -0.0671
  644ERGO    R310204   5.899  10.505   9.386  0.0977 -0.1472 -0.0638
  644ERGO    R410205   5.854  10.381   9.124 -0.1893  0.1725 -0.1642
  644ERGO    R510206   6.033  10.365   9.246 -0.1343 -0.1480 -0.2876
  644ERGO    C110207   6.183  10.516   8.929 -0.1542  0.0182 -0.2176
  644ERGO    C210208   6.429  10.598   8.806  0.0788  0.1900 -0.2534
  645ERGO   ROH10209  15.482  16.753  10.394  0.0813 -0.0804  0.0033
  645ERGO    R110210  15.401  16.699  10.129  0.1177 -0.1129 -0.0028
  645ERGO    R210211  15.219  16.857   9.994  0.0803 -0.1660 -0.0264
  645ERGO    R310212  15.416  16.869   9.807  0.0967 -0.1166 -0.0041
  645ERGO    R410213  15.172  16.813   9.654  0.1298 -0.1286 -0.0371
  645ERGO    R510214  15.358  16.699   9.649  0.1411 -0.0999 -0.0321
  645ERGO    C110215  15.330  16.799   9.281  0.1741 -0.0604 -0.0225
  645ERGO    C210216  15.225  16.762   8.949 -0.0915 -0.0290  0.2162
  646ERGO   ROH10217   2.743   1.654   9.837 -0.0010  0.0108 -0.1539
  646ERGO    R110218   2.744   1.542   9.577  0.1914  0.1908 -0.2350
  646ERGO    R210219   2.526   1.554   9.408  0.1270 -0.1426 -0.1888
  646ERGO    R310220   2.706   1.662   9.236 -0.1173  0.3588 -0.1442
  646ERGO    R410221   2.491   1.557   9.065  0.2397 -0.3317 -0.2026
  646ERGO    R510222   2.704   1.513   9.048  0.3952  0.2957 -0.1114
  646ERGO    C110223   2.639   1.661   8.702  0.0759  0.0289 -0.1688
  646ERGO    C210224   2.671   1.773   8.389 -0.1286 -0.0242  0.3111
  647ERGO   ROH10225  10.048   5.494  10.281  0.2640  0.1691 -0.0718
  647ERGO    R110226   9.876   5.633  10.104  0.2180  0.1466 -0.0452
  647ERGO    R210227   9.953   5.863   9.972  0.1638  0.1623 -0.0501
  647ERGO    R310228   9.877   5.724   9.751  0.1560  0.1557 -0.0432
  647ERGO    R410229   9.983   5.977   9.647  0.0032  0.2198 -0.0452
  647ERGO    R510230   9.787   5.890   9.604  0.0291  0.1337  0.0083
  647ERGO    C110231   9.928   5.912   9.250 -0.0976  0.2471 -0.0359
  647ERGO    C210232  10.051   6.004   8.953  0.2035 -0.0600  0.1130
  648ERGO   ROH10233  10.706   2.986  10.324 -0.0594  0.0645  0.0202
  648ERGO    R110234  10.619   2.850  10.091  0.1417 -0.0943  0.0365
  648ERGO    R210235  10.452   2.967   9.904  0.0226 -0.3435 -0.0061
  648ERGO    R310236  10.650   2.896   9.732  0.1314 -0.1347  0.0279
  648ERGO    R410237  10.424   2.970   9.560  0.1425 -0.1440 -0.0162
  648ERGO    R510238  10.536   2.783   9.554  0.2487 -0.0902 -0.0858
  648ERGO    C110239  10.594   2.906   9.197  0.3143  0.1682  0.0101
  648ERGO    C210240  10.596   2.850   8.807 -0.1555 -0.0931  0.0823
  649ERGO   ROH10241   1.936  18.327  10.261 -0.0192 -0.2422 -0.0472
  649ERGO    R110242   1.884  18.249   9.994  0.2906 -0.1147 -0.1497
  649ERGO    R210243   1.658  18.331   9.855  0.1527 -0.5033 -0.1724
  649ERGO    R310244   1.842  18.417   9.674  0.0568  0.1033 -0.0088
  649ERGO    R410245   1.606  18.352   9.514  0.2678 -0.2839 -0.1778
  649ERGO    R510246   1.807  18.277   9.483  0.4663  0.2041 -0.1666
  649ERGO    C110247   1.748  18.445   9.146  0.2447  0.4130 -0.0273
  649ERGO    C210248   1.780  18.511   8.732 -0.0840  0.1031  0.0521
  650ERGO   ROH10249  16.361  10.119   9.769  0.0065  0.0904 -0.0654
  650ERGO    R110250  16.189   9.922   9.661 -0.2682  0.1752  0.2064
  650ERGO    R210251  15.915   9.956   9.647 -0.1948  0.7070 -0.1680
  650ERGO    R310252  15.954   9.901   9.383 -0.0014  0.0094 -0.0127
  650ERGO    R410253  15.662   9.904   9.417 -0.0467  0.5813 -0.3055
  650ERGO    R510254  15.782   9.743   9.330 -0.2113  0.1582  0.1953
  650ERGO    C110255  15.552   9.821   9.036  0.2210 -0.1469 -0.2397
  650ERGO    C210256  15.493   9.622   8.721 -0.2700 -0.1166 -0.0065
  651ERGO   ROH10257  10.291  16.043  10.132  0.1524  0.2066  0.0534
  651ERGO    R110258  10.292  16.190   9.891  0.0670  0.1404  0.0118
  651ERGO    R210259  10.523  16.288   9.776  0.0181  0.1927 -0.0476
  651ERGO    R310260  10.435  16.152   9.558  0.0360  0.0989  0.0036
  651ERGO    R410261  10.611  16.361   9.450 -0.0750  0.1458 -0.0828
  651ERGO    R510262  10.404  16.321   9.391 -0.0680  0.0420 -0.0344
  651ERGO    C110263  10.578  16.275   9.055 -0.1123  0.0306 -0.0552
  651ERGO    C210264  10.468  16.238   8.759  0.0729 -0.2215 -0.0525
  652ERGO   ROH10265  11.311   5.276  10.255  0.1196  0.0110 -0.0726
  652ERGO    R110266  11.277   5.093  10.043 -0.0268 -0.0146 -0.0280
  652ERGO    R210267  11.071   5.114   9.860 -0.0230  0.0937 -0.0219
  652ERGO    R310268  11.274   5.107   9.679 -0.0364 -0.0968 -0.0309
  652ERGO    R410269  11.030   5.085   9.518 -0.0538 -0.0560 -0.0059
  652ERGO    R510270  11.201   4.949   9.514 -0.1220 -0.1424  0.0510
  652ERGO    C110271  11.197   5.061   9.149 -0.0843 -0.3220 -0.0054
  652ERGO    C210272  11.215   5.016   8.817  0.1047  0.1216  0.2865
  653ERGO   ROH10273   6.756  13.785  10.575  0.1723  0.1008  0.0923
  653ERGO    R110274   6.858  13.884  10.330  0.0559  0.0549  0.0253
  653ERGO    R210275   7.014  13.731  10.161  0.1045  0.0753  0.0574
  653ERGO    R310276   6.826  13.801   9.977  0.0229 -0.1153  0.0664
  653ERGO    R410277   7.074  13.771   9.823  0.0592  0.1464  0.0574
  653ERGO    R510278   6.943  13.945   9.825 -0.1266  0.0136  0.0672
  653ERGO    C110279   6.933  13.860   9.454 -0.0437  0.0090  0.0658
  653ERGO    C210280   7.019  14.017   9.133 -0.1226  0.1091 -0.1468
  654ERGO   ROH10281   6.158   2.196  10.258  0.1400  0.2491  0.0227
  654ERGO    R110282   6.262   2.284  10.009  0.1502  0.1551 -0.0071
  654ERGO    R210283   6.392   2.114   9.834  0.0845  0.0691  0.0231
  654ERGO    R310284   6.208   2.207   9.658  0.0993  0.0846  0.0166
  654ERGO    R410285   6.400   2.059   9.493  0.0492  0.0078  0.0324
  654ERGO    R510286   6.335   2.265   9.463  0.1011  0.0172 -0.0007
  654ERGO    C110287   6.231   2.114   9.129  0.0425 -0.0133  0.0317
  654ERGO    C210288   6.207   2.362   8.773 -0.0375  0.0695 -0.0203
  655ERGO   ROH10289   8.049  17.826  10.203  0.0450 -0.1754 -0.1405
  655ERGO    R110290   8.083  17.790   9.925 -0.0177 -0.0644 -0.1640
  655ERGO    R210291   8.055  17.997   9.743 -0.0068  0.0250 -0.0747
  655ERGO    R310292   8.304  17.921   9.667 -0.0375 -0.0020 -0.1460
  655ERGO    R410293   8.196  18.061   9.434 -0.0268  0.1085 -0.0663
  655ERGO    R510294   8.281  17.861   9.437 -0.0765  0.0959 -0.1612
  655ERGO    C110295   8.512  18.027   9.183 -0.0673  0.1319 -0.1285
  655ERGO    C210296   8.488  18.053   8.930  0.0222  0.4794 -0.0016
  656ERGO   ROH10297   8.689   6.830  10.543  0.1164 -0.0695  0.0682
  656ERGO    R110298   8.840   6.895  10.313  0.1038 -0.0969  0.0515
  656ERGO    R210299   8.931   6.705  10.135 -0.0668 -0.1038 -0.0336
  656ERGO    R310300   8.802   6.859   9.952 -0.0115  0.0417  0.0491
  656ERGO    R410301   8.966   6.677   9.792 -0.1688 -0.0099 -0.0518
  656ERGO    R510302   8.963   6.894   9.779 -0.0316 -0.0041  0.0226
  656ERGO    C110303   8.865   6.806   9.421 -0.1762  0.1813  0.0153
  656ERGO    C210304   8.949   6.888   9.019 -0.2215 -0.0037  0.1310
  657ERGO   ROH10305   4.079   3.508  10.253  0.2191 -0.0251 -0.0451
  657ERGO    R110306   4.019   3.413   9.993  0.0261  0.0483 -0.0293
  657ERGO    R210307   3.783   3.474   9.863  0.0117  0.2471  0.0833
  657ERGO    R310308   3.950   3.560   9.667 -0.0082  0.1375  0.0182
  657ERGO    R410309   3.682   3.585   9.552 -0.0200  0.1206  0.0480
  657ERGO    R510310   3.851   3.479   9.465 -0.0485  0.0602  0.0697
  657ERGO    C110311   3.780   3.730   9.187 -0.0570 -0.0560 -0.0336
  657ERGO    C210312   3.668   3.679   8.920  0.3595  0.1365  0.0514
  658ERGO   ROH10313   5.744   9.056  10.119  0.1653  0.0295  0.2096
  658ERGO    R110314   5.891   9.092   9.879  0.0402  0.1300  0.1464
  658ERGO    R210315   5.935   8.887   9.699  0.2962  0.0977  0.2356
  658ERGO    R310316   5.825   9.062   9.522 -0.0286 -0.1518  0.1822
  658ERGO    R410317   5.910   8.835   9.358  0.4982  0.0079  0.2332
  658ERGO    R510318   5.962   9.044   9.327  0.0646  0.1174  0.2245
  658ERGO    C110319   5.792   8.970   8.994  0.3108 -0.2787  0.1816
  658ERGO    C210320   5.920   8.966   8.708  0.5338  0.0748 -0.3146
  659ERGO   ROH10321   0.571  14.189  10.097  0.0392 -0.0418 -0.1005
  659ERGO    R110322   0.475  14.337   9.876 -0.1064 -0.0489 -0.0445
  659ERGO    R210323   0.643  14.481   9.710 -0.2346  0.1016 -0.0499
  659ERGO    R310324   0.524  14.333   9.515 -0.1826  0.0688 -0.0559
  659ERGO    R410325   0.618  14.575   9.378 -0.0631 -0.0010 -0.0925
  659ERGO    R510326   0.415  14.495   9.376 -0.0801  0.0488 -0.1579
  659ERGO    C110327   0.492  14.491   9.002  0.0856 -0.0916 -0.1227
  659ERGO    C210328   0.585  14.563   8.547 -0.2734 -0.0629  0.0419
  660ERGO   ROH10329  16.166  14.004   9.988  0.1405 -0.0509 -0.0820
  660ERGO    R110330  16.100  14.201   9.796  0.0778 -0.0852 -0.0949
  660ERGO    R210331  16.288  14.372   9.688  0.0055  0.0312 -0.0319
  660ERGO    R310332  16.192  14.277   9.452  0.1342 -0.0174 -0.0662
  660ERGO    R410333  16.358  14.507   9.377  0.1583 -0.0151 -0.0190
  660ERGO    R510334  16.149  14.473   9.322  0.1871 -0.0404 -0.1216
  660ERGO    C110335  16.308  14.496   8.975  0.3681 -0.0875 -0.0437
  660ERGO    C210336  16.403  14.551   8.637  0.2021  0.0659 -0.0553
  661ERGO   ROH10337   8.668   0.367  10.327  0.1167  0.1024 -0.2492
  661ERGO    R110338   8.751   0.325  10.060 -0.0190  0.1131 -0.2928
  661ERGO    R210339   8.585   0.368   9.843 -0.0376  0.4031 -0.2179
  661ERGO    R310340   8.788   0.528   9.760  0.1290  0.1951 -0.2226
  661ERGO    R410341   8.692   0.396   9.516 -0.0199  0.2811 -0.2237
  661ERGO    R510342   8.898   0.400   9.589 -0.0058  0.0705 -0.2246
  661ERGO    C110343   8.946   0.562   9.247  0.1469  0.0148 -0.2316
  661ERGO    C210344   8.996   0.526   8.952  0.2971  0.1208 -0.0182
  662ERGO   ROH10345  15.126  12.356   9.970 -0.1241 -0.1681 -0.1537
  662ERGO    R110346  15.210  12.544   9.775  0.0509 -0.1246 -0.0391
  662ERGO    R210347  15.289  12.469   9.521  0.0586 -0.0492 -0.0601
  662ERGO    R310348  15.100  12.649   9.445  0.1991  0.1209 -0.0125
  662ERGO    R410349  15.238  12.577   9.197  0.1757  0.1153 -0.0243
  662ERGO    R510350  15.206  12.779   9.274  0.3149  0.1099  0.0506
  662ERGO    C110351  15.031  12.809   8.936  0.3758  0.3707  0.0412
  662ERGO    C210352  14.823  12.872   8.756  0.0184 -0.0423  0.0312
  663ERGO   ROH10353   4.683   9.088   9.871  0.0828  0.2349  0.0677
  663ERGO    R110354   4.834   9.055   9.634 -0.0256  0.1085  0.0146
  663ERGO    R210355   4.799   8.840   9.464 -0.1440  0.0452  0.1142
  663ERGO    R310356   4.766   9.035   9.278 -0.1848 -0.0208  0.0521
  663ERGO    R410357   4.835   8.797   9.123 -0.0232 -0.0234  0.1350
  663ERGO    R510358   4.933   8.990   9.113 -0.1163  0.0202  0.1130
  663ERGO    C110359   4.824   8.954   8.750  0.0087 -0.1253  0.0888
  663ERGO    C210360   4.761   8.968   8.393  0.3288  0.3967 -0.0569
  664ERGO   ROH10361   3.186  17.272  10.404 -0.0581 -0.0710 -0.1079
  664ERGO    R110362   3.181  17.202  10.130 -0.1903  0.0069 -0.1261
  664ERGO    R210363   3.001  17.313   9.951 -0.0996  0.2627 -0.0620
  664ERGO    R310364   3.227  17.375   9.813 -0.0519  0.0415 -0.0886
  664ERGO    R410365   3.031  17.303   9.607 -0.0625 -0.0451 -0.0526
  664ERGO    R510366   3.231  17.219   9.632 -0.1021 -0.1179  0.0436
  664ERGO    C110367   3.261  17.355   9.277  0.0038 -0.4321 -0.0720
  664ERGO    C210368   3.168  17.293   8.919  0.1104  0.3068  0.0515
  665ERGO   ROH10369  11.461   9.221  10.150  0.1538 -0.4280 -0.0349
  665ERGO    R110370  11.426   9.402   9.936 -0.0894 -0.3694  0.0521
  665ERGO    R210371  11.636   9.492   9.780 -0.2050 -0.0126  0.0920
  665ERGO    R310372  11.481   9.401   9.577 -0.0866 -0.1241  0.0499
  665ERGO    R410373  11.614   9.637   9.468 -0.1076 -0.1223  0.0328
  665ERGO    R510374  11.400   9.599   9.470 -0.0972 -0.1833 -0.0522
  665ERGO    C110375  11.455   9.637   9.094  0.0602 -0.2908 -0.0414
  665ERGO    C210376  11.504   9.551   8.742 -0.0138 -0.1352 -0.1026
  666ERGO   ROH10377  17.417   9.140   9.647  0.1537  0.0752  0.1879
  666ERGO    R110378  17.428   9.251   9.387  0.2807  0.0477  0.1810
  666ERGO    R210379  17.617   9.175   9.201  0.1783 -0.2030  0.1758
  666ERGO    R310380  17.399   9.128   9.046  0.1082  0.0625  0.1891
  666ERGO    R410381  17.615   9.185   8.856  0.1488 -0.1167  0.1781
  666ERGO    R510382  17.421   9.284   8.864  0.2501  0.0861  0.2245
  666ERGO    C110383  17.410   9.146   8.509  0.0658  0.1826  0.1919
  666ERGO    C210384  17.557   9.019   8.245  0.1860 -0.2412  0.0391
  667ERGO   ROH10385  14.609   0.677  10.368 -0.1343 -0.0029  0.0382
  667ERGO    R110386  14.555   0.567  10.112 -0.1161 -0.0294  0.0456
  667ERGO    R210387  14.386   0.688   9.931 -0.0575 -0.0181 -0.0020
  667ERGO    R310388  14.601   0.669   9.766 -0.0340 -0.0924  0.0374
  667ERGO    R410389  14.371   0.686   9.585  0.0070  0.0598 -0.0052
  667ERGO    R510390  14.525   0.532   9.584 -0.0686 -0.0184 -0.0051
  667ERGO    C110391  14.564   0.667   9.230  0.0666  0.0354  0.0299
  667ERGO    C210392  14.513   0.616   8.921 -0.1562  0.0537  0.1353
  668ERGO   ROH10393  12.943  12.615  10.304 -0.5523 -0.1552 -0.1234
  668ERGO    R110394  12.955  12.688  10.031 -0.2870 -0.1206 -0.1061
  668ERGO    R210395  13.142  12.865   9.931 -0.1907 -0.1043  0.0972
  668ERGO    R310396  13.196  12.661   9.760 -0.0201 -0.0820  0.1235
  668ERGO    R410397  13.148  12.893   9.587 -0.1255 -0.1225  0.0972
  668ERGO    R510398  13.050  12.699   9.574  0.0001 -0.1866  0.0856
  668ERGO    C110399  13.203  12.718   9.225  0.0727 -0.1122  0.1218
  668ERGO    C210400  13.305  12.774   8.875  0.0575  0.1585  0.0816
  669ERGO   ROH10401   4.244   8.852   9.772  0.0356  0.2124 -0.0532
  669ERGO    R110402   4.373   8.948   9.539  0.0855  0.0708 -0.0858
  669ERGO    R210403   4.361   8.817   9.297 -0.0462  0.0353 -0.0651
  669ERGO    R310404   4.273   9.057   9.206  0.1295  0.0904 -0.0912
  669ERGO    R410405   4.345   8.909   8.964 -0.0226  0.0035 -0.0746
  669ERGO    R510406   4.416   9.107   9.021  0.1387 -0.0463 -0.1170
  669ERGO    C110407   4.253   9.188   8.685  0.1560  0.0368 -0.1048
  669ERGO    C210408   4.143   9.414   8.428 -0.3417  0.3609  0.0354
  670ERGO   ROH10409   0.535   7.971   9.755  0.0414 -0.0571  0.0198
  670ERGO    R110410   0.718   8.006   9.542  0.0176 -0.1190 -0.0118
  670ERGO    R210411   0.714   7.849   9.315 -0.1299 -0.0611 -0.0525
  670ERGO    R310412   0.700   8.089   9.189 -0.0090 -0.0198  0.0130
  670ERGO    R410413   0.804   7.904   8.986 -0.0651 -0.0080 -0.0253
  670ERGO    R510414   0.894   8.093   9.048  0.0096 -0.0648  0.0386
  670ERGO    C110415   0.844   8.162   8.676  0.0861  0.0617  0.0521
  670ERGO    C210416   0.822   8.110   8.312  0.1504 -0.0952 -0.2690
  671ERGO   ROH10417   6.509   4.623  10.016  0.1040  0.1613  0.0950
  671ERGO    R110418   6.540   4.424   9.817  0.0098  0.0157  0.2232
  671ERGO    R210419   6.559   4.484   9.548 -0.1650 -0.1825  0.1621
  671ERGO    R310420   6.789   4.339   9.566 -0.1325 -0.1345  0.1323
  671ERGO    R410421   6.665   4.254   9.313 -0.0692 -0.0532  0.0770
  671ERGO    R510422   6.730   4.125   9.477 -0.0638 -0.1094  0.0280
  671ERGO    C110423   6.942   3.983   9.193  0.0173  0.0671 -0.0005
  671ERGO    C210424   7.129   4.147   8.990  0.0809  0.2076  0.0397
  672ERGO   ROH10425   6.337  12.735  10.102  0.1707 -0.1572  0.0436
  672ERGO    R110426   6.474  12.846   9.881  0.1780 -0.1167  0.0673
  672ERGO    R210427   6.691  12.722   9.762  0.1187 -0.1489 -0.0174
  672ERGO    R310428   6.542  12.749   9.536  0.0903 -0.0047  0.0192
  672ERGO    R410429   6.791  12.626   9.446 -0.0260 -0.1725 -0.0562
  672ERGO    R510430   6.700  12.807   9.367  0.0918 -0.0963 -0.0068
  672ERGO    C110431   6.710  12.596   9.050 -0.1368 -0.0510 -0.0444
  672ERGO    C210432   6.754  12.577   8.649  0.2087 -0.0228 -0.1355
  673ERGO   ROH10433  16.116   8.804   9.932  0.0303  0.0052  0.0100
  673ERGO    R110434  15.996   8.858   9.682 -0.0515  0.0417  0.0565
  673ERGO    R210435  16.135   8.841   9.444 -0.0733  0.2759  0.0249
  673ERGO    R310436  15.932   8.674   9.374  0.0473  0.1497 -0.0292
  673ERGO    R410437  16.012   8.803   9.123  0.0178  0.2162 -0.0034
  673ERGO    R510438  15.811   8.795   9.206  0.0049  0.0823 -0.0469
  673ERGO    C110439  15.750   8.624   8.871  0.1841  0.0630 -0.0706
  673ERGO    C210440  15.514   8.769   8.581 -0.2994  0.0851 -0.1368
  674loPI    C110441  10.823  13.428   4.952  0.0426  0.0124 -0.1799
  674loPI    C210442  10.720  13.060   5.070  0.1918  0.0201 -0.0217
  674loPI    C310443  10.485  13.262   4.817  0.0348 -0.1259  0.0058
  674loPI   PO410444  10.937  13.446   5.271  0.1789 -0.0294 -0.3397
  674loPI   GL110445  11.173  13.362   5.611  0.2215  0.0228  0.0339
  674loPI   GL210446  11.445  13.463   5.671  0.0892 -0.1111  0.1387
  674loPI   C1A10447  11.200  13.066   6.022 -0.1968  0.0346  0.1692
  674loPI   C2A10448  11.200  12.840   6.428 -0.0314  0.0058  0.0699
  674loPI   C3A10449  11.034  12.883   6.807  0.0080 -0.0166 -0.2590
  674loPI   C4A10450  11.030  12.651   7.251 -0.1947 -0.1501 -0.0183
  674loPI   C5A10451  11.114  12.481   7.678 -0.0930  0.0031  0.1910
  674loPI   C6A10452  11.488  12.469   7.883 -0.0570 -0.1390  0.2380
  674loPI   C1B10453  11.706  13.620   6.022  0.0965  0.0903 -0.1924
  674loPI   C2B10454  11.763  13.519   6.394  0.0287 -0.3661  0.0785
  674loPI   C3B10455  11.669  13.463   6.813  0.0695 -0.1694  0.0151
  674loPI   C4B10456  11.591  13.356   7.174 -0.0791 -0.0040 -0.1279
  675loPI    C110457  11.749  17.706   5.770  0.0581 -0.0282  0.0746
  675loPI    C210458  11.563  18.048   5.864  0.0588 -0.0412  0.1232
  675loPI    C310459  11.364  17.758   5.673  0.0160 -0.0730  0.2150
  675loPI   PO410460  11.873  17.605   6.029 -0.3516 -0.1615  0.0221
  675loPI   GL110461  11.878  17.659   6.405 -0.2465  0.0589 -0.0239
  675loPI   GL210462  12.200  17.691   6.476 -0.0685 -0.0177  0.0897
  675loPI   C1A10463  11.926  17.393   6.765 -0.0169 -0.1169  0.0570
  675loPI   C2A10464  12.066  17.264   7.203 -0.0475  0.0877  0.3094
  675loPI   C3A10465  12.286  17.079   7.551 -0.1673  0.1649  0.1127
  675loPI   C4A10466  12.513  16.939   7.943  0.0742 -0.0321 -0.3622
  675loPI   C5A10467  12.701  16.488   8.061  0.1886 -0.1191  0.0283
  675loPI   C6A10468  13.083  16.433   7.791  0.2861 -0.0876  0.1631
  675loPI   C1B10469  12.427  17.684   6.939 -0.1751  0.2188  0.0710
  675loPI   C2B10470  12.598  17.496   7.422  0.0992 -0.1511 -0.1279
  675loPI   C3B10471  12.598  17.499   7.767  0.1259 -0.0967 -0.1043
  675loPI   C4B10472  12.765  17.720   8.183 -0.0728 -0.0118 -0.0285
  676loPI    C110473   3.252   7.856   4.871  0.3311  0.0315  0.0048
  676loPI    C210474   3.289   7.464   4.797  0.1252  0.0215 -0.0517
  676loPI    C310475   2.957   7.605   4.971  0.2529  0.1551  0.0872
  676loPI   PO410476   3.504   7.952   5.017  0.1219  0.0911 -0.0277
  676loPI   GL110477   3.665   7.968   5.446 -0.4083  0.0181 -0.0538
  676loPI   GL210478   3.769   8.303   5.470 -0.1400 -0.0680 -0.2477
  676loPI   C1A10479   3.493   8.106   5.835  0.0271 -0.3921 -0.0630
  676loPI   C2A10480   3.513   7.975   6.222  0.1206 -0.1243  0.2291
  676loPI   C3A10481   3.473   7.917   6.658  0.1121 -0.0235  0.0386
  676loPI   C4A10482   3.544   8.136   7.152  0.0965  0.0294 -0.0420
  676loPI   C5A10483   3.574   8.084   7.609 -0.0734 -0.1741  0.0707
  676loPI   C6A10484   3.358   7.944   7.998 -0.2462  0.1627 -0.3020
  676loPI   C1B10485   3.750   8.539   5.880  0.1335  0.1352  0.2507
  676loPI   C2B10486   3.698   8.414   6.367  0.1740  0.0542 -0.2518
  676loPI   C3B10487   3.720   8.397   6.740  0.0420 -0.0823  0.1830
  676loPI   C4B10488   3.569   8.639   7.054  0.2153  0.0663  0.1268
  677loPI    C110489  11.602   2.588   5.539 -0.1026 -0.0607 -0.0569
  677loPI    C210490  11.632   2.804   5.204 -0.1486 -0.0273 -0.0398
  677loPI    C310491  11.527   2.418   5.185 -0.1505 -0.0257 -0.0638
  677loPI   PO410492  11.756   2.676   5.652  0.0966 -0.1283 -0.2237
  677loPI   GL110493  11.840   2.850   6.024 -0.1692  0.1808  0.0757
  677loPI   GL210494  11.605   2.787   6.150 -0.0533  0.4985  0.0745
  677loPI   C1A10495  12.176   2.839   6.203 -0.0517  0.1720 -0.0571
  677loPI   C2A10496  12.267   2.611   6.540 -0.1480 -0.0100 -0.1125
  677loPI   C3A10497  12.619   2.411   6.766 -0.1309 -0.1595 -0.0913
  677loPI   C4A10498  12.654   2.388   7.229 -0.0841  0.3426  0.1237
  677loPI   C5A10499  12.553   2.529   7.640 -0.0988  0.1058  0.2491
  677loPI   C6A10500  12.365   2.794   8.038 -0.3497  0.0403 -0.2162
  677loPI   C1B10501  11.750   2.727   6.530 -0.1356 -0.0508  0.0211
  677loPI   C2B10502  11.688   2.528   6.897 -0.1037 -0.0437  0.2164
  677loPI   C3B10503  11.659   2.610   7.333  0.4527  0.1697  0.2348
  677loPI   C4B10504  11.550   2.534   7.681  0.1445 -0.0699  0.2813
  678loPI    C110505  15.048  16.297   5.475  0.0847 -0.0391 -0.1422
  678loPI    C210506  15.164  16.274   5.093  0.1322  0.0096 -0.1310
  678loPI    C310507  15.167  16.627   5.281 -0.0018  0.0054 -0.1202
  678loPI   PO410508  15.140  16.209   5.608 -0.2789  0.1225  0.1744
  678loPI   GL110509  15.524  16.147   5.785 -0.0999 -0.1275 -0.2064
  678loPI   GL210510  15.676  15.822   5.690 -0.2841 -0.1177  0.0333
  678loPI   C1A10511  15.510  16.200   6.133  0.1198 -0.1710  0.0941
  678loPI   C2A10512  15.558  16.187   6.650  0.0328 -0.0953  0.1295
  678loPI   C3A10513  15.708  16.223   7.128 -0.0351 -0.3004 -0.1655
  678loPI   C4A10514  15.793  16.115   7.489  0.2631 -0.0472  0.0898
  678loPI   C5A10515  15.746  16.004   7.889  0.2483 -0.1397 -0.1561
  678loPI   C6A10516  16.020  16.253   8.202  0.0886  0.4886  0.1115
  678loPI   C1B10517  15.785  15.794   6.208 -0.0805  0.0536 -0.1653
  678loPI   C2B10518  15.934  15.810   6.562  0.2207  0.0261  0.0046
  678loPI   C3B10519  16.050  15.845   6.973  0.0723  0.3290  0.4591
  678loPI   C4B10520  16.326  15.909   7.263 -0.1307 -0.0116 -0.0876
  679loPI    C110521   6.461   5.108   5.265  0.0704  0.0604 -0.4239
  679loPI    C210522   6.297   4.811   5.054 -0.0152 -0.0816 -0.1632
  679loPI    C310523   6.662   4.767   5.211 -0.0896 -0.1093  0.0038
  679loPI   PO410524   6.355   5.180   5.495 -0.1567 -0.1826  0.2853
  679loPI   GL110525   6.168   5.026   5.874 -0.0144  0.0283  0.2885
  679loPI   GL210526   6.317   4.944   6.192 -0.0392  0.0049  0.0164
  679loPI   C1A10527   6.049   5.396   6.258 -0.2814 -0.2056 -0.0578
  679loPI   C2A10528   6.060   5.531   6.614  0.0435  0.2300 -0.0404
  679loPI   C3A10529   5.950   5.574   7.017 -0.1838  0.0743  0.0260
  679loPI   C4A10530   5.756   5.304   7.355 -0.2923  0.2603 -0.2610
  679loPI   C5A10531   5.802   5.150   7.794  0.3376  0.1994 -0.1566
  679loPI   C6A10532   5.701   5.149   8.177  0.1547 -0.0817  0.0601
  679loPI   C1B10533   6.292   5.051   6.578 -0.2507  0.0690  0.2217
  679loPI   C2B10534   6.350   5.231   7.037  0.1469 -0.1699  0.0246
  679loPI   C3B10535   6.252   5.213   7.435  0.1158 -0.1908  0.0183
  679loPI   C4B10536   6.046   5.604   7.680 -0.0403  0.2127  0.0938
  680loPI    C110537   3.473  15.488   5.372  0.0110  0.0976  0.0109
  680loPI    C210538   3.713  15.749   5.188  0.1725 -0.1940 -0.2003
  680loPI    C310539   3.432  15.556   4.980 -0.2176  0.1065  0.0352
  680loPI   PO410540   3.410  15.627   5.663 -0.1844 -0.0218  0.1534
  680loPI   GL110541   3.193  15.439   5.968  0.1847 -0.0193  0.0245
  680loPI   GL210542   3.445  15.198   6.030 -0.0796 -0.5642 -0.0188
  680loPI   C1A10543   3.069  15.555   6.298 -0.4447 -0.2646 -0.2080
  680loPI   C2A10544   2.810  15.366   6.603 -0.1200 -0.1706 -0.1739
  680loPI   C3A10545   2.856  15.347   7.011  0.2281  0.0165 -0.1212
  680loPI   C4A10546   2.812  15.155   7.322 -0.2624 -0.3771  0.1776
  680loPI   C5A10547   2.963  14.898   7.566 -0.1023  0.2590 -0.2423
  680loPI   C6A10548   3.135  15.013   7.943  0.0168 -0.3040 -0.0994
  680loPI   C1B10549   3.392  15.276   6.533  0.0031 -0.1470  0.4274
  680loPI   C2B10550   3.407  15.340   6.924 -0.1711  0.1274 -0.0732
  680loPI   C3B10551   3.299  15.596   7.260  0.2509 -0.0960  0.2787
  680loPI   C4B10552   3.353  15.816   7.648  0.1814 -0.3965 -0.3437
  681loPI    C110553   0.631  11.990   5.211  0.3425 -0.0759 -0.1442
  681loPI    C210554   0.734  11.715   4.940  0.2548 -0.1110 -0.1421
  681loPI    C310555   0.605  12.074   4.821  0.1424 -0.1530 -0.1485
  681loPI   PO410556   0.448  11.782   5.434 -0.1575  0.2450  0.2615
  681loPI   GL110557   0.219  11.987   5.682  0.0316  0.1833  0.2611
  681loPI   GL210558  -0.087  11.847   5.759  0.2478  0.3467  0.0255
  681loPI   C1A10559   0.449  12.006   6.085  0.0854  0.0986 -0.0333
  681loPI   C2A10560   0.350  11.938   6.612 -0.2066  0.0259  0.1241
  681loPI   C3A10561   0.385  12.058   7.038  0.3359 -0.1236 -0.5763
  681loPI   C4A10562   0.265  12.031   7.496  0.2694  0.0197  0.0014
  681loPI   C5A10563   0.261  11.829   7.882  0.0034 -0.0160 -0.3019
  681loPI   C6A10564   0.381  11.494   8.225 -0.2850 -0.1694 -0.0284
  681loPI   C1B10565  -0.044  11.847   6.272 -0.4645 -0.2426  0.2875
  681loPI   C2B10566  -0.092  11.820   6.580 -0.2630 -0.3984 -0.0342
  681loPI   C3B10567  -0.120  11.888   7.064  0.1267 -0.1547 -0.0013
  681loPI   C4B10568  -0.132  11.738   7.550  0.1065  0.0465  0.2360
  682loPI    C110569   3.581   1.302   5.293 -0.2581 -0.0317 -0.0067
  682loPI    C210570   3.481   1.377   4.913  0.0342 -0.0114 -0.0824
  682loPI    C310571   3.396   1.644   5.199  0.0047  0.0694 -0.1662
  682loPI   PO410572   3.425   1.095   5.372 -0.1573  0.1797  0.0646
  682loPI   GL110573   3.395   1.113   5.755 -0.2320 -0.2219 -0.2933
  682loPI   GL210574   3.628   0.866   5.852 -0.0965 -0.0314 -0.0267
  682loPI   C1A10575   3.555   1.239   6.219 -0.1000 -0.0788 -0.2329
  682loPI   C2A10576   3.630   1.184   6.618 -0.0714  0.3685 -0.0246
  682loPI   C3A10577   3.765   1.017   7.135  0.1581 -0.1947  0.0159
  682loPI   C4A10578   3.876   1.045   7.568 -0.1500  0.2639 -0.0671
  682loPI   C5A10579   4.034   1.032   8.036  0.0420  0.1074  0.0986
  682loPI   C6A10580   4.239   1.017   8.359  0.2325  0.0661  0.1621
  682loPI   C1B10581   3.658   0.549   6.203 -0.0495 -0.0340 -0.1581
  682loPI   C2B10582   3.599   0.408   6.627  0.2320 -0.1156 -0.0949
  682loPI   C3B10583   3.672   0.531   7.025  0.0071  0.2149  0.0250
  682loPI   C4B10584   3.765   0.562   7.423  0.2620 -0.1430  0.0891
  683loPI    C110585   7.269   0.039   5.168  0.1444 -0.1950 -0.1114
  683loPI    C210586   6.924  -0.132   5.274  0.0882 -0.0461 -0.0513
  683loPI    C310587   7.078  -0.201   4.911 -0.1412  0.0976 -0.1791
  683loPI   PO410588   7.408  -0.027   5.474  0.1744 -0.2240  0.1820
  683loPI   GL110589   7.520   0.130   5.844 -0.1312  0.0763  0.0825
  683loPI   GL210590   7.466   0.403   6.050 -0.0658  0.1336 -0.0290
  683loPI   C1A10591   7.583  -0.129   6.164  0.2269 -0.2055  0.0347
  683loPI   C2A10592   7.645  -0.204   6.640 -0.0403 -0.1742  0.5389
  683loPI   C3A10593   7.727  -0.235   7.085  0.0871  0.0969  0.3505
  683loPI   C4A10594   7.797  -0.242   7.547  0.1005  0.3044 -0.2526
  683loPI   C5A10595   8.015  -0.334   7.962  0.0953  0.1823 -0.0485
  683loPI   C6A10596   8.047  -0.693   8.283 -0.2481  0.0002  0.1771
  683loPI   C1B10597   7.649   0.272   6.470 -0.0882 -0.0272  0.2410
  683loPI   C2B10598   7.841   0.285   6.927 -0.0028 -0.2732 -0.0827
  683loPI   C3B10599   7.833   0.239   7.305 -0.1967 -0.2753 -0.2430
  683loPI   C4B10600   8.107   0.200   7.705  0.6487  0.0671 -0.3738
  684loPI    C110601  12.898  18.224   5.376  0.0391 -0.2081  0.0010
  684loPI    C210602  12.831  18.000   5.052  0.0343  0.0107 -0.1510
  684loPI    C310603  13.026  18.347   5.018 -0.1693  0.1472  0.0444
  684loPI   PO410604  12.965  18.068   5.565 -0.0155  0.0070  0.2664
  684loPI   GL110605  12.923  18.113   5.950  0.2624 -0.3463  0.0237
  684loPI   GL210606  13.103  18.375   6.083 -0.0237  0.2477 -0.4793
  684loPI   C1A10607  12.877  18.145   6.428 -0.2869  0.2168  0.1605
  684loPI   C2A10608  12.878  18.078   6.849 -0.0375  0.1021 -0.0700
  684loPI   C3A10609  12.831  17.885   7.209 -0.1233 -0.1925 -0.2076
  684loPI   C4A10610  13.015  17.675   7.586 -0.2283  0.2308 -0.4812
  684loPI   C5A10611  13.058  17.417   7.918  0.0909  0.1030 -0.0259
  684loPI   C6A10612  13.102  17.360   8.389  0.1965 -0.2077 -0.0632
  684loPI   C1B10613  13.160  18.659   6.529  0.0926  0.2022 -0.2454
  684loPI   C2B10614  13.109  18.635   6.920 -0.1353 -0.0763 -0.2359
  684loPI   C3B10615  13.207  18.442   7.172  0.1834 -0.0727 -0.1840
  684loPI   C4B10616  13.057  18.189   7.553 -0.0412  0.1954 -0.0151
  685loPI    C110617   0.392  17.057   5.438 -0.1088  0.3032 -0.0363
  685loPI    C210618   0.742  17.103   5.625 -0.0294  0.1696 -0.1501
  685loPI    C310619   0.705  17.209   5.241 -0.1137  0.1828 -0.1384
  685loPI   PO410620   0.291  16.751   5.603  0.0426 -0.0518 -0.0067
  685loPI   GL110621   0.342  16.594   5.981 -0.0639  0.0857  0.1799
  685loPI   GL210622   0.216  16.372   6.079 -0.0677 -0.1738  0.2247
  685loPI   C1A10623   0.705  16.282   6.286  0.1447 -0.1700 -0.2598
  685loPI   C2A10624   0.683  15.944   6.488  0.1215 -0.3186 -0.1691
  685loPI   C3A10625   0.518  15.617   6.808 -0.1749 -0.3377 -0.1408
  685loPI   C4A10626   0.581  15.279   7.201  0.1458  0.4838 -0.2111
  685loPI   C5A10627   0.695  15.162   7.646 -0.3765  0.1638  0.1498
  685loPI   C6A10628   0.927  15.128   8.115 -0.3054 -0.1817  0.3272
  685loPI   C1B10629   0.271  16.260   6.476  0.1105 -0.0492 -0.0768
  685loPI   C2B10630   0.261  16.123   6.873  0.1958  0.1155  0.0048
  685loPI   C3B10631   0.329  15.821   7.230  0.1426  0.1580  0.0914
  685loPI   C4B10632   0.459  15.611   7.551 -0.1414  0.2401 -0.0084
  686loPI    C110633  12.996   8.750   4.998 -0.2307 -0.0207 -0.0233
  686loPI    C210634  12.753   8.624   4.707  0.1310 -0.2177 -0.2459
  686loPI    C310635  12.959   8.964   4.662  0.1064 -0.1935 -0.1755
  686loPI   PO410636  12.903   8.629   5.271 -0.0597 -0.3647 -0.0744
  686loPI   GL110637  12.859   8.786   5.637  0.0082  0.2584 -0.2888
  686loPI   GL210638  12.842   9.066   5.739  0.2405 -0.1855  0.0370
  686loPI   C1A10639  12.964   8.642   6.093 -0.0422 -0.0042  0.0532
  686loPI   C2A10640  13.089   8.613   6.503  0.0808 -0.0349  0.0413
  686loPI   C3A10641  13.059   8.603   6.964  0.0133 -0.2358 -0.0849
  686loPI   C4A10642  12.997   8.523   7.386  0.2652  0.3023  0.0891
  686loPI   C5A10643  12.891   8.134   7.643 -0.2149 -0.1047  0.0582
  686loPI   C6A10644  12.926   8.234   8.078  0.1193  0.0176  0.1530
  686loPI   C1B10645  13.007   9.142   6.107 -0.0731  0.1116 -0.1463
  686loPI   C2B10646  13.126   9.128   6.511  0.0284 -0.1768 -0.0977
  686loPI   C3B10647  13.203   9.066   6.855 -0.1839  0.5036 -0.0503
  686loPI   C4B10648  13.097   8.995   7.264  0.0060 -0.0185  0.0736
  687loPI    C110649   6.964  11.179   5.240  0.1287  0.1681 -0.0206
  687loPI    C210650   7.265  11.376   5.065  0.0601  0.1914 -0.1133
  687loPI    C310651   6.887  11.455   4.960  0.0299  0.0396 -0.1212
  687loPI   PO410652   6.917  11.268   5.518 -0.1947 -0.2064  0.0560
  687loPI   GL110653   6.983  11.271   5.929 -0.1417 -0.2954 -0.2381
  687loPI   GL210654   6.774  11.561   5.893 -0.1828  0.0640  0.0182
  687loPI   C1A10655   6.815  11.353   6.408 -0.0670  0.3338  0.2824
  687loPI   C2A10656   6.876  11.190   6.842  0.2031 -0.0407  0.0053
  687loPI   C3A10657   6.801  11.029   7.268 -0.1769  0.0208 -0.0350
  687loPI   C4A10658   6.854  11.160   7.734  0.1122 -0.0885  0.3158
  687loPI   C5A10659   6.672  10.992   8.051  0.1048 -0.0520  0.3231
  687loPI   C6A10660   6.574  10.800   8.416 -0.2250 -0.0308  0.1038
  687loPI   C1B10661   6.670  11.767   6.309 -0.0501  0.0518  0.2680
  687loPI   C2B10662   6.766  11.700   6.745 -0.0181 -0.1598 -0.1175
  687loPI   C3B10663   6.726  11.657   7.152  0.0638 -0.0702 -0.2812
  687loPI   C4B10664   6.525  11.574   7.455  0.1256  0.3043 -0.0153
  688loPI    C110665  12.396   7.294   5.205 -0.0243 -0.0394 -0.0775
  688loPI    C210666  12.495   7.007   4.944  0.1539 -0.0903  0.0434
  688loPI    C310667  12.562   7.391   4.855 -0.0604 -0.0862 -0.1077
  688loPI   PO410668  12.531   7.291   5.391  0.2795  0.1319 -0.1772
  688loPI   GL110669  12.442   7.081   5.736  0.1406 -0.1414  0.1668
  688loPI   GL210670  12.828   7.019   5.770 -0.2008  0.2692 -0.1736
  688loPI   C1A10671  12.567   7.191   6.155 -0.1073 -0.2068  0.0487
  688loPI   C2A10672  12.663   7.152   6.599  0.1987 -0.1829  0.2751
  688loPI   C3A10673  12.762   7.090   6.944  0.1185 -0.0685  0.2912
  688loPI   C4A10674  12.830   7.157   7.303 -0.0716  0.0850 -0.0523
  688loPI   C5A10675  12.930   7.114   7.770  0.3053  0.2476  0.0116
  688loPI   C6A10676  13.295   6.937   7.923 -0.1022 -0.2376 -0.3042
  688loPI   C1B10677  12.898   6.833   6.193 -0.1373 -0.1068  0.3140
  688loPI   C2B10678  13.105   6.825   6.556 -0.0084 -0.0587  0.1668
  688loPI   C3B10679  13.176   6.857   6.937  0.2125  0.0246  0.2971
  688loPI   C4B10680  13.236   6.826   7.388  0.0801  0.5300  0.1578
  689loPI    C110681   1.878   4.955   5.295 -0.1673 -0.1088  0.1070
  689loPI    C210682   1.820   5.276   5.062  0.2276 -0.0765  0.0470
  689loPI    C310683   1.818   4.909   4.902  0.2302 -0.0727  0.0383
  689loPI   PO410684   1.769   5.040   5.521 -0.0952  0.0074  0.0798
  689loPI   GL110685   1.886   5.161   5.943 -0.4043 -0.1171 -0.1264
  689loPI   GL210686   2.109   5.285   5.889 -0.2008  0.1371 -0.2007
  689loPI   C1A10687   1.735   5.131   6.368 -0.0089  0.1865 -0.1216
  689loPI   C2A10688   1.784   5.288   6.816  0.1052 -0.3948  0.1684
  689loPI   C3A10689   1.784   5.191   7.223 -0.1243  0.0016  0.0748
  689loPI   C4A10690   1.868   5.451   7.586 -0.2251  0.0092 -0.2116
  689loPI   C5A10691   2.050   5.360   7.949  0.1708  0.1615  0.0035
  689loPI   C6A10692   2.450   5.323   8.237 -0.0786  0.1553 -0.1416
  689loPI   C1B10693   2.446   5.287   6.129  0.0882 -0.1065  0.0262
  689loPI   C2B10694   2.507   5.581   6.635  0.0394 -0.3027 -0.1172
  689loPI   C3B10695   2.495   5.776   7.044 -0.3487 -0.0867  0.0889
  689loPI   C4B10696   2.636   5.936   7.409  0.0751  0.3326 -0.0910
  690loPI    C110697   8.035  13.453   5.596  0.3189  0.2340  0.0914
  690loPI    C210698   8.323  13.289   5.372  0.2617  0.0711  0.1352
  690loPI    C310699   8.214  13.669   5.311  0.1703 -0.0044 -0.1876
  690loPI   PO410700   8.058  13.415   5.859 -0.1225  0.0258  0.1605
  690loPI   GL110701   7.809  13.463   6.170 -0.0851  0.0704  0.1548
  690loPI   GL210702   7.557  13.711   6.281 -0.2495 -0.0881  0.2974
  690loPI   C1A10703   7.934  13.358   6.566 -0.1946  0.0962 -0.2596
  690loPI   C2A10704   8.007  13.213   6.989 -0.2239 -0.1259 -0.1549
  690loPI   C3A10705   7.934  13.234   7.397 -0.2325  0.4690  0.3379
  690loPI   C4A10706   7.722  13.363   7.836  0.2549  0.1546  0.1200
  690loPI   C5A10707   7.300  13.148   7.862 -0.0768 -0.0441  0.1618
  690loPI   C6A10708   7.287  12.724   7.857 -0.0000 -0.5129 -0.1885
  690loPI   C1B10709   7.375  13.742   6.673  0.1668  0.1759  0.2856
  690loPI   C2B10710   7.200  13.825   7.137  0.0397  0.0723  0.2046
  690loPI   C3B10711   7.342  13.921   7.484 -0.2727 -0.0711 -0.1431
  690loPI   C4B10712   7.497  13.761   7.875  0.1933  0.0952  0.1843
  691loPI    C110713   0.592  12.897   5.021 -0.0302  0.1332 -0.2934
  691loPI    C210714   0.810  12.892   4.685 -0.0333 -0.1145 -0.2941
  691loPI    C310715   0.464  12.693   4.701 -0.0304 -0.1086 -0.1415
  691loPI   PO410716   0.628  13.068   5.143 -0.1225 -0.2502 -0.0811
  691loPI   GL110717   0.804  13.232   5.605  0.0799  0.3224 -0.0697
  691loPI   GL210718   1.098  13.365   5.696 -0.1366 -0.0672 -0.1421
  691loPI   C1A10719   0.694  13.131   6.005 -0.0565  0.0929  0.1289
  691loPI   C2A10720   0.520  13.018   6.436  0.0119  0.0721  0.1718
  691loPI   C3A10721   0.512  12.990   6.898 -0.0136  0.0758 -0.1515
  691loPI   C4A10722   0.524  12.992   7.349  0.1484 -0.0220 -0.2376
  691loPI   C5A10723   0.606  12.831   7.752 -0.0700 -0.0849 -0.1587
  691loPI   C6A10724   0.549  12.750   8.104 -0.2088  0.1416  0.0071
  691loPI   C1B10725   0.825  13.601   5.904  0.0920  0.2389  0.1298
  691loPI   C2B10726   0.756  13.513   6.290  0.0013 -0.3783 -0.3607
  691loPI   C3B10727   0.697  13.460   6.746 -0.0635 -0.2383  0.0406
  691loPI   C4B10728   0.599  13.468   7.154 -0.1037 -0.0576  0.1365
  692loPI    C110729  14.565   9.322   5.124  0.1287 -0.2822 -0.2006
  692loPI    C210730  14.211   9.185   4.998 -0.1337  0.2783 -0.1034
  692loPI    C310731  14.533   9.154   4.762 -0.2468 -0.2093 -0.2047
  692loPI   PO410732  14.558   9.195   5.392 -0.3671 -0.1371  0.1730
  692loPI   GL110733  14.841   9.350   5.631  0.2228  0.2373 -0.1158
  692loPI   GL210734  14.704   9.633   5.687  0.1149  0.2416 -0.0767
  692loPI   C1A10735  14.997   9.257   6.008 -0.2369 -0.0879 -0.0782
  692loPI   C2A10736  15.110   9.394   6.382 -0.2566  0.2292 -0.1678
  692loPI   C3A10737  15.043   9.412   6.783  0.0680  0.0760 -0.2153
  692loPI   C4A10738  14.981   9.359   7.183 -0.0496  0.0730 -0.0501
  692loPI   C5A10739  14.985   9.315   7.585 -0.2925 -0.1510  0.4015
  692loPI   C6A10740  15.122   9.506   7.886  0.0270  0.1461 -0.1232
  692loPI   C1B10741  14.718   9.662   6.047  0.1832 -0.1097  0.2677
  692loPI   C2B10742  14.760   9.775   6.474  0.1411  0.4569 -0.1950
  692loPI   C3B10743  14.586   9.692   6.924 -0.0001  0.0590  0.0177
  692loPI   C4B10744  14.629   9.678   7.309  0.2524  0.2440 -0.0343
  693loPI    C110745   1.650  11.639   4.874  0.1940  0.0160 -0.3551
  693loPI    C210746   1.587  11.297   4.676  0.1885 -0.0605 -0.2228
  693loPI    C310747   1.477  11.646   4.514  0.1354 -0.1268 -0.3303
  693loPI   PO410748   1.577  11.649   5.053 -0.0471 -0.3447  0.0070
  693loPI   GL110749   1.369  11.495   5.450  0.5219 -0.2530  0.2108
  693loPI   GL210750   1.242  11.245   5.638 -0.0335 -0.1529  0.1678
  693loPI   C1A10751   1.659  11.368   5.822 -0.1210 -0.0359 -0.1336
  693loPI   C2A10752   1.661  11.419   6.288 -0.1219  0.4519  0.0857
  693loPI   C3A10753   1.738  11.514   6.777  0.3142 -0.0469 -0.0839
  693loPI   C4A10754   1.669  11.525   7.156  0.1074  0.0764  0.0441
  693loPI   C5A10755   1.606  11.629   7.584  0.1005  0.0923  0.0605
  693loPI   C6A10756   1.529  11.659   7.932  0.1571 -0.0192  0.1004
  693loPI   C1B10757   1.210  11.294   6.075  0.0516  0.1635  0.2442
  693loPI   C2B10758   1.126  11.306   6.462 -0.0076 -0.0444 -0.3133
  693loPI   C3B10759   1.198  11.325   6.867  0.0280 -0.2372  0.0795
  693loPI   C4B10760   1.225  11.357   7.342 -0.0497  0.1852 -0.1767
  694loPI    C110761  17.338   8.179   4.814  0.1184  0.0408 -0.0416
  694loPI    C210762  17.579   8.239   4.500 -0.0322  0.2905 -0.1122
  694loPI    C310763  17.188   8.173   4.443  0.0234 -0.1691 -0.0012
  694loPI   PO410764  17.472   8.094   4.988  0.0066  0.0929 -0.2053
  694loPI   GL110765  17.380   7.998   5.433 -0.1423  0.0306  0.0325
  694loPI   GL210766  17.531   7.721   5.434  0.2502  0.4315 -0.2904
  694loPI   C1A10767  17.137   8.084   5.786  0.0296  0.0217  0.0644
  694loPI   C2A10768  17.084   8.162   6.220 -0.2117 -0.1778 -0.1925
  694loPI   C3A10769  17.099   8.204   6.692 -0.0172  0.2743  0.0550
  694loPI   C4A10770  17.111   8.207   7.122  0.0252 -0.1922 -0.2793
  694loPI   C5A10771  17.196   8.017   7.597 -0.1297 -0.0283 -0.2415
  694loPI   C6A10772  17.048   8.099   7.928 -0.0055  0.3321  0.1983
  694loPI   C1B10773  17.555   7.743   5.827  0.0459  0.2014 -0.2142
  694loPI   C2B10774  17.525   7.784   6.276  0.0702  0.5243 -0.3888
  694loPI   C3B10775  17.550   7.880   6.772 -0.1844 -0.0609  0.1005
  694loPI   C4B10776  17.474   7.837   7.223  0.0044 -0.4694 -0.0379
  695loPI    C110777   9.114  18.048   5.118 -0.1200 -0.2292  0.2389
  695loPI    C210778   9.369  17.811   4.922  0.0510 -0.0232  0.2080
  695loPI    C310779   8.978  17.727   4.922  0.0587 -0.0775 -0.1443
  695loPI   PO410780   9.193  18.048   5.346  0.2439 -0.0105 -0.1853
  695loPI   GL110781   9.006  18.056   5.716 -0.0557 -0.0117 -0.1849
  695loPI   GL210782   9.237  18.160   5.863 -0.0169  0.0001  0.4792
  695loPI   C1A10783   8.779  17.937   6.012 -0.3196 -0.0523 -0.1466
  695loPI   C2A10784   8.852  17.778   6.408  0.1054 -0.1241 -0.1293
  695loPI   C3A10785   8.912  17.610   6.804  0.2540 -0.0397  0.0835
  695loPI   C4A10786   9.055  17.555   7.242 -0.1580 -0.0844 -0.2734
  695loPI   C5A10787   9.096  17.328   7.584 -0.2404 -0.0753  0.1863
  695loPI   C6A10788   9.286  17.456   8.055 -0.0116  0.0008 -0.2118
  695loPI   C1B10789   9.217  18.017   6.197  0.1399  0.1773 -0.2389
  695loPI   C2B10790   9.369  17.815   6.597  0.2332  0.0174 -0.0765
  695loPI   C3B10791   9.521  17.783   6.944 -0.1840  0.2231 -0.1984
  695loPI   C4B10792   9.666  17.613   7.116  0.2962 -0.2356  0.0148
  696loPI    C110793  15.814  13.157   5.128 -0.1658 -0.1619  0.1752
  696loPI    C210794  16.214  13.167   5.115 -0.1706 -0.0626  0.0899
  696loPI    C310795  16.005  13.070   4.788 -0.2208  0.0469  0.0893
  696loPI   PO410796  15.695  13.376   5.227 -0.1127 -0.1357  0.1938
  696loPI   GL110797  15.689  13.308   5.639  0.4027  0.0218  0.0009
  696loPI   GL210798  15.998  13.412   5.683  0.0846  0.3050 -0.0401
  696loPI   C1A10799  15.555  13.705   5.973 -0.0560 -0.2665 -0.0269
  696loPI   C2A10800  15.448  13.711   6.419 -0.3341  0.1250 -0.0246
  696loPI   C3A10801  15.434  13.824   6.839  0.0593 -0.2291  0.0439
  696loPI   C4A10802  15.502  13.880   7.193  0.0263  0.2740 -0.1932
  696loPI   C5A10803  15.437  13.683   7.552 -0.0996 -0.0607  0.2054
  696loPI   C6A10804  15.297  13.308   7.759 -0.2680  0.1018  0.0034
  696loPI   C1B10805  15.922  13.398   6.151  0.1356 -0.1807  0.1180
  696loPI   C2B10806  15.794  13.403   6.622  0.4702 -0.1615  0.2560
  696loPI   C3B10807  15.815  13.461   7.054  0.2693  0.0326 -0.2133
  696loPI   C4B10808  15.884  13.305   7.465 -0.0733  0.0301  0.3090
  697loPI    C110809  12.617   5.194   5.425  0.3069  0.1304 -0.0730
  697loPI    C210810  12.464   5.172   5.056  0.0432 -0.0527  0.0438
  697loPI    C310811  12.692   5.484   5.160  0.1587 -0.0227 -0.2862
  697loPI   PO410812  12.710   4.918   5.425 -0.1538 -0.0097  0.0994
  697loPI   GL110813  12.816   4.675   5.825  0.0605 -0.2347 -0.1018
  697loPI   GL210814  13.072   4.847   5.806  0.1330  0.1493 -0.1542
  697loPI   C1A10815  12.804   4.540   6.212 -0.3307 -0.2343 -0.0575
  697loPI   C2A10816  12.669   4.225   6.467  0.0442 -0.1409  0.2383
  697loPI   C3A10817  12.456   4.203   6.827  0.1657 -0.1591  0.0054
  697loPI   C4A10818  12.421   3.960   7.248  0.1126  0.0496  0.1257
  697loPI   C5A10819  12.439   4.031   7.703 -0.0744 -0.1617  0.2512
  697loPI   C6A10820  12.706   4.130   7.978  0.0586 -0.0076  0.0508
  697loPI   C1B10821  13.162   4.948   6.150  0.2062 -0.4247  0.0630
  697loPI   C2B10822  12.978   4.868   6.515  0.0105 -0.3731  0.3848
  697loPI   C3B10823  12.707   4.812   6.778 -0.0596 -0.4313 -0.0781
  697loPI   C4B10824  12.558   4.593   7.160  0.1625 -0.1093 -0.2058
  698loPI    C110825  12.146  11.841   4.604  0.1752  0.2104  0.0062
  698loPI    C210826  12.184  12.101   4.302  0.0561 -0.0199 -0.2117
  698loPI    C310827  11.926  11.797   4.272  0.0012 -0.0134  0.1479
  698loPI   PO410828  12.011  11.971   4.907  0.1494  0.1197  0.4614
  698loPI   GL110829  12.030  11.761   5.309 -0.1771  0.0162 -0.0848
  698loPI   GL210830  12.218  11.746   5.526 -0.0491 -0.3620  0.1992
  698loPI   C1A10831  11.748  11.806   5.728  0.0191 -0.1998  0.0261
  698loPI   C2A10832  11.812  11.678   6.198  0.4093 -0.1057  0.3487
  698loPI   C3A10833  11.732  11.639   6.535 -0.1701 -0.1598  0.1245
  698loPI   C4A10834  11.852  11.507   6.917 -0.1312 -0.1751  0.2468
  698loPI   C5A10835  11.825  11.475   7.296  0.3639 -0.3021  0.3506
  698loPI   C6A10836  11.423  11.411   7.656 -0.1121  0.3222  0.1083
  698loPI   C1B10837  12.327  11.757   5.977 -0.3645 -0.0311  0.0291
  698loPI   C2B10838  12.279  11.770   6.517  0.2190  0.1421  0.1961
  698loPI   C3B10839  12.366  11.638   6.948  0.0583 -0.2136  0.1677
  698loPI   C4B10840  12.315  11.651   7.389 -0.0344  0.1986 -0.0745
  699loPI    C110841   9.497   5.955   5.519  0.0283 -0.0341  0.0802
  699loPI    C210842   9.828   5.950   5.295  0.3075 -0.1459  0.4840
  699loPI    C310843   9.655   6.299   5.389  0.0725 -0.1062 -0.0583
  699loPI   PO410844   9.333   5.806   5.491 -0.2861  0.0500  0.0236
  699loPI   GL110845   9.043   5.874   5.749  0.4031  0.0020  0.2081
  699loPI   GL210846   9.122   5.520   5.865 -0.0689 -0.0357  0.0161
  699loPI   C1A10847   9.200   6.007   6.132  0.1151 -0.2085  0.0206
  699loPI   C2A10848   9.255   6.011   6.642 -0.0398  0.0986 -0.3448
  699loPI   C3A10849   9.367   6.006   7.017  0.2637 -0.1130 -0.2751
  699loPI   C4A10850   9.259   6.007   7.439 -0.0440  0.0243  0.0393
  699loPI   C5A10851   9.307   5.730   7.828  0.1499 -0.0938  0.1060
  699loPI   C6A10852   9.433   5.383   7.953 -0.1001  0.1900  0.1059
  699loPI   C1B10853   9.059   5.534   6.285 -0.3661  0.3497  0.2018
  699loPI   C2B10854   9.005   5.519   6.693 -0.2760  0.0208 -0.0153
  699loPI   C3B10855   9.182   5.526   7.078 -0.0906 -0.0629  0.0447
  699loPI   C4B10856   9.264   5.420   7.477  0.0119 -0.0771  0.3452
  700loPI    C110857  13.217  15.376   5.782 -0.2260  0.1417 -0.0753
  700loPI    C210858  13.290  15.417   5.391  0.2082 -0.1182 -0.0292
  700loPI    C310859  13.099  15.093   5.525  0.0890 -0.0451 -0.0200
  700loPI   PO410860  13.432  15.498   5.867  0.2968 -0.0864  0.0463
  700loPI   GL110861  13.759  15.534   6.048 -0.0654  0.1951 -0.0953
  700loPI   GL210862  14.010  15.480   6.125  0.1193 -0.0133 -0.2837
  700loPI   C1A10863  13.724  15.334   6.468  0.1879  0.1716 -0.0252
  700loPI   C2A10864  13.865  15.180   6.728  0.0404  0.1412  0.3345
  700loPI   C3A10865  13.651  15.182   7.046 -0.1878  0.0749 -0.0451
  700loPI   C4A10866  13.455  14.978   7.278  0.4865 -0.1391 -0.2148
  700loPI   C5A10867  13.178  14.622   7.604 -0.1865 -0.0813 -0.0463
  700loPI   C6A10868  12.883  14.337   7.770 -0.1198 -0.2485  0.0854
  700loPI   C1B10869  14.304  15.471   6.455  0.2180  0.1597 -0.1436
  700loPI   C2B10870  14.321  15.397   6.939  0.2200  0.1517  0.0417
  700loPI   C3B10871  14.127  15.226   7.343 -0.2404 -0.2744  0.0720
  700loPI   C4B10872  13.889  15.007   7.759  0.2611  0.2461 -0.1273
  701loPI    C110873  15.718   5.170   4.862  0.0100 -0.1269  0.3354
  701loPI    C210874  15.557   4.823   4.745 -0.0276 -0.0582  0.1802
  701loPI    C310875  15.447   5.164   4.568  0.1882  0.0055  0.1656
  701loPI   PO410876  15.898   5.054   5.067  0.1091 -0.2057 -0.0198
  701loPI   GL110877  16.114   5.058   5.465 -0.3368  0.2634  0.1291
  701loPI   GL210878  16.427   5.125   5.580 -0.2045 -0.1925  0.0748
  701loPI   C1A10879  15.925   5.061   5.888  0.0603 -0.0340 -0.0689
  701loPI   C2A10880  15.858   4.948   6.287  0.0339  0.3706 -0.0011
  701loPI   C3A10881  15.934   4.853   6.726  0.1092  0.3320  0.1665
  701loPI   C4A10882  16.030   4.951   7.189 -0.0709  0.1952  0.0761
  701loPI   C5A10883  15.872   4.529   7.486  0.1787  0.1037  0.4091
  701loPI   C6A10884  15.895   4.118   7.744  0.0897 -0.0589 -0.0457
  701loPI   C1B10885  16.351   5.017   6.109 -0.2642  0.0425 -0.0475
  701loPI   C2B10886  16.351   5.102   6.480  0.1757 -0.0516  0.1251
  701loPI   C3B10887  16.419   5.068   6.867 -0.1050  0.2102  0.1687
  701loPI   C4B10888  16.579   5.178   7.230  0.0318  0.1566  0.0006
  702loPI    C110889   0.924   2.503   5.091  0.0646  0.1713  0.3299
  702loPI    C210890   1.244   2.744   5.095  0.0544  0.1957 -0.0453
  702loPI    C310891   0.967   2.783   4.808 -0.0265 -0.1605 -0.0194
  702loPI   PO410892   0.863   2.548   5.372 -0.3911  0.2469  0.0551
  702loPI   GL110893   0.635   2.490   5.729  0.0429  0.0481 -0.2790
  702loPI   GL210894   0.927   2.218   5.829  0.2170 -0.0917 -0.0616
  702loPI   C1A10895   0.667   2.558   6.118 -0.0747  0.2454 -0.2534
  702loPI   C2A10896   0.702   2.670   6.540  0.0573  0.1200 -0.0337
  702loPI   C3A10897   0.758   2.643   6.912 -0.2126  0.0062  0.0190
  702loPI   C4A10898   0.872   2.562   7.387 -0.0571 -0.0009 -0.0674
  702loPI   C5A10899   1.164   2.430   7.670 -0.1424 -0.1534 -0.1760
  702loPI   C6A10900   1.092   2.100   7.927 -0.0880 -0.1593 -0.0359
  702loPI   C1B10901   0.798   2.130   6.269  0.1890  0.1666  0.1212
  702loPI   C2B10902   0.553   2.062   6.689 -0.4522  0.0334 -0.0779
  702loPI   C3B10903   0.616   2.088   7.076 -0.0685  0.0536 -0.1121
  702loPI   C4B10904   0.876   2.007   7.414 -0.0179 -0.3725 -0.1873
  703loPI    C110905  16.691   2.824   4.672  0.0236  0.1196  0.0084
  703loPI    C210906  16.595   2.450   4.565 -0.2638  0.1720  0.0753
  703loPI    C310907  16.421   2.761   4.383 -0.0804  0.2731  0.0710
  703loPI   PO410908  16.791   2.719   4.979  0.0187 -0.1401  0.1050
  703loPI   GL110909  16.636   2.744   5.500  0.0717  0.1019  0.4059
  703loPI   GL210910  16.597   2.432   5.507 -0.0940  0.0062  0.1450
  703loPI   C1A10911  16.801   2.913   5.863  0.2712 -0.0383 -0.1367
  703loPI   C2A10912  16.882   2.915   6.270 -0.0059  0.1642  0.0543
  703loPI   C3A10913  16.885   2.894   6.670 -0.0637 -0.1132 -0.0646
  703loPI   C4A10914  16.957   2.976   7.099  0.2356  0.0998  0.1288
  703loPI   C5A10915  16.932   2.992   7.524  0.0912  0.1031 -0.1349
  703loPI   C6A10916  17.073   3.024   7.974  0.0930 -0.1740  0.0480
  703loPI   C1B10917  16.673   2.422   5.971  0.1020  0.1693  0.1737
  703loPI   C2B10918  16.765   2.468   6.370  0.0297  0.3010  0.3260
  703loPI   C3B10919  16.861   2.364   6.750 -0.0440 -0.2075  0.0630
  703loPI   C4B10920  16.831   2.457   7.162 -0.0134 -0.0144 -0.1014
  704loPI    C110921  12.472  10.357   5.016 -0.0630 -0.0839 -0.0639
  704loPI    C210922  12.191  10.300   5.294 -0.1828  0.1716 -0.1292
  704loPI    C310923  12.252  10.665   5.145  0.0200  0.0732 -0.2915
  704loPI   PO410924  12.709  10.337   5.064 -0.1563  0.0559  0.1528
  704loPI   GL110925  12.832  10.487   5.414 -0.1885  0.3990  0.1901
  704loPI   GL210926  12.561  10.565   5.500 -0.0159 -0.1680  0.1263
  704loPI   C1A10927  13.022  10.640   5.754 -0.0361 -0.0165 -0.0450
  704loPI   C2A10928  12.986  10.678   6.229 -0.2728 -0.1391  0.2766
  704loPI   C3A10929  12.966  10.423   6.671  0.0852 -0.1097 -0.1454
  704loPI   C4A10930  13.197  10.185   6.972  0.2916 -0.1394  0.0938
  704loPI   C5A10931  13.430   9.966   7.338  0.3578 -0.0713 -0.0160
  704loPI   C6A10932  13.406   9.882   7.822  0.3598  0.0946  0.3229
  704loPI   C1B10933  12.563  10.450   5.828  0.0391  0.3344 -0.1610
  704loPI   C2B10934  12.564  10.410   6.289 -0.0754  0.0517  0.1443
  704loPI   C3B10935  12.499  10.308   6.679  0.0223  0.0110 -0.1874
  704loPI   C4B10936  12.635  10.205   7.144 -0.1744 -0.0921  0.0664
  705loPI    C110937  12.737   3.462   5.294 -0.0636 -0.1334  0.0863
  705loPI    C210938  13.000   3.398   5.000 -0.1895 -0.1755 -0.0180
  705loPI    C310939  12.608   3.380   4.925 -0.2252  0.1433  0.0787
  705loPI   PO410940  12.870   3.396   5.563 -0.0821  0.2251 -0.1730
  705loPI   GL110941  12.902   3.486   5.991  0.2330 -0.1511  0.2158
  705loPI   GL210942  12.663   3.700   6.077 -0.0827 -0.0933 -0.1844
  705loPI   C1A10943  12.877   3.409   6.462  0.1967 -0.2081 -0.0967
  705loPI   C2A10944  12.685   3.311   6.922 -0.1349  0.0237 -0.0666
  705loPI   C3A10945  12.420   3.357   7.248  0.0900  0.1062  0.0468
  705loPI   C4A10946  12.120   3.578   7.570 -0.0535  0.0942 -0.1918
  705loPI   C5A10947  11.875   3.771   7.890 -0.1054  0.0640 -0.0097
  705loPI   C6A10948  11.734   3.859   8.333 -0.0935  0.1279 -0.4293
  705loPI   C1B10949  12.463   3.734   6.422 -0.2134 -0.1220  0.0181
  705loPI   C2B10950  12.245   3.627   6.793 -0.5678  0.2005 -0.0320
  705loPI   C3B10951  11.835   3.619   7.109  0.1323  0.1605 -0.2106
  705loPI   C4B10952  11.596   3.678   7.457  0.0446  0.0449  0.0271
  706loPI    C110953   2.680   8.010   4.784 -0.0334 -0.0448 -0.0431
  706loPI    C210954   2.986   8.141   4.563  0.0440 -0.2096 -0.0355
  706loPI    C310955   2.610   8.231   4.458  0.0971  0.0746  0.0091
  706loPI   PO410956   2.737   8.068   5.005 -0.1217 -0.1194 -0.1116
  706loPI   GL110957   2.834   7.842   5.412 -0.2476  0.2270 -0.0417
  706loPI   GL210958   3.144   8.058   5.380  0.0073 -0.0528  0.1842
  706loPI   C1A10959   2.834   8.256   5.659 -0.0739 -0.3434  0.0809
  706loPI   C2A10960   2.791   8.256   6.127 -0.2064 -0.2565 -0.0368
  706loPI   C3A10961   2.746   8.397   6.516  0.0747 -0.1867 -0.1451
  706loPI   C4A10962   2.597   8.422   6.962 -0.0377 -0.0238 -0.0446
  706loPI   C5A10963   2.483   8.526   7.311 -0.1858 -0.0123  0.2271
  706loPI   C6A10964   2.349   8.647   7.710 -0.1498  0.1700  0.2146
  706loPI   C1B10965   3.082   7.815   5.799  0.0030 -0.1304  0.4226
  706loPI   C2B10966   3.057   7.771   6.236 -0.2208 -0.1154  0.1291
  706loPI   C3B10967   2.945   7.959   6.614 -0.3091  0.1078  0.0386
  706loPI   C4B10968   2.958   8.141   7.044 -0.1749  0.0234 -0.0364
  707loPI    C110969   6.156  12.396   5.295 -0.1295  0.3350 -0.1269
  707loPI    C210970   6.473  12.623   5.382  0.1344 -0.0926  0.0601
  707loPI    C310971   6.424  12.483   5.011 -0.1553  0.4498 -0.1161
  707loPI   PO410972   6.120  12.252   5.551 -0.0910  0.2518 -0.0530
  707loPI   GL110973   5.771  11.958   5.803  0.0554 -0.2139 -0.2967
  707loPI   GL210974   5.467  12.083   5.894 -0.0056 -0.0456  0.0410
  707loPI   C1A10975   5.866  12.117   6.187  0.0776  0.0855  0.2339
  707loPI   C2A10976   6.035  12.165   6.603 -0.2109  0.0185 -0.0552
  707loPI   C3A10977   5.933  12.144   6.981 -0.1907  0.0944 -0.0069
  707loPI   C4A10978   5.791  12.131   7.411  0.0320  0.0538 -0.0479
  707loPI   C5A10979   5.321  12.215   7.551 -0.3412  0.1867 -0.3377
  707loPI   C6A10980   5.199  12.568   7.834 -0.0970 -0.1620  0.2226
  707loPI   C1B10981   5.265  12.392   6.150 -0.2883 -0.2492  0.1341
  707loPI   C2B10982   5.082  12.429   6.541  0.1182 -0.1494  0.2506
  707loPI   C3B10983   4.943  12.300   6.802 -0.0404  0.0760 -0.2681
  707loPI   C4B10984   5.009  12.152   7.244 -0.0480  0.1089  0.2403
  708loPI    C110985  12.535  11.965   5.114 -0.0731 -0.0378  0.0314
  708loPI    C210986  12.499  12.205   4.796  0.0595 -0.2567 -0.1522
  708loPI    C310987  12.846  12.020   4.869  0.1396  0.0618  0.3188
  708loPI   PO410988  12.431  12.127   5.278  0.3409 -0.0996 -0.0862
  708loPI   GL110989  12.577  12.140   5.611  0.3299 -0.2418 -0.0643
  708loPI   GL210990  12.375  12.321   5.906 -0.0525 -0.1920 -0.1086
  708loPI   C1A10991  12.835  11.929   5.954  0.0751 -0.1079 -0.1794
  708loPI   C2A10992  12.732  11.881   6.482  0.0334  0.2643 -0.0292
  708loPI   C3A10993  12.816  11.836   6.878 -0.0064 -0.1031 -0.1252
  708loPI   C4A10994  12.764  11.753   7.279  0.0151  0.2316 -0.1970
  708loPI   C5A10995  12.915  11.752   7.662  0.0480  0.0834  0.0181
  708loPI   C6A10996  12.815  11.908   8.043  0.1019 -0.2015 -0.0564
  708loPI   C1B10997  12.382  12.283   6.431 -0.3049 -0.2463 -0.4694
  708loPI   C2B10998  12.482  12.163   6.846  0.0944 -0.0361 -0.1259
  708loPI   C3B10999  12.436  12.105   7.239 -0.0368  0.0280 -0.0486
  708loPI   C4B11000  12.487  12.023   7.672  0.4650 -0.1654 -0.0566
  709loPI    C111001   3.051  11.466   4.865  0.2312  0.1532  0.0376
  709loPI    C211002   3.189  11.169   4.635  0.3665  0.1603  0.1083
  709loPI    C311003   2.877  11.388   4.513  0.1590 -0.1169  0.1313
  709loPI   PO411004   3.086  11.287   5.135  0.0167  0.0495  0.1130
  709loPI   GL111005   3.428  11.243   5.557  0.4601  0.0302 -0.5168
  709loPI   GL211006   3.731  11.345   5.609 -0.2151 -0.1626  0.0817
  709loPI   C1A11007   3.221  11.016   5.948  0.2563 -0.0080 -0.3253
  709loPI   C2A11008   3.210  10.963   6.373 -0.2889 -0.0749  0.1677
  709loPI   C3A11009   2.963  10.888   6.779 -0.1354  0.1223  0.0705
  709loPI   C4A11010   2.986  10.954   7.233  0.2579 -0.1130 -0.2395
  709loPI   C5A11011   3.005  10.731   7.671  0.0114 -0.0776  0.1116
  709loPI   C6A11012   3.097  10.666   8.046  0.0499  0.0601 -0.1058
  709loPI   C1B11013   3.615  11.323   6.049  0.0680  0.1426 -0.1065
  709loPI   C2B11014   3.579  11.385   6.443 -0.0272  0.0304 -0.3659
  709loPI   C3B11015   3.577  11.562   6.858 -0.1779 -0.1685  0.0881
  709loPI   C4B11016   3.571  11.730   7.233  0.0804 -0.1824  0.1996
  710loPI    C111017  14.712  13.332   5.389  0.0543 -0.0180 -0.1031
  710loPI    C211018  14.388  13.100   5.357 -0.2061  0.3313 -0.0519
  710loPI    C311019  14.664  13.098   5.068 -0.2088 -0.0315 -0.0562
  710loPI   PO411020  14.626  13.575   5.441  0.1489 -0.0520  0.2121
  710loPI   GL111021  14.618  13.748   5.849  0.1703 -0.1908 -0.1280
  710loPI   GL211022  14.770  13.421   5.888  0.5114  0.0683  0.2639
  710loPI   C1A11023  14.320  13.527   6.204 -0.3029  0.0122 -0.0576
  710loPI   C2A11024  14.403  13.452   6.576 -0.1590  0.0091 -0.0205
  710loPI   C3A11025  14.529  13.398   7.063  0.0556 -0.0425  0.0324
  710loPI   C4A11026  14.518  13.312   7.496 -0.0467  0.0809  0.1298
  710loPI   C5A11027  14.736  13.301   7.946 -0.0272 -0.1733 -0.1303
  710loPI   C6A11028  14.968  13.271   8.363  0.0759  0.1359  0.1663
  710loPI   C1B11029  14.981  13.577   6.247 -0.0097 -0.1070 -0.1313
  710loPI   C2B11030  14.914  13.623   6.734  0.1006  0.0524 -0.0433
  710loPI   C3B11031  15.041  13.574   7.158 -0.1151 -0.1842  0.3083
  710loPI   C4B11032  14.939  13.581   7.526 -0.1640 -0.0694 -0.2387
  711loPI    C111033  13.931  13.800   5.259  0.2005  0.1454  0.2245
  711loPI    C211034  14.210  13.550   5.118  0.0346  0.0672  0.0297
  711loPI    C311035  14.286  13.943   5.141  0.1102  0.0645 -0.1568
  711loPI   PO411036  13.743  13.646   5.416  0.2715  0.1343  0.0495
  711loPI   GL111037  13.496  13.492   5.702 -0.1258 -0.2254 -0.2942
  711loPI   GL211038  13.790  13.581   5.902  0.2169 -0.0836  0.0489
  711loPI   C1A11039  13.447  13.217   6.040  0.1567  0.0124 -0.0227
  711loPI   C2A11040  13.521  13.107   6.393 -0.1185  0.1880  0.0166
  711loPI   C3A11041  13.592  13.058   6.876  0.1166  0.0709 -0.0292
  711loPI   C4A11042  13.434  13.100   7.335 -0.1713  0.2007 -0.0149
  711loPI   C5A11043  13.543  13.106   7.798 -0.0541 -0.0147 -0.0046
  711loPI   C6A11044  13.681  13.434   8.130 -0.0590 -0.2038  0.0214
  711loPI   C1B11045  13.718  13.610   6.314  0.2382  0.0132 -0.1617
  711loPI   C2B11046  13.553  13.547   6.725 -0.2598 -0.1509 -0.2214
  711loPI   C3B11047  13.616  13.590   7.143  0.1175  0.1535  0.1436
  711loPI   C4B11048  13.587  13.619   7.690 -0.2590  0.2373 -0.0730
  712loPI    C111049   7.875   1.145   5.433 -0.2025 -0.3400 -0.0632
  712loPI    C211050   7.908   1.398   5.124  0.0303 -0.1498  0.1135
  712loPI    C311051   8.098   1.045   5.116  0.0847 -0.1197  0.0643
  712loPI   PO411052   7.935   1.282   5.653 -0.0344  0.1505  0.0422
  712loPI   GL111053   8.066   1.163   6.134 -0.2912  0.0418 -0.0435
  712loPI   GL211054   8.286   0.906   6.057 -0.1504  0.1760 -0.0194
  712loPI   C1A11055   7.977   1.346   6.501 -0.3131 -0.1903  0.2205
  712loPI   C2A11056   7.912   1.326   6.909 -0.1800  0.4631  0.0640
  712loPI   C3A11057   8.049   1.218   7.230  0.0021 -0.0952 -0.0291
  712loPI   C4A11058   7.953   1.282   7.676 -0.0394 -0.1398 -0.0156
  712loPI   C5A11059   7.630   1.350   8.015  0.1958 -0.0687 -0.0763
  712loPI   C6A11060   7.302   1.406   8.342  0.1120  0.2318  0.1107
  712loPI   C1B11061   8.502   0.878   6.397 -0.1444 -0.3319  0.3446
  712loPI   C2B11062   8.372   1.026   6.727  0.2462  0.2899 -0.0628
  712loPI   C3B11063   8.556   1.122   7.056  0.1309  0.2596  0.0686
  712loPI   C4B11064   8.460   0.864   7.345  0.1275  0.1215  0.0138
  713loPI    C111065  17.275   7.650   4.979 -0.4118  0.1671 -0.0745
  713loPI    C211066  17.120   7.434   4.679 -0.1018  0.1784 -0.2474
  713loPI    C311067  17.370   7.737   4.600  0.0482  0.1301  0.0253
  713loPI   PO411068  17.369   7.417   5.101 -0.1889 -0.2004  0.1651
  713loPI   GL111069  17.074   7.139   5.346  0.1783  0.0263  0.3603
  713loPI   GL211070  17.312   7.172   5.559 -0.0012  0.4544 -0.1046
  713loPI   C1A11071  16.898   7.090   5.812  0.3130 -0.0901  0.0168
  713loPI   C2A11072  16.975   7.138   6.222 -0.4275 -0.1162 -0.0913
  713loPI   C3A11073  16.951   7.168   6.675  0.1102  0.1249 -0.1233
  713loPI   C4A11074  17.057   7.190   7.029  0.1199  0.1973 -0.1749
  713loPI   C5A11075  17.119   7.504   7.439 -0.0307 -0.0075 -0.0753
  713loPI   C6A11076  17.452   7.591   7.644 -0.3041 -0.1109  0.1379
  713loPI   C1B11077  17.395   7.317   5.906 -0.1042 -0.1920 -0.3750
  713loPI   C2B11078  17.419   7.268   6.358 -0.0418 -0.2061 -0.2618
  713loPI   C3B11079  17.496   7.233   6.731  0.4808  0.0429 -0.0847
  713loPI   C4B11080  17.517   7.331   7.199 -0.0566  0.2111 -0.0063
  714loPI    C111081   9.280  13.108   4.854 -0.0370 -0.1822 -0.2155
  714loPI    C211082   9.473  13.458   4.824 -0.1473 -0.1004  0.0083
  714loPI    C311083   9.562  13.158   4.575  0.0828  0.0233 -0.0606
  714loPI   PO411084   9.379  13.009   5.110 -0.1327 -0.2361  0.3794
  714loPI   GL111085   9.206  12.871   5.489 -0.4694  0.0140 -0.0452
  714loPI   GL211086   8.966  12.801   5.649  0.3019  0.3836  0.3255
  714loPI   C1A11087   9.345  12.979   5.954  0.0166 -0.1186  0.0097
  714loPI   C2A11088   9.332  13.023   6.439 -0.0881  0.0219  0.1549
  714loPI   C3A11089   9.134  13.071   6.892 -0.0194  0.1201 -0.0507
  714loPI   C4A11090   9.169  12.962   7.394  0.1698  0.1650  0.0705
  714loPI   C5A11091   9.263  12.782   7.819 -0.0286  0.1792  0.1390
  714loPI   C6A11092   9.286  12.999   8.185  0.0125 -0.1981 -0.2029
  714loPI   C1B11093   8.934  12.762   6.046  0.5205  0.0142  0.0816
  714loPI   C2B11094   8.804  12.763   6.454 -0.1748 -0.2516 -0.1671
  714loPI   C3B11095   8.771  12.713   6.856  0.0745 -0.3750 -0.1252
  714loPI   C4B11096   8.625  12.579   7.308 -0.0714 -0.0285  0.0375
  715loPI    C111097   3.332  14.137   5.197 -0.2515 -0.1208 -0.0539
  715loPI    C211098   3.033  14.344   5.030 -0.0525  0.2330  0.0184
  715loPI    C311099   3.407  14.486   5.018  0.0805 -0.0960  0.1245
  715loPI   PO411100   3.234  14.054   5.364 -0.3312  0.2337  0.1760
  715loPI   GL111101   3.354  14.063   5.742  0.2265  0.2410  0.1175
  715loPI   GL211102   3.362  13.791   5.804 -0.2007 -0.0631  0.0199
  715loPI   C1A11103   3.140  13.984   6.187 -0.0283  0.1467  0.4282
  715loPI   C2A11104   2.910  13.895   6.634  0.0341  0.0977 -0.2465
  715loPI   C3A11105   2.894  13.969   7.055 -0.3518  0.2602 -0.1917
  715loPI   C4A11106   2.859  14.061   7.457  0.1068  0.0062  0.0760
  715loPI   C5A11107   3.104  14.138   7.887  0.2713  0.1997 -0.1529
  715loPI   C6A11108   3.290  13.973   8.295  0.2932  0.1794 -0.2149
  715loPI   C1B11109   3.552  13.607   6.121 -0.0754 -0.2472  0.0612
  715loPI   C2B11110   3.882  13.528   6.417  0.2646  0.1688  0.0346
  715loPI   C3B11111   3.751  13.556   6.814  0.4571 -0.1235  0.4143
  715loPI   C4B11112   3.461  13.425   7.177  0.3301  0.0215 -0.2000
  716loPI    C111113   8.528   0.201   5.356 -0.2163  0.1412  0.0610
  716loPI    C211114   8.268  -0.069   5.217 -0.1706 -0.0373  0.3152
  716loPI    C311115   8.623  -0.187   5.358  0.0089  0.1946  0.0690
  716loPI   PO411116   8.392   0.324   5.524  0.0512 -0.1382 -0.0759
  716loPI   GL111117   8.213   0.384   5.915  0.0319 -0.1122  0.2090
  716loPI   GL211118   8.018   0.197   5.927 -0.2427 -0.0871 -0.2706
  716loPI   C1A11119   8.463   0.225   6.241  0.1429 -0.0982 -0.2508
  716loPI   C2A11120   8.628   0.099   6.655 -0.2281  0.1641 -0.0450
  716loPI   C3A11121   8.760   0.036   7.146  0.2233  0.0788 -0.0123
  716loPI   C4A11122   8.833  -0.196   7.542 -0.1679  0.1327  0.1126
  716loPI   C5A11123   8.930  -0.186   8.015  0.0122 -0.1936 -0.0214
  716loPI   C6A11124   9.202  -0.296   8.387 -0.2127 -0.1720  0.0482
  716loPI   C1B11125   8.033   0.017   6.357 -0.1425  0.0278 -0.1703
  716loPI   C2B11126   8.150  -0.096   6.792  0.1024  0.0071 -0.0730
  716loPI   C3B11127   8.241  -0.187   7.212 -0.1398 -0.3311  0.2677
  716loPI   C4B11128   8.341  -0.203   7.604 -0.0146  0.0977 -0.0933
  717loPI    C111129  14.438  11.994   5.244  0.0943  0.2376  0.1363
  717loPI    C211130  14.255  12.230   4.978 -0.0754  0.1266  0.1534
  717loPI    C311131  14.048  12.073   5.282  0.0859  0.1358  0.2691
  717loPI   PO411132  14.551  12.144   5.405  0.1999  0.2675  0.0046
  717loPI   GL111133  14.675  12.133   5.706 -0.0519 -0.0331 -0.1225
  717loPI   GL211134  14.889  11.876   5.678 -0.2216  0.1091  0.0598
  717loPI   C1A11135  14.747  12.072   6.104  0.1134  0.1888 -0.0062
  717loPI   C2A11136  14.738  12.051   6.616  0.0986  0.0403 -0.0066
  717loPI   C3A11137  14.653  11.964   7.052  0.0267 -0.3458 -0.3141
  717loPI   C4A11138  14.517  12.016   7.537  0.2553  0.1783 -0.3184
  717loPI   C5A11139  14.171  12.096   7.864  0.1245  0.1003 -0.5853
  717loPI   C6A11140  14.105  12.126   8.272  0.3028 -0.0220 -0.3518
  717loPI   C1B11141  15.111  11.705   5.978  0.4882  0.0306 -0.2136
  717loPI   C2B11142  14.993  11.670   6.401 -0.0508 -0.3050  0.0774
  717loPI   C3B11143  15.035  11.749   6.834 -0.0066  0.0434 -0.1801
  717loPI   C4B11144  15.018  11.672   7.294 -0.0011 -0.0804  0.3806
  718loPI    C111145  17.221   4.737   4.992 -0.0678 -0.0620 -0.1701
  718loPI    C211146  17.591   4.705   5.141 -0.1158 -0.0402 -0.0452
  718loPI    C311147  17.514   4.582   4.769  0.0148 -0.0548 -0.0677
  718loPI   PO411148  17.165   4.948   5.107  0.0440 -0.0503 -0.1998
  718loPI   GL111149  17.075   5.069   5.523  0.2524 -0.0420 -0.1274
  718loPI   GL211150  17.293   4.761   5.581  0.0344  0.1414  0.0476
  718loPI   C1A11151  16.872   5.221   5.890  0.0499 -0.5309 -0.0465
  718loPI   C2A11152  16.850   5.216   6.283  0.0695 -0.0741  0.0792
  718loPI   C3A11153  16.901   5.143   6.679 -0.4474  0.1292  0.0125
  718loPI   C4A11154  17.053   5.317   7.045 -0.0988 -0.0163 -0.1423
  718loPI   C5A11155  17.261   5.478   7.502 -0.0651  0.1038 -0.2430
  718loPI   C6A11156  17.443   5.671   7.827  0.0088  0.1986 -0.2915
  718loPI   C1B11157  17.263   4.759   5.967  0.2329  0.1800 -0.0108
  718loPI   C2B11158  17.300   4.902   6.504 -0.2050  0.0020 -0.2425
  718loPI   C3B11159  17.372   4.869   6.939 -0.1104  0.0773 -0.0718
  718loPI   C4B11160  17.592   4.885   7.284 -0.2064 -0.0542  0.1234
  719loPI    C111161  14.607  16.628   5.389 -0.2226 -0.2490  0.0174
  719loPI    C211162  14.443  16.931   5.186  0.0421 -0.0632  0.0761
  719loPI    C311163  14.708  16.691   5.007  0.0030 -0.1212  0.0964
  719loPI   PO411164  14.755  16.750   5.572 -0.0982  0.2111  0.1298
  719loPI   GL111165  15.011  16.580   5.925 -0.1128 -0.0501 -0.1010
  719loPI   GL211166  15.369  16.639   5.784 -0.1825 -0.1149  0.0672
  719loPI   C1A11167  15.188  16.607   6.354  0.2536  0.0496 -0.1880
  719loPI   C2A11168  15.242  16.616   6.771 -0.2768 -0.0473  0.0604
  719loPI   C3A11169  15.390  16.626   7.200  0.0350 -0.0670  0.1619
  719loPI   C4A11170  15.667  16.643   7.606  0.0557 -0.2850 -0.1312
  719loPI   C5A11171  16.068  16.530   7.644 -0.2038  0.1000  0.0616
  719loPI   C6A11172  16.282  16.142   7.763 -0.0331 -0.1355  0.2366
  719loPI   C1B11173  15.625  16.678   6.073  0.0045 -0.4160  0.0160
  719loPI   C2B11174  15.730  16.639   6.488  0.1283 -0.0819 -0.0826
  719loPI   C3B11175  15.750  16.744   6.890 -0.1054  0.2825 -0.2512
  719loPI   C4B11176  15.956  16.804   7.227  0.2169  0.2721 -0.0594
  720loPI    C111177  10.422  18.225   5.549 -0.2267 -0.0320 -0.0975
  720loPI    C211178  10.176  18.464   5.343  0.0129  0.4712  0.1806
  720loPI    C311179  10.571  18.528   5.335  0.0875  0.0473  0.2231
  720loPI   PO411180  10.291  18.147   5.865  0.0756 -0.0633  0.2986
  720loPI   GL111181  10.226  18.245   6.298  0.0800 -0.2114 -0.1647
  720loPI   GL211182  10.115  18.547   6.477  0.0410  0.0185  0.0449
  720loPI   C1A11183  10.462  18.036   6.633  0.1040  0.0780  0.2502
  720loPI   C2A11184  10.545  18.152   7.040  0.2523 -0.2009 -0.0573
  720loPI   C3A11185  10.666  18.129   7.495  0.1025  0.0045 -0.1047
  720loPI   C4A11186  10.798  17.859   7.873  0.2244 -0.0475 -0.1041
  720loPI   C5A11187  10.812  17.989   8.381  0.0702 -0.1645 -0.0423
  720loPI   C6A11188  10.834  18.341   8.453 -0.2018 -0.1322  0.0195
  720loPI   C1B11189  10.114  18.423   6.884 -0.0375 -0.1505 -0.2306
  720loPI   C2B11190  10.194  18.346   7.328 -0.3776 -0.1385  0.0506
  720loPI   C3B11191   9.985  18.342   7.768 -0.1162  0.1614 -0.0345
  720loPI   C4B11192   9.882  18.025   8.092 -0.1875  0.2313 -0.2900
  721loPI    C111193  14.727   5.289   4.910 -0.1106 -0.0030 -0.0459
  721loPI    C211194  14.909   5.030   4.666 -0.0386 -0.0617  0.0695
  721loPI    C311195  14.913   5.421   4.581 -0.1069 -0.0927 -0.0802
  721loPI   PO411196  14.791   5.228   5.242  0.0481 -0.0906 -0.0775
  721loPI   GL111197  15.024   5.226   5.644  0.1011 -0.0918 -0.0893
  721loPI   GL211198  15.322   5.381   5.656  0.1850 -0.0118  0.0372
  721loPI   C1A11199  14.909   5.107   6.041 -0.0758  0.1181 -0.1437
  721loPI   C2A11200  15.056   5.098   6.547  0.0091 -0.2373  0.0967
  721loPI   C3A11201  15.134   5.115   6.946 -0.1265 -0.3691  0.2576
  721loPI   C4A11202  15.196   5.204   7.292  0.2905  0.2494  0.2093
  721loPI   C5A11203  15.110   5.301   7.857  0.1689  0.1658  0.0417
  721loPI   C6A11204  14.775   5.448   8.020  0.2073 -0.0160 -0.0800
  721loPI   C1B11205  15.426   5.289   6.023 -0.1262 -0.0327 -0.2070
  721loPI   C2B11206  15.504   5.250   6.481 -0.2381 -0.1928  0.0687
  721loPI   C3B11207  15.579   5.290   6.862  0.1385  0.0933 -0.1376
  721loPI   C4B11208  15.679   5.357   7.164  0.0023 -0.3618  0.1712
  722loPI    C111209   0.541   2.146   5.327 -0.2353  0.0724  0.1526
  722loPI    C211210   0.366   2.504   5.303 -0.1692  0.0844 -0.2087
  722loPI    C311211   0.436   2.293   4.970  0.0934 -0.1188 -0.0291
  722loPI   PO411212   0.439   2.033   5.625  0.3019 -0.2653  0.0907
  722loPI   GL111213   0.344   1.850   5.992 -0.0928  0.0492 -0.2505
  722loPI   GL211214   0.120   2.012   6.163  0.2203  0.1771 -0.1342
  722loPI   C1A11215   0.415   1.699   6.377  0.3623  0.0522 -0.0620
  722loPI   C2A11216   0.414   1.630   6.881 -0.1164  0.0411 -0.0010
  722loPI   C3A11217   0.563   1.494   7.254 -0.2535  0.0141 -0.1027
  722loPI   C4A11218   0.488   1.381   7.719 -0.0148 -0.3440 -0.0807
  722loPI   C5A11219   0.516   1.146   8.079 -0.3258 -0.2111 -0.0475
  722loPI   C6A11220   0.731   1.040   8.501 -0.2254 -0.1734  0.2849
  722loPI   C1B11221   0.039   1.973   6.585 -0.2633  0.2042 -0.1081
  722loPI   C2B11222   0.115   2.002   7.037  0.2083 -0.1928  0.1909
  722loPI   C3B11223   0.167   1.955   7.433  0.0443  0.1907  0.1178
  722loPI   C4B11224   0.559   1.886   7.740 -0.1307  0.0389  0.1348
  723loPI    C111225   4.992   8.866   5.105  0.1095 -0.2248  0.0356
  723loPI    C211226   5.273   9.003   4.855  0.0556  0.0292  0.1110
  723loPI    C311227   4.928   8.860   4.710  0.0915  0.0214  0.0332
  723loPI   PO411228   5.135   8.807   5.333  0.2998  0.2505  0.0339
  723loPI   GL111229   5.164   8.971   5.732  0.1652  0.2678 -0.0800
  723loPI   GL211230   5.149   9.251   5.731 -0.2947  0.0742  0.1953
  723loPI   C1A11231   5.048   9.100   6.153  0.2577  0.0016  0.2302
  723loPI   C2A11232   4.880   9.254   6.508  0.0378 -0.1249  0.0009
  723loPI   C3A11233   4.738   9.261   6.971 -0.2995 -0.0132 -0.0474
  723loPI   C4A11234   4.765   9.469   7.364  0.0262 -0.1939 -0.3514
  723loPI   C5A11235   4.424   9.781   7.634 -0.0671  0.1448 -0.1498
  723loPI   C6A11236   4.015  10.003   7.638 -0.0133 -0.2418  0.0586
  723loPI   C1B11237   4.776   9.458   5.920 -0.0238  0.1453 -0.1474
  723loPI   C2B11238   4.591   9.658   6.302  0.2349 -0.0693 -0.0392
  723loPI   C3B11239   4.557   9.727   6.660  0.1607 -0.2753 -0.0651
  723loPI   C4B11240   4.497   9.935   7.153 -0.3271 -0.0854  0.0294
  724loPI    C111241   0.512   7.864   4.907  0.1689 -0.1100  0.1046
  724loPI    C211242   0.686   7.681   4.597  0.0804 -0.2190  0.1187
  724loPI    C311243   0.303   7.604   4.685 -0.1106  0.3405 -0.1752
  724loPI   PO411244   0.672   7.968   5.088 -0.0479 -0.1383  0.1122
  724loPI   GL111245   0.829   8.286   5.474 -0.0319  0.0612  0.0557
  724loPI   GL211246   0.632   8.242   5.669 -0.0593 -0.1022 -0.3466
  724loPI   C1A11247   1.031   7.914   5.835 -0.1306 -0.1782  0.0844
  724loPI   C2A11248   0.958   7.898   6.211  0.0520  0.1689  0.1025
  724loPI   C3A11249   1.004   7.850   6.615 -0.0983  0.0100  0.0477
  724loPI   C4A11250   1.002   7.800   7.027 -0.3141  0.1384 -0.0561
  724loPI   C5A11251   0.900   7.625   7.429 -0.0277  0.0857 -0.1952
  724loPI   C6A11252   1.170   7.382   7.644  0.1650  0.0852 -0.0515
  724loPI   C1B11253   0.544   8.262   6.076  0.3140  0.2403  0.0073
  724loPI   C2B11254   0.610   8.206   6.439 -0.1578 -0.1601 -0.1325
  724loPI   C3B11255   0.649   8.366   6.764  0.0874  0.1427  0.1683
  724loPI   C4B11256   0.657   8.484   7.107 -0.2458  0.1510 -0.0710
  725loPI    C111257  14.089  12.838   5.011  0.0090 -0.0590  0.1299
  725loPI    C211258  14.410  12.705   4.813 -0.0550  0.1863 -0.1446
  725loPI    C311259  14.063  12.758   4.620 -0.1451  0.3347  0.0550
  725loPI   PO411260  14.006  12.671   5.205  0.1552 -0.2330 -0.0026
  725loPI   GL111261  14.012  12.489   5.616  0.1009 -0.2243 -0.0025
  725loPI   GL211262  14.281  12.438   5.684 -0.0346 -0.0101 -0.2271
  725loPI   C1A11263  13.802  12.247   5.965  0.1469 -0.0297 -0.1876
  725loPI   C2A11264  13.817  12.222   6.443 -0.1856 -0.3384 -0.4591
  725loPI   C3A11265  13.801  12.038   6.820  0.0395 -0.0973 -0.1733
  725loPI   C4A11266  13.691  11.691   7.174  0.2147  0.1810  0.1446
  725loPI   C5A11267  13.826  11.680   7.604 -0.1267 -0.0140 -0.0240
  725loPI   C6A11268  13.800  11.750   8.062 -0.2232  0.1522 -0.0804
  725loPI   C1B11269  14.358  12.436   6.131  0.1009  0.2861  0.0633
  725loPI   C2B11270  14.301  12.445   6.580 -0.0056 -0.0125  0.2688
  725loPI   C3B11271  14.309  12.388   7.032  0.1065  0.0218  0.0440
  725loPI   C4B11272  14.366  12.456   7.506 -0.1226  0.1826  0.3629
  726loPI    C111273   5.513   4.990   5.242  0.1928 -0.1430 -0.1030
  726loPI    C211274   5.856   5.168   5.346  0.1888 -0.1962  0.0031
  726loPI    C311275   5.845   4.772   5.290  0.1973 -0.1650 -0.2302
  726loPI   PO411276   5.284   5.103   5.469  0.1071  0.5527  0.0169
  726loPI   GL111277   5.252   5.039   5.963  0.0169 -0.1472 -0.3233
  726loPI   GL211278   5.314   4.836   6.112  0.1680  0.5211  0.0458
  726loPI   C1A11279   5.366   5.403   6.302 -0.4384 -0.1200 -0.0799
  726loPI   C2A11280   5.641   5.362   6.613  0.0880  0.2691  0.0457
  726loPI   C3A11281   5.837   5.065   6.893  0.1688 -0.1187 -0.0764
  726loPI   C4A11282   5.963   4.868   7.229 -0.0533  0.1623 -0.0333
  726loPI   C5A11283   6.108   4.750   7.707 -0.1975  0.4454 -0.3257
  726loPI   C6A11284   6.242   4.318   7.825 -0.0113  0.0606  0.2570
  726loPI   C1B11285   5.085   4.919   6.441  0.1124  0.0302  0.2043
  726loPI   C2B11286   5.166   4.888   6.816 -0.1267  0.0678 -0.0252
  726loPI   C3B11287   5.422   4.971   7.182 -0.2949 -0.1932 -0.1233
  726loPI   C4B11288   5.413   4.931   7.589  0.1113  0.3639 -0.0332
  727loPI    C111289  18.291  16.810   5.148  0.1350  0.1698  0.0750
  727loPI    C211290  18.626  16.612   5.057  0.1395  0.1768  0.0758
  727loPI    C311291  18.407  16.777   4.766  0.0220 -0.0122  0.0555
  727loPI   PO411292  18.142  16.662   5.408 -0.2252  0.4440 -0.0249
  727loPI   GL111293  18.198  16.772   5.830  0.1306  0.0575 -0.1189
  727loPI   GL211294  18.396  16.969   5.992  0.1857  0.0263  0.2194
  727loPI   C1A11295  18.080  16.591   6.074 -0.0369 -0.1745 -0.0359
  727loPI   C2A11296  18.261  16.525   6.466 -0.1105  0.1568 -0.0960
  727loPI   C3A11297  18.170  16.410   6.933 -0.3779  0.2290  0.1003
  727loPI   C4A11298  18.266  16.155   7.295 -0.1914  0.1204 -0.1412
  727loPI   C5A11299  18.353  16.380   7.703 -0.0605 -0.3165 -0.1292
  727loPI   C6A11300  18.366  16.552   8.124  0.2958 -0.1781  0.0784
  727loPI   C1B11301  18.526  16.926   6.412  0.1094 -0.0575 -0.1842
  727loPI   C2B11302  18.659  16.778   6.809  0.0294  0.0851  0.3335
  727loPI   C3B11303  18.498  16.680   7.206  0.0936  0.0702 -0.1103
  727loPI   C4B11304  18.759  16.721   7.544  0.0507  0.0985  0.2720
  728loPI    C111305  12.314  11.528   4.973 -0.0985 -0.3109  0.1714
  728loPI    C211306  12.713  11.527   5.009 -0.0892 -0.1845  0.0773
  728loPI    C311307  12.545  11.518   4.646 -0.1667  0.2338  0.0971
  728loPI   PO411308  12.226  11.295   5.237  0.0766 -0.0079  0.1267
  728loPI   GL111309  11.901  11.262   5.498  0.3245 -0.2318  0.0990
  728loPI   GL211310  11.629  11.427   5.484  0.4170 -0.3194 -0.1159
  728loPI   C1A11311  12.096  11.306   5.869  0.3319  0.1054  0.1367
  728loPI   C2A11312  12.139  11.303   6.386 -0.0667  0.4699  0.0375
  728loPI   C3A11313  12.193  11.157   6.793 -0.2671  0.2226 -0.2950
  728loPI   C4A11314  12.288  11.126   7.213 -0.1812  0.1291  0.5538
  728loPI   C5A11315  12.366  11.197   7.724 -0.0545 -0.0335 -0.2779
  728loPI   C6A11316  12.526  11.535   7.937  0.0614 -0.0167 -0.1322
  728loPI   C1B11317  11.565  11.213   5.832 -0.0190  0.1659 -0.1507
  728loPI   C2B11318  11.743  11.107   6.211  0.3369  0.1808 -0.1087
  728loPI   C3B11319  11.739  11.075   6.707 -0.2611 -0.0412 -0.2189
  728loPI   C4B11320  11.852  10.960   7.102  0.2481 -0.0253  0.0713
  729loPI    C111321   6.949  17.637   5.267 -0.0161  0.0172 -0.0745
  729loPI    C211322   6.870  17.819   5.615 -0.2077 -0.1090 -0.0504
  729loPI    C311323   6.611  17.847   5.311  0.1490  0.3460 -0.3262
  729loPI   PO411324   7.109  17.453   5.413 -0.0382 -0.0934 -0.2467
  729loPI   GL111325   7.217  17.402   5.803  0.0230 -0.3518  0.0601
  729loPI   GL211326   6.957  17.384   5.923  0.0829 -0.1091  0.2975
  729loPI   C1A11327   7.446  17.188   6.069  0.2899 -0.2249 -0.1366
  729loPI   C2A11328   7.438  17.237   6.490 -0.1298 -0.0039  0.1337
  729loPI   C3A11329   7.437  17.159   6.960  0.2618  0.1372  0.0458
  729loPI   C4A11330   7.478  17.085   7.469 -0.0183  0.0309  0.0476
  729loPI   C5A11331   7.388  16.696   7.798  0.2281 -0.1276  0.0784
  729loPI   C6A11332   7.562  16.647   8.167 -0.5044 -0.2279  0.1721
  729loPI   C1B11333   7.055  17.513   6.356  0.1088 -0.2661  0.0407
  729loPI   C2B11334   7.035  17.463   6.794  0.0087  0.0250 -0.2375
  729loPI   C3B11335   7.055  17.544   7.157  0.3502 -0.3908  0.3300
  729loPI   C4B11336   7.178  17.540   7.558 -0.1495 -0.0358 -0.0061
  730loPI    C111337   4.240  12.051   4.867 -0.1048  0.1587 -0.0873
  730loPI    C211338   3.878  12.203   4.949 -0.1162  0.0954 -0.0193
  730loPI    C311339   3.921  11.936   4.654 -0.0593  0.3947 -0.2867
  730loPI   PO411340   4.380  11.801   5.130 -0.0491 -0.4564 -0.1187
  730loPI   GL111341   4.381  11.947   5.581 -0.0087 -0.0142 -0.1408
  730loPI   GL211342   4.611  12.060   5.814  0.0171  0.1485 -0.1584
  730loPI   C1A11343   4.143  12.257   5.815  0.1669 -0.0227  0.1507
  730loPI   C2A11344   4.170  12.413   6.221 -0.3909  0.0474  0.1578
  730loPI   C3A11345   4.108  12.420   6.683 -0.0106 -0.1401 -0.1235
  730loPI   C4A11346   4.105  12.429   7.122 -0.1035  0.0308  0.0367
  730loPI   C5A11347   4.236  12.461   7.523  0.1653 -0.2078 -0.2025
  730loPI   C6A11348   4.263  12.156   7.914  0.1677 -0.1220 -0.0434
  730loPI   C1B11349   4.273  11.808   6.138  0.0504  0.1813  0.0400
  730loPI   C2B11350   4.093  11.523   6.355  0.1289 -0.3226 -0.2078
  730loPI   C3B11351   3.968  11.256   6.673  0.3650 -0.1459  0.0692
  730loPI   C4B11352   3.892  11.252   7.130  0.0455 -0.0102 -0.1171
  731loPI    C111353  16.145  17.869   5.150  0.1577 -0.1300 -0.2054
  731loPI    C211354  16.241  17.555   4.921  0.0699 -0.1320 -0.2398
  731loPI    C311355  15.978  17.826   4.789 -0.0596 -0.1874 -0.1000
  731loPI   PO411356  16.307  17.811   5.372 -0.0335 -0.0707  0.2505
  731loPI   GL111357  16.387  17.634   5.711 -0.0896 -0.2077  0.0950
  731loPI   GL211358  16.041  17.485   5.863 -0.0586 -0.1637 -0.1550
  731loPI   C1A11359  16.543  17.625   6.037  0.2404 -0.1226 -0.0127
  731loPI   C2A11360  16.555  17.758   6.444  0.0563  0.0868  0.2620
  731loPI   C3A11361  16.635  17.828   6.845  0.0077  0.1993  0.0379
  731loPI   C4A11362  16.596  17.937   7.196  0.0280  0.1895 -0.1276
  731loPI   C5A11363  16.653  17.882   7.651 -0.0011  0.2349 -0.0107
  731loPI   C6A11364  16.877  18.037   7.853  0.2216  0.0826  0.0607
  731loPI   C1B11365  16.053  17.603   6.272  0.2700  0.0756 -0.0880
  731loPI   C2B11366  16.114  17.692   6.703  0.1466 -0.0384  0.0839
  731loPI   C3B11367  16.135  17.762   7.058  0.0186  0.0023 -0.0691
  731loPI   C4B11368  16.186  17.862   7.515  0.0399  0.1371 -0.3931
  732loPI    C111369  12.309   4.071   5.438  0.1412  0.1766 -0.0600
  732loPI    C211370  12.357   3.798   5.150 -0.1490 -0.0661  0.1166
  732loPI    C311371  12.353   4.187   5.058  0.5663 -0.0970 -0.1007
  732loPI   PO411372  12.111   4.004   5.567 -0.3182 -0.0017 -0.5012
  732loPI   GL111373  11.949   3.970   5.971  0.0220 -0.2062 -0.1810
  732loPI   GL211374  11.921   4.277   5.879 -0.1822 -0.2406  0.0129
  732loPI   C1A11375  11.923   3.699   6.312  0.2579 -0.1063  0.1502
  732loPI   C2A11376  11.589   3.612   6.657 -0.1639  0.4183  0.0913
  732loPI   C3A11377  11.360   3.783   6.974  0.0520 -0.0106  0.1192
  732loPI   C4A11378  11.247   3.990   7.303  0.2722  0.3300  0.4329
  732loPI   C5A11379  11.187   3.938   7.696  0.1064  0.2495 -0.0465
  732loPI   C6A11380  11.297   3.759   8.117 -0.1560  0.2341  0.0318
  732loPI   C1B11381  11.739   4.377   6.254  0.1979 -0.4384  0.2435
  732loPI   C2B11382  11.733   4.492   6.731  0.0599  0.2328  0.1320
  732loPI   C3B11383  11.643   4.516   7.180 -0.0166 -0.2497  0.0097
  732loPI   C4B11384  11.696   4.636   7.627 -0.0789 -0.0868  0.2584
  733loPI    C111385  15.724   7.928   4.920  0.3973 -0.1266 -0.0752
  733loPI    C211386  15.701   8.327   4.901 -0.0472 -0.1295  0.2519
  733loPI    C311387  15.905   8.125   4.623 -0.1928  0.2927 -0.1749
  733loPI   PO411388  15.873   7.907   5.142  0.0418 -0.4667 -0.2965
  733loPI   GL111389  15.923   8.137   5.599 -0.0309  0.1133 -0.0159
  733loPI   GL211390  16.200   8.275   5.561  0.2491 -0.2342 -0.4001
  733loPI   C1A11391  15.726   8.107   6.081  0.1425  0.0527 -0.0607
  733loPI   C2A11392  15.687   8.168   6.511  0.1233 -0.0061  0.0735
  733loPI   C3A11393  15.743   8.136   6.913 -0.1956 -0.1834 -0.0369
  733loPI   C4A11394  15.716   8.270   7.394 -0.1988 -0.0729 -0.1220
  733loPI   C5A11395  15.535   8.139   7.855 -0.2083 -0.0274  0.0937
  733loPI   C6A11396  15.343   8.038   8.138  0.0788  0.0546  0.0655
  733loPI   C1B11397  16.228   8.229   6.022  0.1798  0.1370  0.0323
  733loPI   C2B11398  16.218   8.286   6.365  0.1012  0.0773  0.2644
  733loPI   C3B11399  16.216   8.350   6.795  0.0730  0.0167 -0.0939
  733loPI   C4B11400  16.176   8.262   7.231 -0.3264  0.1467 -0.0214
  734loPI    C111401  13.721  18.057   5.223 -0.0823  0.1401  0.0268
  734loPI    C211402  13.576  17.736   5.034  0.0249 -0.0743  0.3019
  734loPI    C311403  13.325  18.011   5.182 -0.0654 -0.0010  0.0195
  734loPI   PO411404  13.870  17.992   5.422 -0.0088 -0.0804 -0.1225
  734loPI   GL111405  14.121  18.050   5.896  0.0434  0.3560  0.0650
  734loPI   GL211406  13.804  17.911   5.901 -0.3786  0.2206  0.2718
  734loPI   C1A11407  14.367  18.122   6.249  0.0590 -0.1917 -0.1340
  734loPI   C2A11408  14.343  18.117   6.713  0.0201 -0.0669 -0.2884
  734loPI   C3A11409  14.320  18.139   7.180 -0.6713  0.1288 -0.2839
  734loPI   C4A11410  14.512  18.088   7.577  0.1553  0.1763 -0.2818
  734loPI   C5A11411  14.826  18.212   7.941  0.1369 -0.1816 -0.1801
  734loPI   C6A11412  14.883  18.330   8.334  0.1500 -0.2312 -0.0878
  734loPI   C1B11413  13.868  17.955   6.353  0.2242  0.0673  0.1633
  734loPI   C2B11414  13.980  17.808   6.810  0.3004 -0.1810  0.0719
  734loPI   C3B11415  14.326  17.631   7.096  0.1156 -0.0505 -0.0496
  734loPI   C4B11416  14.450  17.582   7.530 -0.2217 -0.2410  0.0132
  735loPI    C111417  11.582  18.363   5.367 -0.0289  0.0539 -0.1233
  735loPI    C211418  11.926  18.163   5.411 -0.1493 -0.0509  0.4226
  735loPI    C311419  11.600  17.975   5.276 -0.1012 -0.0585  0.3162
  735loPI   PO411420  11.530  18.486   5.639  0.3579 -0.1567 -0.1366
  735loPI   GL111421  11.529  18.453   6.174  0.1927 -0.3809  0.2547
  735loPI   GL211422  11.465  18.575   6.429  0.1533  0.0973 -0.0979
  735loPI   C1A11423  11.495  18.037   6.430 -0.0352 -0.0808 -0.0044
  735loPI   C2A11424  11.468  17.756   6.886 -0.1249  0.2757 -0.1918
  735loPI   C3A11425  11.617  17.513   7.296  0.0434 -0.1711 -0.1501
  735loPI   C4A11426  11.557  17.227   7.653  0.2604 -0.0205 -0.0888
  735loPI   C5A11427  11.528  17.323   8.160 -0.0927 -0.0466  0.1338
  735loPI   C6A11428  11.043  17.452   8.285 -0.0329  0.0471  0.2269
  735loPI   C1B11429  11.518  18.735   6.868  0.0605  0.0145  0.1940
  735loPI   C2B11430  11.483  18.539   7.322  0.0932 -0.3160  0.0552
  735loPI   C3B11431  11.635  18.415   7.677  0.1447 -0.1350 -0.1371
  735loPI   C4B11432  11.530  18.286   8.104 -0.1875  0.0264  0.3686
  736loPI    C111433   9.530  15.299   5.405  0.1383  0.2683 -0.0101
  736loPI    C211434   9.327  15.523   5.668 -0.1298  0.0358 -0.0145
  736loPI    C311435   9.130  15.314   5.389  0.1260 -0.0837 -0.1089
  736loPI   PO411436   9.649  15.088   5.627 -0.1562 -0.0815  0.0623
  736loPI   GL111437   9.612  15.130   6.047  0.0572  0.0118 -0.2133
  736loPI   GL211438   9.535  14.964   6.262  0.1004  0.4708 -0.1888
  736loPI   C1A11439   9.427  15.456   6.383  0.2279 -0.0545  0.2794
  736loPI   C2A11440   9.463  15.773   6.824  0.0599 -0.2189 -0.0327
  736loPI   C3A11441   9.313  15.685   7.266 -0.1194  0.0840 -0.1462
  736loPI   C4A11442   8.947  15.481   7.531 -0.0786  0.1932 -0.0483
  736loPI   C5A11443   8.790  15.138   7.674 -0.1474 -0.3619 -0.5526
  736loPI   C6A11444   8.435  14.942   7.593  0.2780 -0.0831  0.1893
  736loPI   C1B11445   9.550  14.968   6.612  0.2534 -0.1132  0.1029
  736loPI   C2B11446   9.698  15.031   6.913 -0.0787  0.1869 -0.2348
  736loPI   C3B11447   9.576  14.925   7.307 -0.0555 -0.1919  0.2469
  736loPI   C4B11448   9.539  15.275   7.564 -0.0924  0.2755 -0.0563
  737loPI    C111449  13.219  17.107   5.451 -0.1666 -0.0997 -0.0968
  737loPI    C211450  13.455  17.248   5.161  0.0664  0.0581  0.1651
  737loPI    C311451  13.101  17.086   5.069  0.1683  0.0393 -0.2113
  737loPI   PO411452  13.248  17.242   5.639  0.1917 -0.1856 -0.3799
  737loPI   GL111453  13.447  17.233   6.031  0.2633 -0.1301 -0.1204
  737loPI   GL211454  13.623  17.486   6.097  0.3069 -0.2213 -0.1986
  737loPI   C1A11455  13.328  17.259   6.434  0.2100  0.1039 -0.0579
  737loPI   C2A11456  13.440  17.182   6.858 -0.2162  0.2459  0.2106
  737loPI   C3A11457  13.599  17.313   7.224  0.1735 -0.0826  0.2800
  737loPI   C4A11458  13.483  17.491   7.655  0.2213  0.1034 -0.1775
  737loPI   C5A11459  13.571  17.641   8.109 -0.2330  0.0202  0.3823
  737loPI   C6A11460  13.339  17.756   8.428  0.1738 -0.0180 -0.0539
  737loPI   C1B11461  13.826  17.437   6.491  0.1227 -0.1488  0.0338
  737loPI   C2B11462  13.946  17.317   6.881 -0.0478  0.0188 -0.0840
  737loPI   C3B11463  14.027  17.067   7.207  0.0006  0.0565  0.1020
  737loPI   C4B11464  13.837  17.050   7.672  0.3225 -0.2039  0.2051
  738loPI    C111465  10.159  13.170   5.220 -0.0363 -0.2198  0.3486
  738loPI    C211466   9.788  13.320   5.228 -0.1092 -0.3869  0.1942
  738loPI    C311467   9.861  12.979   5.032  0.2271 -0.0798 -0.2345
  738loPI   PO411468  10.248  13.070   5.456 -0.0377  0.1260  0.0804
  738loPI   GL111469  10.305  13.250   5.848  0.2111  0.0823 -0.1844
  738loPI   GL211470   9.893  13.217   5.800  0.2201  0.0110 -0.2381
  738loPI   C1A11471  10.267  13.011   6.298  0.0960 -0.2716  0.0628
  738loPI   C2A11472  10.242  13.154   6.634 -0.1807 -0.1882  0.2043
  738loPI   C3A11473  10.231  13.079   7.127 -0.0496 -0.2503  0.2381
  738loPI   C4A11474  10.107  13.412   7.341  0.2774  0.1993 -0.0269
  738loPI   C5A11475  10.198  13.700   7.692  0.2028 -0.3091 -0.4157
  738loPI   C6A11476  10.396  13.760   8.062  0.0794 -0.0576  0.1304
  738loPI   C1B11477   9.829  13.236   6.180 -0.0238 -0.2183  0.1633
  738loPI   C2B11478   9.777  13.212   6.591  0.2694  0.3851  0.1623
  738loPI   C3B11479   9.815  13.225   6.920 -0.1581 -0.1783 -0.1207
  738loPI   C4B11480   9.548  13.291   7.329  0.0933  0.0262  0.0689
  739loPI    C111481   0.241   0.597   5.304 -0.1978 -0.0479 -0.0148
  739loPI    C211482   0.359   0.495   4.936 -0.2257  0.0134 -0.0407
  739loPI    C311483  -0.030   0.550   5.013 -0.2262 -0.0655  0.0143
  739loPI   PO411484   0.350   0.394   5.443 -0.3460 -0.0839 -0.2998
  739loPI   GL111485   0.325   0.206   5.736  0.0179 -0.1192 -0.0511
  739loPI   GL211486   0.046  -0.024   5.897  0.0386 -0.1522 -0.2491
  739loPI   C1A11487   0.309   0.381   6.146 -0.1023 -0.1503  0.1688
  739loPI   C2A11488   0.363   0.601   6.570 -0.0729 -0.1376 -0.2281
  739loPI   C3A11489   0.322   0.640   6.975  0.0546 -0.0773  0.0066
  739loPI   C4A11490   0.273   0.505   7.440  0.1774  0.2371  0.1204
  739loPI   C5A11491   0.515   0.802   7.694 -0.1124 -0.0471  0.2216
  739loPI   C6A11492   0.765   0.744   8.001  0.0449  0.3009  0.1225
  739loPI   C1B11493   0.027  -0.122   6.329  0.1570  0.1430  0.1264
  739loPI   C2B11494   0.164  -0.316   6.820  0.1324 -0.0868  0.1161
  739loPI   C3B11495   0.241  -0.570   7.126  0.0365  0.1445 -0.0850
  739loPI   C4B11496  -0.075  -0.827   7.369  0.0490 -0.3916 -0.1387
  740loPI    C111497   4.557  13.632   5.262  0.0754  0.0601 -0.1966
  740loPI    C211498   4.601  13.431   5.605 -0.0262  0.0152 -0.2094
  740loPI    C311499   4.763  13.289   5.268 -0.5274 -0.3200 -0.3209
  740loPI   PO411500   4.634  13.880   5.290 -0.1163 -0.3451 -0.0388
  740loPI   GL111501   4.815  13.889   5.711  0.3224  0.0068  0.1105
  740loPI   GL211502   4.551  14.048   5.754  0.0853  0.0247 -0.0737
  740loPI   C1A11503   4.907  13.791   6.100 -0.0177 -0.1541  0.2663
  740loPI   C2A11504   4.879  13.960   6.549 -0.0832 -0.0125 -0.3628
  740loPI   C3A11505   4.535  13.996   6.872 -0.0095 -0.0179  0.1094
  740loPI   C4A11506   4.460  14.018   7.341  0.0581 -0.2248  0.2153
  740loPI   C5A11507   4.124  13.701   7.579 -0.1774 -0.1495  0.4050
  740loPI   C6A11508   3.725  13.501   7.574  0.0544  0.1352  0.0289
  740loPI   C1B11509   4.546  14.121   6.213 -0.2308  0.1005  0.1826
  740loPI   C2B11510   4.466  14.403   6.569 -0.0416  0.2122  0.0603
  740loPI   C3B11511   4.158  14.378   6.913  0.2600  0.2340  0.0870
  740loPI   C4B11512   4.110  14.533   7.217  0.0650  0.0600 -0.4032
  741loPI    C111513   1.190  17.340   5.499  0.0449 -0.0660 -0.1611
  741loPI    C211514   1.171  16.940   5.502 -0.0881 -0.0594 -0.0933
  741loPI    C311515   1.226  17.135   5.157 -0.0035 -0.1370 -0.1240
  741loPI   PO411516   1.092  17.418   5.744 -0.0590 -0.0504  0.1310
  741loPI   GL111517   0.987  17.296   6.062  0.1754  0.0157  0.2949
  741loPI   GL211518   1.273  17.002   5.980  0.1262 -0.1661 -0.0392
  741loPI   C1A11519   1.003  17.381   6.535  0.2383  0.1018  0.0275
  741loPI   C2A11520   1.104  17.312   6.990  0.1685  0.1168  0.4107
  741loPI   C3A11521   1.124  17.319   7.470  0.1065  0.2144 -0.1012
  741loPI   C4A11522   1.057  17.043   7.826 -0.0620 -0.2070 -0.3872
  741loPI   C5A11523   1.064  16.685   8.116 -0.1361  0.1812  0.0979
  741loPI   C6A11524   1.218  16.239   8.206  0.1976  0.0252  0.2501
  741loPI   C1B11525   1.184  16.944   6.437 -0.0086  0.2852 -0.0311
  741loPI   C2B11526   1.100  16.863   6.809  0.0353 -0.1699  0.0288
  741loPI   C3B11527   1.128  16.863   7.290 -0.1716  0.2106 -0.1661
  741loPI   C4B11528   1.311  16.647   7.676  0.2166 -0.0751 -0.0276
  742loPI    C111529  14.737  10.778   5.145 -0.1135 -0.3065  0.1189
  742loPI    C211530  15.134  10.751   5.193 -0.0751 -0.0385 -0.0300
  742loPI    C311531  14.978  10.774   4.825 -0.2064  0.1587  0.0360
  742loPI   PO411532  14.671  10.978   5.346 -0.2788 -0.0538  0.0240
  742loPI   GL111533  14.491  11.152   5.698  0.0708 -0.0279  0.0344
  742loPI   GL211534  14.371  10.897   5.767 -0.1996 -0.1839 -0.1286
  742loPI   C1A11535  14.524  11.525   5.952 -0.5206 -0.0483 -0.0479
  742loPI   C2A11536  14.529  11.496   6.394 -0.0896  0.0865  0.1520
  742loPI   C3A11537  14.588  11.488   6.891  0.0414 -0.0200  0.3925
  742loPI   C4A11538  14.558  11.482   7.319  0.1392  0.1101  0.1015
  742loPI   C5A11539  14.307  11.542   7.640  0.0494 -0.1466 -0.0885
  742loPI   C6A11540  14.377  11.733   8.142 -0.3347  0.1186  0.1154
  742loPI   C1B11541  14.456  10.972   6.207 -0.0726  0.2028 -0.0206
  742loPI   C2B11542  14.462  11.077   6.623 -0.1320 -0.3379  0.4586
  742loPI   C3B11543  14.500  11.016   7.122  0.2461 -0.2572  0.0778
  742loPI   C4B11544  14.382  11.049   7.560  0.0301  0.0998 -0.1813
  743loPI    C111545   0.360  13.869   4.801 -0.0724  0.0465  0.1529
  743loPI    C211546   0.063  14.065   4.619 -0.1339 -0.1494  0.0404
  743loPI    C311547   0.075  13.665   4.609 -0.0336 -0.1544  0.3054
  743loPI   PO411548   0.362  14.027   5.064  0.2198  0.0286  0.1809
  743loPI   GL111549   0.606  14.178   5.412  0.1503  0.2574  0.4108
  743loPI   GL211550   0.927  14.243   5.636  0.0333  0.0917 -0.1251
  743loPI   C1A11551   0.415  14.118   5.743 -0.0200 -0.1805  0.0093
  743loPI   C2A11552   0.394  13.841   6.161  0.2702 -0.0754 -0.1602
  743loPI   C3A11553   0.347  13.855   6.670  0.0000 -0.3477 -0.3708
  743loPI   C4A11554   0.278  13.830   7.060  0.1882 -0.3233  0.0921
  743loPI   C5A11555   0.219  13.874   7.521  0.0764 -0.0110  0.2155
  743loPI   C6A11556   0.588  13.754   7.840 -0.0914 -0.1865 -0.0187
  743loPI   C1B11557   0.870  14.141   6.042  0.1128  0.0813  0.1492
  743loPI   C2B11558   0.791  14.036   6.463  0.4225 -0.1351  0.0218
  743loPI   C3B11559   0.766  13.971   6.919 -0.0681 -0.2086  0.1266
  743loPI   C4B11560   0.712  13.900   7.341 -0.0538 -0.1043  0.1098
  744loPI    C111561   2.968   9.432   5.037 -0.0723 -0.0512  0.1075
  744loPI    C211562   3.154   9.752   4.884  0.0915 -0.0226  0.3606
  744loPI    C311563   2.808   9.627   4.726  0.3462 -0.1078 -0.1508
  744loPI   PO411564   2.969   9.503   5.280  0.1346 -0.1732 -0.0458
  744loPI   GL111565   2.772   9.662   5.662  0.0427 -0.0179  0.1260
  744loPI   GL211566   2.523   9.414   5.633  0.1848 -0.0473 -0.0720
  744loPI   C1A11567   2.773   9.661   6.075  0.0903  0.0450  0.1262
  744loPI   C2A11568   2.807   9.785   6.480 -0.1140  0.0997  0.0719
  744loPI   C3A11569   2.764   9.968   6.875  0.0512 -0.1187  0.3723
  744loPI   C4A11570   2.605   9.871   7.341 -0.1379 -0.2071 -0.0066
  744loPI   C5A11571   2.271   9.620   7.586  0.1590  0.2975 -0.0648
  744loPI   C6A11572   2.225   9.546   8.044  0.0240  0.0544 -0.1872
  744loPI   C1B11573   2.457   9.274   6.028  0.0231 -0.1814 -0.0658
  744loPI   C2B11574   2.384   9.289   6.303 -0.3567  0.1985  0.4273
  744loPI   C3B11575   2.537   9.380   6.746  0.1674 -0.0805 -0.2840
  744loPI   C4B11576   2.632   9.404   7.120 -0.0417 -0.0622  0.0106
  745loPI    C111577  16.418  12.368   5.137 -0.1632 -0.0592 -0.1638
  745loPI    C211578  16.306  12.642   4.868 -0.1783 -0.0551 -0.1533
  745loPI    C311579  16.479  12.756   5.210 -0.0503 -0.0675 -0.2135
  745loPI   PO411580  16.244  12.242   5.276 -0.1316  0.0767  0.1669
  745loPI   GL111581  16.127  12.147   5.655  0.1440  0.1819  0.0791
  745loPI   GL211582  15.933  12.339   5.698 -0.0453  0.1105 -0.0886
  745loPI   C1A11583  16.085  11.971   6.093 -0.3447 -0.2282 -0.1002
  745loPI   C2A11584  16.091  11.976   6.460  0.0866  0.5040  0.0683
  745loPI   C3A11585  15.937  11.975   6.835 -0.0259 -0.0295 -0.2987
  745loPI   C4A11586  16.026  12.049   7.239  0.1469  0.1351 -0.1796
  745loPI   C5A11587  15.854  12.006   7.618  0.2806 -0.2072  0.1325
  745loPI   C6A11588  15.665  12.360   7.768 -0.0593 -0.0185  0.2457
  745loPI   C1B11589  15.748  12.350   6.080  0.1216 -0.0956 -0.2991
  745loPI   C2B11590  15.687  12.265   6.510 -0.0364 -0.1358  0.0816
  745loPI   C3B11591  15.713  12.440   6.923  0.1114 -0.0082  0.2230
  745loPI   C4B11592  15.683  12.600   7.391 -0.0401  0.1264  0.0792
  746loPI    C111593   6.016   4.058   5.658 -0.0420  0.2317 -0.1470
  746loPI    C211594   5.672   3.853   5.670  0.0737  0.0409 -0.0479
  746loPI    C311595   5.668   4.247   5.600 -0.1432 -0.0127 -0.3569
  746loPI   PO411596   6.099   4.076   5.856  0.1124  0.3346  0.1048
  746loPI   GL111597   6.204   4.186   6.155 -0.0237  0.2411  0.1252
  746loPI   GL211598   6.356   4.451   6.148 -0.2866 -0.0143 -0.2746
  746loPI   C1A11599   6.419   4.146   6.557 -0.3130  0.2748 -0.1920
  746loPI   C2A11600   6.506   4.277   7.056  0.1407 -0.0301 -0.0962
  746loPI   C3A11601   6.793   4.328   7.377  0.0571  0.1379  0.1201
  746loPI   C4A11602   7.145   4.257   7.626 -0.0323  0.0221 -0.1400
  746loPI   C5A11603   7.518   4.419   7.704  0.0343 -0.0504  0.0138
  746loPI   C6A11604   7.742   4.427   8.105  0.0467 -0.2744 -0.0614
  746loPI   C1B11605   6.574   4.670   6.556  0.0723  0.1488  0.1637
  746loPI   C2B11606   6.712   4.834   6.901  0.3314  0.1741 -0.1869
  746loPI   C3B11607   7.004   4.753   7.269  0.2454 -0.1679  0.0539
  746loPI   C4B11608   7.138   4.848   7.670 -0.0659  0.3230 -0.0833
  747loPI    C111609   5.263   5.704   4.727  0.1599  0.1614 -0.0906
  747loPI    C211610   4.957   5.935   4.612 -0.0693 -0.1842 -0.1882
  747loPI    C311611   5.204   5.779   4.338 -0.1030 -0.3083 -0.1487
  747loPI   PO411612   5.450   5.937   4.956  0.0632  0.1837  0.3856
  747loPI   GL111613   5.269   6.246   5.391  0.2462 -0.1839 -0.0113
  747loPI   GL211614   5.418   6.236   5.644  0.3036 -0.0401 -0.1137
  747loPI   C1A11615   4.896   6.214   5.711 -0.0058  0.2434  0.1693
  747loPI   C2A11616   4.720   6.253   6.097  0.0103 -0.1166 -0.1805
  747loPI   C3A11617   4.809   6.199   6.463 -0.0433  0.2460 -0.1652
  747loPI   C4A11618   4.861   6.203   6.942 -0.0316 -0.0250  0.0234
  747loPI   C5A11619   4.834   6.182   7.388 -0.0777 -0.1960 -0.1788
  747loPI   C6A11620   4.882   6.345   7.782  0.1338 -0.0764 -0.2396
  747loPI   C1B11621   5.443   6.089   6.031  0.1933  0.0125  0.1541
  747loPI   C2B11622   5.406   6.244   6.435  0.1610 -0.0903 -0.0149
  747loPI   C3B11623   5.312   6.383   6.827 -0.0872 -0.2757 -0.0425
  747loPI   C4B11624   5.163   6.553   7.253  0.1449  0.1341 -0.2059
  748loPI    C111625   6.035   1.210   5.288 -0.1238  0.0650 -0.0993
  748loPI    C211626   6.053   1.100   4.904 -0.1061  0.2439 -0.1509
  748loPI    C311627   6.182   1.462   5.014 -0.0459  0.1670  0.0350
  748loPI   PO411628   5.772   0.943   5.359 -0.2396  0.0134  0.0657
  748loPI   GL111629   5.506   0.761   5.626 -0.1529  0.2357  0.2041
  748loPI   GL211630   5.894   0.550   5.622 -0.2553 -0.1065 -0.2001
  748loPI   C1A11631   5.391   0.919   6.100 -0.0559  0.2533  0.1573
  748loPI   C2A11632   5.535   1.299   6.139 -0.3802 -0.1644 -0.0692
  748loPI   C3A11633   5.655   1.470   6.534  0.2484  0.0217 -0.0450
  748loPI   C4A11634   5.603   1.436   6.958  0.0812  0.1938 -0.0585
  748loPI   C5A11635   5.712   1.288   7.401 -0.4850 -0.2755  0.0607
  748loPI   C6A11636   5.818   1.120   7.848  0.1986  0.2013 -0.0632
  748loPI   C1B11637   5.861   0.482   6.035  0.1141  0.2677 -0.0557
  748loPI   C2B11638   5.875   0.578   6.567 -0.1821  0.2598 -0.1140
  748loPI   C3B11639   6.011   0.539   6.915 -0.0503 -0.1455  0.2651
  748loPI   C4B11640   5.935   0.569   7.392 -0.0092  0.2612 -0.0520
  749loPI    C111641  17.997   7.357   5.008 -0.0983 -0.0124  0.1107
  749loPI    C211642  17.791   7.683   4.902 -0.0120  0.0996  0.2827
  749loPI    C311643  18.174   7.643   4.792 -0.0647 -0.0131  0.1370
  749loPI   PO411644  17.883   7.276   5.148 -0.0879  0.0801 -0.3563
  749loPI   GL111645  17.841   7.382   5.542  0.0207 -0.1865 -0.3176
  749loPI   GL211646  17.816   7.018   5.627  0.1497  0.0717  0.1326
  749loPI   C1A11647  17.914   7.383   5.999  0.0920 -0.0098 -0.0342
  749loPI   C2A11648  17.976   7.398   6.417  0.0728  0.1449 -0.1139
  749loPI   C3A11649  17.981   7.591   6.869 -0.1589  0.0189 -0.3552
  749loPI   C4A11650  17.953   7.638   7.341  0.1338  0.1607 -0.3833
  749loPI   C5A11651  18.068   7.728   7.817 -0.1053  0.1009 -0.0492
  749loPI   C6A11652  17.988   7.671   8.237  0.1633  0.2040 -0.1023
  749loPI   C1B11653  17.810   6.918   6.089 -0.1357 -0.0888  0.0487
  749loPI   C2B11654  17.775   6.919   6.490 -0.0464  0.0195 -0.0111
  749loPI   C3B11655  17.887   7.068   6.953 -0.0411 -0.2147  0.2386
  749loPI   C4B11656  17.849   7.081   7.509  0.1499 -0.2072  0.0893
  750loPI    C111657  17.077   6.201   4.823 -0.1918  0.0869 -0.0048
  750loPI    C211658  17.248   6.407   5.121 -0.1879  0.1742 -0.0669
  750loPI    C311659  17.463   6.303   4.800 -0.1217 -0.1519  0.0795
  750loPI   PO411660  17.013   6.027   4.891 -0.1650  0.1523 -0.0732
  750loPI   GL111661  17.052   5.834   5.218 -0.1437 -0.2421  0.0361
  750loPI   GL211662  17.016   6.134   5.431  0.0839 -0.0301  0.1275
  750loPI   C1A11663  17.050   5.641   5.595 -0.1465 -0.3475 -0.2756
  750loPI   C2A11664  17.047   5.694   6.068  0.1808  0.3136 -0.3060
  750loPI   C3A11665  17.126   5.740   6.506  0.3680 -0.0928  0.0187
  750loPI   C4A11666  17.119   5.789   7.028 -0.0719 -0.1649 -0.2099
  750loPI   C5A11667  17.120   5.958   7.459  0.0357 -0.0970  0.3931
  750loPI   C6A11668  16.918   6.298   7.632  0.1527 -0.0242  0.0888
  750loPI   C1B11669  17.118   6.304   5.870 -0.1048  0.0196  0.2053
  750loPI   C2B11670  17.229   6.203   6.300  0.3362 -0.2005 -0.0808
  750loPI   C3B11671  17.314   6.290   6.738  0.0901  0.2073 -0.0417
  750loPI   C4B11672  17.295   6.329   7.180 -0.0639  0.0653 -0.0812
  751loPI    C111673  14.122   6.371   5.093  0.2348  0.1610 -0.0940
  751loPI    C211674  14.492   6.274   5.208  0.1316 -0.0392  0.0747
  751loPI    C311675  14.369   6.187   4.838  0.2100 -0.0910  0.0605
  751loPI   PO411676  14.018   6.196   5.363 -0.0350 -0.1962 -0.1584
  751loPI   GL111677  13.752   6.182   5.792 -0.0069 -0.0655  0.0065
  751loPI   GL211678  13.593   6.464   5.855 -0.1329 -0.0839 -0.0566
  751loPI   C1A11679  13.890   6.235   6.217  0.0048  0.0586 -0.1969
  751loPI   C2A11680  13.877   6.200   6.724 -0.3247  0.1578  0.2213
  751loPI   C3A11681  13.977   6.120   7.129 -0.0488 -0.3740  0.0552
  751loPI   C4A11682  14.012   6.220   7.487 -0.1123 -0.0024  0.1985
  751loPI   C5A11683  14.299   6.397   7.842 -0.3080 -0.0229  0.2668
  751loPI   C6A11684  14.406   6.386   8.265  0.0225 -0.3388 -0.1672
  751loPI   C1B11685  13.408   6.588   6.197  0.0874  0.1042  0.0767
  751loPI   C2B11686  13.500   6.553   6.662 -0.0804 -0.1621 -0.0775
  751loPI   C3B11687  13.606   6.562   7.069 -0.4764 -0.0337  0.0048
  751loPI   C4B11688  13.637   6.540   7.528 -0.0714 -0.2889  0.1810
  752loPI    C111689  18.135  17.523   5.056 -0.0446  0.1883 -0.1600
  752loPI    C211690  17.947  17.174   5.103 -0.0227  0.2075  0.0815
  752loPI    C311691  18.125  17.259   4.756  0.1306 -0.0990  0.0815
  752loPI   PO411692  17.989  17.701   5.212  0.1903 -0.3644 -0.2637
  752loPI   GL111693  17.715  17.556   5.527 -0.3105 -0.4060 -0.2759
  752loPI   GL211694  17.438  17.592   5.511  0.0698  0.1745  0.2373
  752loPI   C1A11695  17.725  17.811   5.903 -0.1147  0.3478  0.0350
  752loPI   C2A11696  17.551  17.993   6.282  0.0849  0.1438  0.0666
  752loPI   C3A11697  17.588  18.164   6.707 -0.2085  0.2477 -0.0869
  752loPI   C4A11698  17.701  18.300   7.155  0.0553  0.1447 -0.0562
  752loPI   C5A11699  18.003  18.339   7.622 -0.4439  0.1751  0.1852
  752loPI   C6A11700  18.267  18.482   7.803  0.0298  0.3498 -0.2520
  752loPI   C1B11701  17.499  17.348   5.903 -0.1115  0.1996 -0.1875
  752loPI   C2B11702  17.754  16.981   6.179  0.1485 -0.2768 -0.1873
  752loPI   C3B11703  18.067  16.974   6.455  0.2248 -0.0689 -0.1707
  752loPI   C4B11704  18.231  16.996   6.844 -0.0648  0.0330  0.1036
  753loPI    C111705  16.600   8.697   5.049 -0.2363  0.2202 -0.0925
  753loPI    C211706  16.682   9.076   4.951 -0.0222  0.1586 -0.1577
  753loPI    C311707  16.544   8.823   4.674 -0.2388  0.2070 -0.0966
  753loPI   PO411708  16.433   8.655   5.257  0.2442  0.0844 -0.0290
  753loPI   GL111709  16.221   8.809   5.600 -0.2204 -0.0070  0.1275
  753loPI   GL211710  15.973   9.071   5.494  0.1420 -0.0585  0.0418
  753loPI   C1A11711  16.303   8.844   6.126  0.0229  0.1334  0.1535
  753loPI   C2A11712  16.217   8.804   6.582  0.0346 -0.0567 -0.1895
  753loPI   C3A11713  16.293   8.802   6.979  0.1515  0.1956 -0.1077
  753loPI   C4A11714  16.302   8.733   7.406 -0.1062  0.1816  0.1361
  753loPI   C5A11715  16.318   8.818   7.853 -0.0405  0.3045  0.3586
  753loPI   C6A11716  16.301   9.256   8.175  0.1042 -0.0017  0.2603
  753loPI   C1B11717  15.839   9.160   5.906  0.2857 -0.0511 -0.0433
  753loPI   C2B11718  15.889   9.125   6.377 -0.2589  0.1182 -0.1981
  753loPI   C3B11719  15.888   9.127   6.806 -0.1452  0.4925  0.0195
  753loPI   C4B11720  15.944   9.187   7.240  0.1966  0.0271 -0.0019
  754loPI    C111721  10.112   9.233   5.072  0.1056  0.1150 -0.1793
  754loPI    C211722   9.858   9.188   4.767  0.1242  0.0701 -0.1882
  754loPI    C311723  10.237   9.295   4.697  0.1483 -0.0129 -0.1867
  754loPI   PO411724  10.101   9.112   5.252  0.1247  0.1456  0.1710
  754loPI   GL111725  10.098   8.995   5.573  0.1526  0.0457 -0.0762
  754loPI   GL211726   9.821   9.026   5.665 -0.3122  0.1436  0.0021
  754loPI   C1A11727  10.348   8.888   5.947 -0.0426 -0.1862 -0.3323
  754loPI   C2A11728  10.357   8.872   6.342  0.3040 -0.1084 -0.1438
  754loPI   C3A11729  10.332   8.788   6.754 -0.0019 -0.2597  0.1260
  754loPI   C4A11730  10.367   8.690   7.175  0.0824 -0.0124 -0.0664
  754loPI   C5A11731  10.319   8.835   7.660 -0.0236 -0.4533  0.0466
  754loPI   C6A11732  10.408   8.989   8.040  0.0670  0.0334  0.1303
  754loPI   C1B11733   9.825   8.805   6.100 -0.3563 -0.1458 -0.2702
  754loPI   C2B11734   9.863   8.682   6.594  0.0777 -0.2401 -0.2067
  754loPI   C3B11735   9.879   8.578   7.121  0.2294  0.0960 -0.0822
  754loPI   C4B11736   9.896   8.637   7.446 -0.1353  0.3478  0.2146
  755loPI    C111737  12.797   2.114   5.024  0.0368  0.1119 -0.2041
  755loPI    C211738  12.406   2.029   5.015  0.0167  0.1940 -0.1200
  755loPI    C311739  12.666   1.798   4.817 -0.0503  0.0087  0.0063
  755loPI   PO411740  12.865   2.143   5.221 -0.1121 -0.1067 -0.0791
  755loPI   GL111741  12.996   1.965   5.621  0.0706  0.0592  0.0027
  755loPI   GL211742  13.058   1.624   5.767  0.0867 -0.0261  0.3838
  755loPI   C1A11743  13.042   2.179   5.953  0.0871 -0.0920  0.1263
  755loPI   C2A11744  13.115   2.597   6.134  0.0476 -0.0639  0.1234
  755loPI   C3A11745  13.194   2.622   6.615 -0.0347 -0.1593 -0.1376
  755loPI   C4A11746  13.188   2.694   7.081 -0.3161  0.0026  0.2785
  755loPI   C5A11747  13.059   2.610   7.479  0.0056  0.0984 -0.1583
  755loPI   C6A11748  12.941   2.328   7.837 -0.2405 -0.0688  0.0417
  755loPI   C1B11749  13.410   1.825   6.064 -0.1279 -0.2381  0.1730
  755loPI   C2B11750  13.393   1.865   6.524  0.2306 -0.0406  0.0954
  755loPI   C3B11751  13.425   1.832   6.975 -0.1980 -0.2875  0.0799
  755loPI   C4B11752  13.374   1.678   7.388  0.1139 -0.0529 -0.4760
  756loPI    C111753  12.523   6.445   4.961  0.0953 -0.0778 -0.0909
  756loPI    C211754  12.605   6.123   4.738 -0.2130 -0.0545 -0.2435
  756loPI    C311755  12.608   6.487   4.573  0.0398  0.0141 -0.0933
  756loPI   PO411756  12.626   6.434   5.198  0.2371 -0.1785  0.0372
  756loPI   GL111757  12.659   6.529   5.596 -0.0149  0.0879 -0.2511
  756loPI   GL211758  12.785   6.209   5.601  0.1141 -0.0182  0.1989
  756loPI   C1A11759  12.422   6.634   5.995  0.0376  0.1096 -0.0496
  756loPI   C2A11760  12.484   6.718   6.425 -0.1986 -0.1655  0.0071
  756loPI   C3A11761  12.619   6.696   6.755 -0.0023 -0.1228 -0.1828
  756loPI   C4A11762  12.751   6.607   7.097 -0.0766 -0.1451  0.2902
  756loPI   C5A11763  12.729   6.505   7.561  0.1648 -0.1490  0.2186
  756loPI   C6A11764  12.805   6.608   7.878 -0.0713  0.0109  0.2526
  756loPI   C1B11765  12.868   6.324   6.002 -0.2094  0.1997 -0.1338
  756loPI   C2B11766  12.979   6.279   6.419  0.0884  0.0998  0.0116
  756loPI   C3B11767  13.093   6.354   6.840  0.0483 -0.3769 -0.1046
  756loPI   C4B11768  13.148   6.334   7.267 -0.1373 -0.1433  0.2530
  757loPI    C111769  12.043   4.932   5.213  0.0232  0.2175 -0.1316
  757loPI    C211770  12.001   5.095   4.850 -0.0840  0.0921 -0.1760
  757loPI    C311771  12.180   4.739   4.891  0.1970  0.2423 -0.0736
  757loPI   PO411772  11.841   5.073   5.357 -0.0919  0.1594  0.0140
  757loPI   GL111773  11.775   5.318   5.713 -0.5523 -0.1612 -0.1063
  757loPI   GL211774  11.433   5.283   5.618 -0.0810 -0.1480  0.1459
  757loPI   C1A11775  11.975   5.338   6.218 -0.3972  0.3664  0.0646
  757loPI   C2A11776  11.887   5.486   6.642 -0.0096 -0.0645 -0.2136
  757loPI   C3A11777  12.002   5.492   7.083 -0.2814 -0.0314 -0.2446
  757loPI   C4A11778  12.124   5.412   7.524  0.0388 -0.4405 -0.0147
  757loPI   C5A11779  12.437   5.388   7.891  0.3168  0.2146  0.0390
  757loPI   C6A11780  12.512   5.351   8.263 -0.1078  0.4646 -0.0721
  757loPI   C1B11781  11.449   5.190   6.039 -0.0281 -0.0438 -0.1286
  757loPI   C2B11782  11.469   5.254   6.443 -0.0811  0.1982 -0.0542
  757loPI   C3B11783  11.424   5.338   6.922 -0.2763 -0.0480 -0.2618
  757loPI   C4B11784  11.430   5.452   7.362  0.0160  0.0932 -0.1094
  758loPI    C111785   2.605   1.468   5.157 -0.3555 -0.1488 -0.0936
  758loPI    C211786   2.641   1.353   4.775 -0.0499 -0.1296 -0.0730
  758loPI    C311787   2.922   1.582   4.942 -0.2124 -0.0874  0.1474
  758loPI   PO411788   2.538   1.358   5.361 -0.3133  0.2346 -0.0462
  758loPI   GL111789   2.297   1.167   5.697 -0.3841 -0.0068  0.0044
  758loPI   GL211790   2.228   0.850   5.613 -0.2089 -0.0275 -0.1044
  758loPI   C1A11791   2.424   1.206   6.118  0.1533  0.1645 -0.0216
  758loPI   C2A11792   2.504   1.245   6.518  0.1636  0.0100  0.0279
  758loPI   C3A11793   2.400   1.498   6.821 -0.2557 -0.1689  0.0601
  758loPI   C4A11794   2.184   1.850   7.172 -0.1206  0.0302  0.1516
  758loPI   C5A11795   1.695   1.919   7.286  0.1556  0.2019  0.3159
  758loPI   C6A11796   1.367   2.051   7.262  0.0353 -0.2656 -0.0709
  758loPI   C1B11797   2.250   0.653   6.036 -0.1245  0.0505  0.0909
  758loPI   C2B11798   2.250   0.626   6.433 -0.3390 -0.0548  0.1337
  758loPI   C3B11799   2.395   0.843   6.826  0.0738 -0.0919 -0.4374
  758loPI   C4B11800   2.077   1.035   7.044 -0.1951  0.0577  0.2854
  759loPI    C111801   4.073   8.505   4.824  0.1814  0.1242 -0.0857
  759loPI    C211802   3.984   8.874   4.698 -0.1031  0.0471 -0.1193
  759loPI    C311803   3.868   8.557   4.484  0.2019 -0.0621 -0.1278
  759loPI   PO411804   4.045   8.604   5.105  0.4223 -0.5046 -0.1466
  759loPI   GL111805   4.255   8.497   5.435  0.2444 -0.0131  0.1159
  759loPI   GL211806   4.328   8.776   5.502  0.0475  0.2242  0.2423
  759loPI   C1A11807   4.358   8.438   5.897  0.0735  0.0518 -0.1521
  759loPI   C2A11808   4.243   8.431   6.262 -0.0867  0.3616  0.2304
  759loPI   C3A11809   4.233   8.425   6.747 -0.1931  0.2731 -0.0063
  759loPI   C4A11810   4.052   8.452   7.131 -0.2432 -0.2347  0.2512
  759loPI   C5A11811   3.825   8.505   7.434 -0.0238 -0.3271  0.2076
  759loPI   C6A11812   3.944   8.637   7.890  0.2754  0.0114 -0.1013
  759loPI   C1B11813   4.124   8.865   5.854 -0.1334  0.1029  0.1020
  759loPI   C2B11814   4.004   8.871   6.302 -0.1457  0.2570 -0.0749
  759loPI   C3B11815   3.950   8.848   6.733  0.3418  0.1660  0.1356
  759loPI   C4B11816   3.814   9.145   7.066 -0.0656 -0.1015  0.0820
  760loPI    C111817  13.354   0.027   5.392 -0.1769  0.0615 -0.0407
  760loPI    C211818  13.559   0.365   5.330  0.1731 -0.0655  0.3726
  760loPI    C311819  13.543   0.086   5.044 -0.0245  0.2457  0.0715
  760loPI   PO411820  13.453  -0.138   5.680  0.1258 -0.0065 -0.3956
  760loPI   GL111821  13.615  -0.061   6.051 -0.0001  0.2214 -0.1154
  760loPI   GL211822  13.860   0.105   6.013 -0.1035 -0.1769 -0.0113
  760loPI   C1A11823  13.530  -0.157   6.512  0.0157 -0.1872  0.3143
  760loPI   C2A11824  13.665  -0.210   6.887  0.1859  0.3954  0.1783
  760loPI   C3A11825  13.843  -0.348   7.193 -0.1138 -0.3318 -0.0392
  760loPI   C4A11826  13.886  -0.723   7.322  0.5450  0.1433 -0.3974
  760loPI   C5A11827  13.980  -0.884   7.732 -0.4250  0.1225  0.3631
  760loPI   C6A11828  14.013  -1.118   8.097  0.0911  0.3036  0.2797
  760loPI   C1B11829  13.899   0.098   6.414 -0.3678  0.0013 -0.1196
  760loPI   C2B11830  14.036   0.137   6.817 -0.2972  0.0404 -0.0855
  760loPI   C3B11831  14.000   0.129   7.229 -0.2018  0.1298 -0.2334
  760loPI   C4B11832  14.023  -0.168   7.601  0.2645 -0.1203  0.0178
  761loPI    C111833  17.712  16.738   5.110  0.1181 -0.0153 -0.1308
  761loPI    C211834  17.540  16.819   4.758  0.0225  0.3580 -0.0030
  761loPI    C311835  17.934  16.747   4.777  0.0168  0.2707 -0.1929
  761loPI   PO411836  17.655  16.489   5.172  0.0368 -0.1266 -0.1324
  761loPI   GL111837  17.484  16.512   5.565  0.3228  0.0262 -0.1763
  761loPI   GL211838  17.756  16.491   5.687  0.2380 -0.1127  0.2428
  761loPI   C1A11839  17.084  16.396   5.755 -0.2509  0.1369 -0.3975
  761loPI   C2A11840  16.993  16.416   6.184  0.0265 -0.1943 -0.0445
  761loPI   C3A11841  17.169  16.668   6.321 -0.1313 -0.2273 -0.1793
  761loPI   C4A11842  17.225  16.607   6.692 -0.1691  0.2183  0.1115
  761loPI   C5A11843  17.320  16.677   7.034  0.2485 -0.1627 -0.0131
  761loPI   C6A11844  17.371  16.691   7.445 -0.3126  0.1780 -0.0369
  761loPI   C1B11845  17.581  16.484   6.120 -0.0574  0.0314  0.1918
  761loPI   C2B11846  17.750  16.572   6.544 -0.1341  0.1910  0.2855
  761loPI   C3B11847  17.773  16.818   6.828  0.0805 -0.1227 -0.3356
  761loPI   C4B11848  17.962  16.825   7.218  0.0520 -0.4366 -0.1229
  762loPI    C111849   3.835  10.689   4.831  0.4445  0.0513  0.0129
  762loPI    C211850   3.647  11.005   4.673  0.0092 -0.1083  0.1966
  762loPI    C311851   3.735  10.688   4.444 -0.1931 -0.1440  0.1661
  762loPI   PO411852   3.741  10.669   5.080 -0.0744  0.2956  0.1122
  762loPI   GL111853   3.654  10.523   5.516 -0.0635 -0.1901  0.0890
  762loPI   GL211854   3.607  10.722   5.737 -0.2890  0.4838 -0.2049
  762loPI   C1A11855   3.661  10.191   5.770 -0.0676 -0.5134  0.1356
  762loPI   C2A11856   3.588  10.012   6.242 -0.1694  0.2146  0.3434
  762loPI   C3A11857   3.271   9.983   6.614  0.1591 -0.0065  0.0557
  762loPI   C4A11858   3.212  10.066   7.124  0.1698 -0.2411 -0.0956
  762loPI   C5A11859   3.145   9.958   7.539 -0.1624  0.0985 -0.1019
  762loPI   C6A11860   2.746   9.723   7.838  0.1277  0.1951 -0.0950
  762loPI   C1B11861   3.426  10.515   6.110  0.1188  0.2678  0.0491
  762loPI   C2B11862   3.340  10.445   6.498 -0.0664  0.1810  0.0644
  762loPI   C3B11863   3.361  10.563   6.953  0.2503 -0.0093 -0.1158
  762loPI   C4B11864   3.318  10.496   7.346  0.1096  0.0227  0.0180
  763loPI    C111865  15.441   4.349   4.728  0.0864  0.1155  0.1079
  763loPI    C211866  15.168   4.115   4.552 -0.1639  0.3383  0.1932
  763loPI    C311867  15.421   4.331   4.329 -0.0579  0.1349  0.1138
  763loPI   PO411868  15.285   4.486   4.984  0.0586  0.2391  0.2581
  763loPI   GL111869  15.278   4.513   5.461 -0.1154  0.0187 -0.1789
  763loPI   GL211870  15.530   4.260   5.524  0.0579 -0.0756 -0.0192
  763loPI   C1A11871  15.267   4.270   5.933  0.0125  0.0639 -0.1497
  763loPI   C2A11872  15.316   4.225   6.313  0.2134  0.0713 -0.2342
  763loPI   C3A11873  15.409   4.275   6.841  0.0663  0.0928  0.1772
  763loPI   C4A11874  15.459   4.218   7.321  0.1489  0.2855 -0.1041
  763loPI   C5A11875  15.407   4.450   7.694 -0.0613 -0.0954 -0.4507
  763loPI   C6A11876  15.530   4.466   8.088  0.1670 -0.1269 -0.3178
  763loPI   C1B11877  15.661   4.013   5.876 -0.1167 -0.0071 -0.0281
  763loPI   C2B11878  15.633   3.562   6.004 -0.3403 -0.1850  0.1631
  763loPI   C3B11879  15.533   3.368   6.303 -0.0662  0.0558 -0.0803
  763loPI   C4B11880  15.658   3.365   6.741 -0.1466  0.0360 -0.0562
  764loPI    C111881   0.299   4.564   4.977 -0.1018 -0.0929  0.0997
  764loPI    C211882   0.321   4.243   4.740 -0.1172  0.0065 -0.0370
  764loPI    C311883   0.544   4.262   5.071 -0.0564 -0.1097 -0.0708
  764loPI   PO411884   0.144   4.654   5.107 -0.1935 -0.1636 -0.3138
  764loPI   GL111885   0.107   4.572   5.498 -0.1037  0.0648  0.2981
  764loPI   GL211886   0.393   4.299   5.594  0.0711 -0.1545 -0.1504
  764loPI   C1A11887  -0.147   4.631   5.824  0.0968  0.1030 -0.0594
  764loPI   C2A11888  -0.211   4.679   6.217  0.2150 -0.0722 -0.0092
  764loPI   C3A11889  -0.156   4.692   6.570 -0.1011 -0.1739 -0.0348
  764loPI   C4A11890  -0.109   4.793   6.985 -0.1379  0.0100  0.3637
  764loPI   C5A11891  -0.381   5.140   7.166 -0.0975  0.0096  0.1883
  764loPI   C6A11892  -0.580   5.274   7.532  0.0516 -0.4218  0.1461
  764loPI   C1B11893   0.225   4.311   6.008 -0.3398  0.2768 -0.0671
  764loPI   C2B11894   0.234   4.374   6.392 -0.0629 -0.1029 -0.0847
  764loPI   C3B11895   0.288   4.302   6.870  0.0748 -0.1022  0.0362
  764loPI   C4B11896   0.304   4.501   7.258 -0.0581 -0.4755  0.2365
  765loPI    C111897   9.413  12.508   5.020  0.1768 -0.3634 -0.1218
  765loPI    C211898   9.588  12.669   4.698  0.0205  0.2448  0.0843
  765loPI    C311899   9.191  12.620   4.707  0.0169  0.2936  0.2099
  765loPI   PO411900   9.631  12.492   5.166 -0.0976 -0.3444 -0.1416
  765loPI   GL111901   9.500  12.366   5.516 -0.0805  0.2853  0.2650
  765loPI   GL211902   9.784  12.361   5.628  0.1205  0.0563  0.0905
  765loPI   C1A11903   9.363  12.516   5.848  0.3398  0.0417 -0.0915
  765loPI   C2A11904   9.309  12.497   6.282  0.0982 -0.0547 -0.0721
  765loPI   C3A11905   9.288  12.549   6.691  0.1813 -0.1023 -0.3056
  765loPI   C4A11906   9.222  12.540   7.163  0.0287 -0.0325  0.1096
  765loPI   C5A11907   9.577  12.455   7.389 -0.3008  0.1853 -0.1969
  765loPI   C6A11908   9.811  12.583   7.770  0.0650 -0.0291  0.0450
  765loPI   C1B11909   9.917  12.223   5.938 -0.0390  0.0650  0.1648
  765loPI   C2B11910  10.157  12.442   6.408 -0.0350  0.2659  0.0429
  765loPI   C3B11911  10.120  12.717   6.786  0.1807  0.4167  0.0897
  765loPI   C4B11912  10.173  12.421   7.141 -0.0265 -0.1286  0.0204
  766loPI    C111913   8.322  15.838   5.469  0.2914  0.2087 -0.0976
  766loPI    C211914   7.925  15.833   5.422  0.2730  0.0383  0.0665
  766loPI    C311915   8.153  16.048   5.173  0.0963 -0.0349 -0.1613
  766loPI   PO411916   8.334  15.632   5.677 -0.0632  0.1157  0.1579
  766loPI   GL111917   8.469  15.582   6.143 -0.0173 -0.0470 -0.3326
  766loPI   GL211918   8.421  15.199   6.139 -0.3813  0.3660  0.0381
  766loPI   C1A11919   8.468  15.554   6.634 -0.1114 -0.0407 -0.0769
  766loPI   C2A11920   8.278  15.193   6.826  0.0028  0.1182  0.1887
  766loPI   C3A11921   8.175  15.038   7.146 -0.0710  0.3785  0.0876
  766loPI   C4A11922   7.948  14.727   7.279 -0.1613  0.2743  0.1050
  766loPI   C5A11923   7.861  14.348   7.518  0.4307 -0.0074  0.2355
  766loPI   C6A11924   7.947  14.075   7.815 -0.2695  0.3109 -0.0572
  766loPI   C1B11925   8.051  15.041   6.398  0.6004 -0.0046  0.1440
  766loPI   C2B11926   7.802  14.892   6.805  0.1366  0.2626  0.4699
  766loPI   C3B11927   7.645  14.549   6.967  0.0440 -0.2648 -0.1512
  766loPI   C4B11928   7.674  14.185   7.070  0.0586  0.1609  0.0899
  767loPI    C111929  13.905  10.288   5.104 -0.0961  0.0012  0.0031
  767loPI    C211930  14.071  10.064   5.391  0.0980  0.0177 -0.0943
  767loPI    C311931  13.793   9.907   5.149  0.0510 -0.0430 -0.0014
  767loPI   PO411932  13.832  10.493   5.257 -0.0268  0.1617  0.0265
  767loPI   GL111933  13.926  10.689   5.666 -0.0251  0.3112  0.2600
  767loPI   GL211934  13.919  10.727   5.954 -0.2610 -0.0446  0.0720
  767loPI   C1A11935  13.784  10.260   5.849 -0.1480 -0.2568 -0.0914
  767loPI   C2A11936  13.922  10.142   6.263  0.1199 -0.0811 -0.0704
  767loPI   C3A11937  13.777  10.382   6.690  0.1952 -0.1318  0.0245
  767loPI   C4A11938  13.909  10.349   7.114 -0.0117  0.0240 -0.3513
  767loPI   C5A11939  13.863  10.151   7.578  0.3332 -0.0180  0.2283
  767loPI   C6A11940  13.771  10.310   7.934  0.1595 -0.1096  0.1683
  767loPI   C1B11941  13.996  10.750   6.434  0.1658 -0.0295  0.0628
  767loPI   C2B11942  14.020  10.903   6.859  0.0084 -0.4591  0.0660
  767loPI   C3B11943  13.940  10.839   7.299  0.3602 -0.1100 -0.1606
  767loPI   C4B11944  13.867  10.799   7.727  0.0176  0.1334 -0.0915
  768loPI    C111945   9.282  14.841   5.303 -0.0270  0.0477  0.0033
  768loPI    C211946   9.607  14.820   5.069  0.1101  0.0624  0.1899
  768loPI    C311947   9.277  15.004   4.937  0.1891  0.0793  0.0126
  768loPI   PO411948   9.276  14.623   5.366  0.0648 -0.1403  0.2093
  768loPI   GL111949   9.486  14.593   5.898 -0.1106  0.0303  0.2478
  768loPI   GL211950   9.156  14.595   6.080 -0.0696 -0.1083  0.0728
  768loPI   C1A11951   9.611  14.456   6.243  0.3660  0.4434  0.1122
  768loPI   C2A11952   9.547  14.422   6.645 -0.1432 -0.1486  0.2274
  768loPI   C3A11953   9.501  14.375   7.125 -0.2598 -0.0274  0.3438
  768loPI   C4A11954   9.783  14.231   7.422 -0.2111 -0.0794  0.1104
  768loPI   C5A11955   9.702  14.220   7.873 -0.1881 -0.0081 -0.0780
  768loPI   C6A11956   9.343  14.031   8.132 -0.0358 -0.0586  0.0915
  768loPI   C1B11957   9.126  14.675   6.545 -0.0072  0.0334 -0.0764
  768loPI   C2B11958   9.199  14.727   6.957 -0.0082  0.1580  0.3336
  768loPI   C3B11959   8.985  14.389   7.302 -0.0806  0.1893 -0.1367
  768loPI   C4B11960   8.943  14.299   7.749 -0.1338 -0.1271 -0.0652
  769loPI    C111961   1.673  14.819   5.176  0.0076 -0.0544 -0.0213
  769loPI    C211962   1.707  15.205   5.077 -0.1105  0.0257  0.2414
  769loPI    C311963   1.345  15.035   5.099 -0.0473 -0.1572 -0.0777
  769loPI   PO411964   1.879  14.767   5.406 -0.0600 -0.1433  0.3734
  769loPI   GL111965   2.090  14.882   5.814 -0.0527  0.0586  0.0215
  769loPI   GL211966   2.287  14.719   5.892  0.0737  0.1683 -0.1798
  769loPI   C1A11967   1.936  14.898   6.252  0.1764  0.0337  0.1121
  769loPI   C2A11968   1.890  14.860   6.663 -0.0502  0.0140  0.0779
  769loPI   C3A11969   1.810  14.786   7.030 -0.2643  0.6697 -0.1842
  769loPI   C4A11970   1.932  14.471   7.437 -0.1477  0.0650 -0.0459
  769loPI   C5A11971   1.925  14.082   7.639  0.1834  0.1758 -0.0066
  769loPI   C6A11972   1.968  13.662   7.930 -0.4211  0.1677  0.0346
  769loPI   C1B11973   2.197  14.494   6.383 -0.0336 -0.1620  0.0129
  769loPI   C2B11974   2.234  14.362   6.854 -0.3949  0.2924  0.1356
  769loPI   C3B11975   2.477  14.351   7.212 -0.1471 -0.0574 -0.2980
  769loPI   C4B11976   2.643  14.530   7.619  0.3863 -0.2616  0.2258
  770loPI    C111977  13.509   5.983   5.221  0.1731 -0.0290  0.2174
  770loPI    C211978  13.493   5.901   4.830 -0.0666  0.0134  0.2170
  770loPI    C311979  13.658   6.243   4.955 -0.2630  0.1417  0.1311
  770loPI   PO411980  13.590   5.807   5.340 -0.1386 -0.0467  0.2968
  770loPI   GL111981  13.831   5.714   5.633 -0.0481 -0.1642  0.1137
  770loPI   GL211982  14.154   5.811   5.633 -0.2831  0.0496  0.0115
  770loPI   C1A11983  13.762   5.772   6.057 -0.0374 -0.0950  0.2708
  770loPI   C2A11984  13.669   5.628   6.462 -0.0447  0.1341  0.0737
  770loPI   C3A11985  13.874   5.646   6.851  0.2516  0.0339 -0.0169
  770loPI   C4A11986  13.915   5.676   7.343  0.0463  0.0668  0.0857
  770loPI   C5A11987  13.837   5.664   7.782 -0.0197 -0.0691 -0.1528
  770loPI   C6A11988  13.384   5.849   7.896 -0.0279  0.1017  0.1898
  770loPI   C1B11989  14.257   5.908   5.995 -0.2044 -0.2101 -0.2418
  770loPI   C2B11990  14.204   5.863   6.441 -0.0776 -0.0952 -0.0635
  770loPI   C3B11991  14.263   5.894   6.813 -0.0320 -0.2195  0.2539
  770loPI   C4B11992  14.385   5.823   7.208 -0.0695  0.2281  0.3295
  771loPI    C111993  15.777  12.519   4.998  0.0837  0.2103  0.0926
  771loPI    C211994  15.508  12.812   4.955  0.3210  0.4269  0.0562
  771loPI    C311995  15.716  12.684   4.638  0.1134  0.1118  0.0420
  771loPI   PO411996  15.929  12.688   5.257  0.2973  0.1030 -0.3633
  771loPI   GL111997  15.909  12.879   5.588 -0.0488 -0.0436  0.0534
  771loPI   GL211998  16.256  12.928   5.619 -0.3326 -0.2126  0.1218
  771loPI   C1A11999  15.823  12.902   6.062 -0.2198 -0.0902  0.1288
  771loPI   C2A12000  15.699  12.855   6.473 -0.4821  0.2486  0.1037
  771loPI   C3A12001  15.829  12.964   6.892 -0.1122 -0.0246 -0.0931
  771loPI   C4A12002  16.252  13.050   7.123 -0.0168  0.1789  0.2392
  771loPI   C5A12003  16.398  13.105   7.527  0.0194 -0.0061 -0.1450
  771loPI   C6A12004  16.738  12.957   7.701  0.2561 -0.0993 -0.2739
  771loPI   C1B12005  16.288  13.075   6.011 -0.1046  0.2226  0.2667
  771loPI   C2B12006  16.268  13.047   6.396  0.1669 -0.0516 -0.5472
  771loPI   C3B12007  16.459  12.746   6.668 -0.0731  0.2475 -0.0037
  771loPI   C4B12008  16.600  12.741   7.052 -0.4256  0.1175 -0.1384
  772loPI    C112009  17.082  11.234   5.212  0.0695 -0.2432  0.1593
  772loPI    C212010  17.046  11.296   4.818  0.5961 -0.1095  0.1245
  772loPI    C312011  16.814  11.026   5.000  0.2138 -0.0362 -0.2382
  772loPI   PO412012  17.310  11.265   5.260 -0.2139  0.1919  0.1938
  772loPI   GL112013  17.447  11.296   5.632  0.0556 -0.0531  0.2997
  772loPI   GL212014  17.667  11.220   5.939  0.2388  0.2921  0.3217
  772loPI   C1A12015  17.309  11.518   6.051  0.1773 -0.1360 -0.0031
  772loPI   C2A12016  17.303  11.470   6.494  0.1808 -0.0786  0.0541
  772loPI   C3A12017  17.281  11.455   6.917  0.2321 -0.2691 -0.4356
  772loPI   C4A12018  17.202  11.436   7.393  0.0029 -0.1252  0.0937
  772loPI   C5A12019  17.141  11.521   7.806 -0.1622  0.1362  0.2503
  772loPI   C6A12020  17.196  11.610   8.337 -0.0828 -0.0529  0.0854
  772loPI   C1B12021  17.705  11.273   6.330 -0.0070 -0.0335 -0.3082
  772loPI   C2B12022  17.644  11.159   6.793 -0.1741 -0.3929  0.2201
  772loPI   C3B12023  17.599  11.178   7.272  0.2577  0.0392 -0.2608
  772loPI   C4B12024  17.530  11.174   7.778 -0.0404 -0.1250 -0.4549
  773loPI    C112025  16.951   1.676   4.882 -0.1272 -0.0391 -0.0353
  773loPI    C212026  17.087   1.664   4.507 -0.2285 -0.0105 -0.0732
  773loPI    C312027  16.753   1.468   4.604 -0.3478  0.1970 -0.0590
  773loPI   PO412028  17.208   1.640   5.041  0.2896  0.0688 -0.1317
  773loPI   GL112029  17.092   1.432   5.457 -0.1326  0.3418 -0.1008
  773loPI   GL212030  16.846   1.472   5.389  0.0497 -0.1075 -0.3416
  773loPI   C1A12031  17.164   1.468   5.882 -0.0613  0.1144 -0.3080
  773loPI   C2A12032  17.052   1.515   6.316 -0.4725  0.0171 -0.0983
  773loPI   C3A12033  16.891   1.531   6.642 -0.3193 -0.3453  0.1410
  773loPI   C4A12034  17.010   1.657   7.026 -0.0261 -0.1924 -0.2138
  773loPI   C5A12035  16.997   1.606   7.409  0.1303 -0.0375 -0.0221
  773loPI   C6A12036  17.143   1.650   7.805 -0.1713 -0.1093 -0.0532
  773loPI   C1B12037  16.511   1.341   5.745 -0.1812 -0.1820  0.0987
  773loPI   C2B12038  16.530   1.402   6.206 -0.1471  0.2008 -0.0216
  773loPI   C3B12039  16.440   1.386   6.714 -0.0662 -0.0573 -0.2034
  773loPI   C4B12040  16.523   1.483   7.173 -0.3537  0.2742  0.1505
  774loPI    C112041   2.163  11.461   4.886  0.1136 -0.0733 -0.0495
  774loPI    C212042   2.042  11.723   4.609  0.1023  0.2443  0.2487
  774loPI    C312043   2.404  11.555   4.580 -0.0362 -0.0018 -0.1467
  774loPI   PO412044   2.107  11.498   5.082  0.3587 -0.0677 -0.2115
  774loPI   GL112045   1.878  11.631   5.503 -0.1654  0.1610 -0.1510
  774loPI   GL212046   2.198  11.655   5.637  0.1979 -0.1993 -0.0127
  774loPI   C1A12047   1.918  11.778   6.028  0.0574 -0.3278 -0.0139
  774loPI   C2A12048   1.775  11.909   6.474 -0.0607  0.2256 -0.0124
  774loPI   C3A12049   1.776  11.986   6.854 -0.0240  0.0423 -0.2073
  774loPI   C4A12050   1.854  12.008   7.307  0.1393 -0.3264 -0.1354
  774loPI   C5A12051   1.982  11.903   7.701  0.1285 -0.0824  0.3411
  774loPI   C6A12052   2.235  11.846   8.015  0.0186  0.0031 -0.0295
  774loPI   C1B12053   2.169  11.343   5.943  0.0695  0.1089 -0.2126
  774loPI   C2B12054   2.034  11.051   6.272 -0.0149 -0.2333  0.1633
  774loPI   C3B12055   2.110  11.101   6.672  0.1116  0.2130  0.2645
  774loPI   C4B12056   2.070  11.133   7.065 -0.1029  0.1145  0.1463
  775loPI    C112057   9.185  13.711   5.630 -0.0495  0.0237  0.0503
  775loPI    C212058   9.188  13.605   5.245  0.1663 -0.4154  0.1665
  775loPI    C312059   9.524  13.735   5.419 -0.0300  0.2112  0.1013
  775loPI   PO412060   8.975  13.896   5.681  0.2488 -0.1839  0.0807
  775loPI   GL112061   8.877  14.094   6.006 -0.2087  0.2001 -0.3319
  775loPI   GL212062   8.832  13.758   6.161 -0.3428 -0.0325  0.0411
  775loPI   C1A12063   8.804  14.373   6.351  0.0285 -0.0742  0.2240
  775loPI   C2A12064   8.804  14.331   6.771  0.0320  0.3094  0.0822
  775loPI   C3A12065   8.674  14.070   7.067  0.4148 -0.1524 -0.1571
  775loPI   C4A12066   8.769  13.946   7.473 -0.0007  0.0847  0.0306
  775loPI   C5A12067   8.968  13.801   7.886  0.0895  0.0436  0.0044
  775loPI   C6A12068   9.004  13.498   8.224 -0.0386 -0.5431  0.0247
  775loPI   C1B12069   8.814  13.803   6.659 -0.0085 -0.1932 -0.1178
  775loPI   C2B12070   8.909  13.562   7.054  0.1361  0.2597  0.1670
  775loPI   C3B12071   9.087  13.456   7.432  0.0214  0.4119 -0.0268
  775loPI   C4B12072   8.973  13.187   7.810 -0.2717 -0.3324  0.1513
  776loPI    C112073  14.463   0.492   5.038  0.0817  0.0160  0.1093
  776loPI    C212074  14.829   0.388   4.913  0.1022  0.0578  0.1340
  776loPI    C312075  14.681   0.749   4.822 -0.0978 -0.1107 -0.2286
  776loPI   PO412076  14.437   0.365   5.248 -0.2506  0.0071  0.1035
  776loPI   GL112077  14.335   0.392   5.680  0.5184 -0.1342 -0.0114
  776loPI   GL212078  14.529   0.703   5.684 -0.0334 -0.1036 -0.4099
  776loPI   C1A12079  14.340   0.175   6.063 -0.1445 -0.0402  0.2048
  776loPI   C2A12080  14.427   0.236   6.457  0.0939 -0.1543  0.1177
  776loPI   C3A12081  14.477   0.193   6.953  0.1348  0.1444  0.1047
  776loPI   C4A12082  14.492   0.218   7.439 -0.2303  0.2167  0.0257
  776loPI   C5A12083  14.791   0.323   7.876  0.0754  0.2112  0.0898
  776loPI   C6A12084  14.679   0.631   8.194  0.0662  0.2416  0.0384
  776loPI   C1B12085  14.521   0.660   6.187  0.1926 -0.1303 -0.2825
  776loPI   C2B12086  14.559   0.711   6.687 -0.2216 -0.1653 -0.0225
  776loPI   C3B12087  14.550   0.716   7.177  0.1889 -0.0149 -0.0087
  776loPI   C4B12088  14.536   0.680   7.631  0.2144  0.0147  0.2226
  777loPI    C112089   0.559  17.479   4.779 -0.0282  0.0372 -0.1026
  777loPI    C212090   0.831  17.744   4.653  0.0631 -0.0797 -0.1525
  777loPI    C312091   0.520  17.650   4.419 -0.0186  0.0509 -0.0972
  777loPI   PO412092   0.453  17.637   5.130 -0.3736 -0.0007 -0.1785
  777loPI   GL112093   0.285  17.660   5.543  0.0358 -0.3211 -0.1374
  777loPI   GL212094   0.573  17.513   5.797  0.2011 -0.3425  0.2152
  777loPI   C1A12095   0.120  17.430   5.826  0.2715 -0.1443 -0.0479
  777loPI   C2A12096  -0.055  17.384   6.255 -0.1553 -0.2314 -0.0144
  777loPI   C3A12097  -0.412  17.395   6.684 -0.1148  0.0430 -0.0441
  777loPI   C4A12098  -0.457  17.294   7.145  0.2307  0.0792  0.0452
  777loPI   C5A12099  -0.419  17.401   7.656 -0.1075 -0.0538  0.1552
  777loPI   C6A12100  -0.160  17.575   7.900 -0.0431 -0.3377 -0.0504
  777loPI   C1B12101   0.515  17.204   6.074  0.3101  0.1985  0.1670
  777loPI   C2B12102   0.520  17.290   6.469 -0.0701  0.1334  0.0054
  777loPI   C3B12103   0.642  17.156   6.929  0.0301  0.2157  0.2976
  777loPI   C4B12104   0.653  16.856   7.160 -0.0416 -0.1188 -0.0119
  778loPI    C112105   6.961   5.145   5.085  0.0279 -0.2219  0.0180
  778loPI    C212106   7.319   5.076   4.921  0.0605 -0.1197  0.0451
  778loPI    C312107   7.105   5.394   4.807 -0.0630 -0.2316 -0.0383
  778loPI   PO412108   6.960   5.178   5.397  0.0806 -0.2582  0.1140
  778loPI   GL112109   6.802   5.312   5.688  0.1052 -0.1867 -0.4399
  778loPI   GL212110   6.597   5.325   5.975 -0.0445  0.0482 -0.3542
  778loPI   C1A12111   7.024   5.619   6.016  0.2463 -0.0560  0.1142
  778loPI   C2A12112   7.069   5.615   6.454  0.5607  0.1122  0.1360
  778loPI   C3A12113   7.285   5.598   6.805 -0.1092 -0.0037  0.4190
  778loPI   C4A12114   7.443   5.767   7.286  0.0782  0.1260  0.1108
  778loPI   C5A12115   7.497   5.668   7.661 -0.0792 -0.1120 -0.1479
  778loPI   C6A12116   7.897   5.863   7.754 -0.0215  0.0482 -0.0468
  778loPI   C1B12117   6.570   5.573   6.294  0.2039  0.0660 -0.2533
  778loPI   C2B12118   6.554   5.652   6.767  0.0958 -0.3283  0.0881
  778loPI   C3B12119   6.442   5.672   7.269  0.2071 -0.2044  0.1737
  778loPI   C4B12120   6.518   5.745   7.593 -0.0610  0.1013 -0.0487
  779loPI    C112121   4.487   8.162   4.876  0.0123  0.1336  0.1267
  779loPI    C212122   4.574   8.552   4.858  0.0649  0.1238  0.1625
  779loPI    C312123   4.803   8.287   4.665 -0.1186  0.1322 -0.0726
  779loPI   PO412124   4.523   8.094   5.110  0.2098  0.1217 -0.2039
  779loPI   GL112125   4.518   8.112   5.548 -0.4627  0.3192 -0.0167
  779loPI   GL212126   4.755   7.994   5.668  0.2003  0.1346  0.2491
  779loPI   C1A12127   4.113   8.064   5.702  0.0776  0.0684 -0.2011
  779loPI   C2A12128   3.990   8.015   6.124 -0.0524  0.1672 -0.0677
  779loPI   C3A12129   3.997   7.968   6.610 -0.1553 -0.4766  0.0225
  779loPI   C4A12130   4.007   7.985   7.085 -0.2779  0.0726 -0.0188
  779loPI   C5A12131   4.126   7.815   7.408 -0.1716  0.1316 -0.2148
  779loPI   C6A12132   4.096   7.542   7.681  0.0190 -0.1927  0.3413
  779loPI   C1B12133   4.473   8.025   6.045  0.0701 -0.0476  0.0469
  779loPI   C2B12134   4.489   8.058   6.475  0.0820  0.3104  0.1438
  779loPI   C3B12135   4.460   8.030   6.908  0.1025  0.1059 -0.2216
  779loPI   C4B12136   4.403   8.228   7.382  0.1386  0.0099  0.2497
  780loPI    C112137  11.259  11.482   4.997  0.0641  0.0680 -0.1001
  780loPI    C212138  11.036  11.275   5.256  0.0917  0.0503 -0.0903
  780loPI    C312139  11.404  11.148   5.162 -0.0430 -0.1263 -0.3923
  780loPI   PO412140  11.302  11.715   5.095  0.2608  0.1267 -0.1780
  780loPI   GL112141  11.238  11.879   5.498 -0.3552  0.0701  0.0991
  780loPI   GL212142  11.220  11.657   5.542 -0.2130 -0.0944 -0.1947
  780loPI   C1A12143  11.347  11.861   6.034  0.2307 -0.1311 -0.1149
  780loPI   C2A12144  11.308  11.837   6.474  0.0766 -0.0038 -0.0713
  780loPI   C3A12145  11.403  11.910   6.891 -0.1835 -0.1671  0.0402
  780loPI   C4A12146  11.397  11.837   7.351 -0.3778  0.0865  0.0677
  780loPI   C5A12147  11.535  11.861   7.825 -0.2112  0.2908  0.1499
  780loPI   C6A12148  11.612  12.156   8.246 -0.1759  0.1397  0.1911
  780loPI   C1B12149  11.135  11.403   5.833  0.2412  0.1518 -0.0186
  780loPI   C2B12150  11.397  11.394   6.270  0.2565  0.0970 -0.0772
  780loPI   C3B12151  11.299  11.415   6.672 -0.1755 -0.2204  0.0636
  780loPI   C4B12152  11.378  11.391   7.081  0.0079  0.2810 -0.0046
  781loPI    C112153  14.007   5.839   4.957  0.3795 -0.0916  0.0472
  781loPI    C212154  13.839   5.566   4.717  0.2376 -0.0319  0.0776
  781loPI    C312155  13.911   5.936   4.581  0.0651  0.0316  0.1561
  781loPI   PO412156  14.218   5.758   5.046 -0.1995 -0.0897 -0.2026
  781loPI   GL112157  14.417   5.495   5.362  0.1025 -0.2842 -0.1529
  781loPI   GL212158  14.636   5.752   5.412 -0.0787 -0.1878 -0.1958
  781loPI   C1A12159  14.566   5.485   5.829  0.0306 -0.0643 -0.1227
  781loPI   C2A12160  14.666   5.528   6.265  0.0754  0.0133 -0.0016
  781loPI   C3A12161  14.606   5.507   6.685 -0.3238 -0.0337 -0.0040
  781loPI   C4A12162  14.803   5.462   7.095 -0.1957  0.1645  0.2562
  781loPI   C5A12163  14.840   5.613   7.481 -0.0874  0.0276 -0.2996
  781loPI   C6A12164  14.938   5.983   7.614  0.0354 -0.2830  0.0541
  781loPI   C1B12165  14.667   6.058   5.743 -0.2124 -0.3020  0.2010
  781loPI   C2B12166  14.726   6.028   6.175  0.1086  0.0087  0.2401
  781loPI   C3B12167  14.746   5.953   6.622  0.1251  0.0615  0.0874
  781loPI   C4B12168  14.827   6.049   7.035 -0.0077  0.0527  0.0967
  782loPI    C112169  16.422   3.645   4.922 -0.1581 -0.0821  0.0819
  782loPI    C212170  16.024   3.680   4.908 -0.1197  0.3655 -0.0448
  782loPI    C312171  16.250   3.852   4.626  0.1759  0.3191  0.1598
  782loPI   PO412172  16.468   3.690   5.274  0.0787  0.0865 -0.1032
  782loPI   GL112173  16.532   3.711   5.687 -0.1646 -0.1135  0.1519
  782loPI   GL212174  16.781   3.534   5.711  0.0482 -0.1734 -0.0033
  782loPI   C1A12175  16.568   3.774   6.119  0.2146  0.0189 -0.0273
  782loPI   C2A12176  16.568   3.730   6.520 -0.0550 -0.3280 -0.3838
  782loPI   C3A12177  16.647   3.801   6.910 -0.1012 -0.0038 -0.0341
  782loPI   C4A12178  16.753   3.752   7.353 -0.0596 -0.0496 -0.0359
  782loPI   C5A12179  16.659   3.849   7.697  0.0029  0.1230 -0.1064
  782loPI   C6A12180  16.758   3.860   7.994 -0.0782  0.1518  0.1477
  782loPI   C1B12181  16.918   3.401   6.039  0.1292  0.3071  0.2193
  782loPI   C2B12182  16.971   3.366   6.429 -0.0940 -0.0119 -0.2840
  782loPI   C3B12183  17.058   3.381   6.799  0.1758  0.1974 -0.0741
  782loPI   C4B12184  17.126   3.428   7.229 -0.0885  0.0255  0.0929
  783loPI    C112185  13.117   0.588   5.387 -0.0593  0.2517 -0.1076
  783loPI    C212186  13.092   0.858   5.093  0.0834  0.1519 -0.2130
  783loPI    C312187  13.207   0.484   5.011 -0.2099  0.0305 -0.0844
  783loPI   PO412188  13.287   0.748   5.577  0.0184 -0.1497 -0.0558
  783loPI   GL112189  13.183   0.781   6.052  0.2556  0.3079  0.0894
  783loPI   GL212190  13.076   0.531   6.109 -0.0526 -0.0737 -0.3481
  783loPI   C1A12191  13.567   0.949   6.165  0.0190 -0.3657  0.1299
  783loPI   C2A12192  13.678   0.931   6.625 -0.3196  0.1493 -0.2927
  783loPI   C3A12193  13.753   0.951   7.074 -0.0795 -0.0310  0.1466
  783loPI   C4A12194  13.821   0.958   7.512 -0.2134 -0.1548  0.3991
  783loPI   C5A12195  13.510   0.857   7.761  0.2349  0.0659 -0.0381
  783loPI   C6A12196  13.334   0.708   8.119  0.1499  0.0583 -0.2330
  783loPI   C1B12197  13.241   0.736   6.576 -0.0429  0.0421  0.1329
  783loPI   C2B12198  13.269   0.817   6.946  0.2523 -0.2982  0.0458
  783loPI   C3B12199  12.937   0.967   7.048 -0.1043  0.0442  0.1187
  783loPI   C4B12200  12.702   1.119   6.724  0.0579  0.1737  0.0673
  784loPI    C112201  15.442   9.741   5.073 -0.1051 -0.1583 -0.1079
  784loPI    C212202  15.404   9.419   4.840  0.2511 -0.2455 -0.0516
  784loPI    C312203  15.699   9.680   4.773 -0.0536  0.0897 -0.1167
  784loPI   PO412204  15.396   9.661   5.297  0.1928 -0.1192  0.1674
  784loPI   GL112205  15.300   9.576   5.694  0.1304  0.0530  0.1635
  784loPI   GL212206  15.164   9.831   5.775 -0.2330  0.0214  0.0847
  784loPI   C1A12207  15.533   9.497   6.149 -0.1924 -0.1113 -0.1965
  784loPI   C2A12208  15.586   9.528   6.595  0.2658 -0.0088  0.0691
  784loPI   C3A12209  15.520   9.595   7.053  0.2697 -0.1236  0.0651
  784loPI   C4A12210  15.527   9.475   7.537 -0.2976 -0.1868  0.1637
  784loPI   C5A12211  15.555   9.522   7.988 -0.0324  0.2579  0.0229
  784loPI   C6A12212  15.717   9.823   8.280 -0.1436 -0.1030  0.0268
  784loPI   C1B12213  15.181   9.836   6.196  0.0722 -0.0799  0.0041
  784loPI   C2B12214  15.176   9.958   6.723  0.3091  0.2509 -0.4495
  784loPI   C3B12215  15.043   9.860   7.108 -0.0369  0.0471  0.1152
  784loPI   C4B12216  15.077   9.847   7.581  0.1368 -0.0342 -0.0548
  785loPI    C112217   8.193  12.220   5.244  0.0927 -0.2634 -0.1124
  785loPI    C212218   8.534  12.384   5.112 -0.1009  0.1563 -0.1081
  785loPI    C312219   8.233  12.312   4.857 -0.1342  0.1033 -0.0541
  785loPI   PO412220   8.134  12.365   5.504 -0.0810 -0.0319  0.1787
  785loPI   GL112221   8.070  12.293   5.826 -0.0411 -0.2163 -0.0168
  785loPI   GL212222   7.928  11.954   5.757  0.1525  0.1657 -0.2508
  785loPI   C1A12223   8.046  12.102   6.291 -0.1804  0.5437 -0.1926
  785loPI   C2A12224   7.988  11.916   6.674 -0.0108  0.0366  0.4973
  785loPI   C3A12225   7.976  12.015   7.102  0.1361 -0.1718  0.0950
  785loPI   C4A12226   7.942  11.884   7.550  0.3812  0.2128 -0.1959
  785loPI   C5A12227   7.850  11.811   8.023  0.3319  0.2826 -0.1193
  785loPI   C6A12228   7.570  11.534   8.207  0.0137  0.0416  0.3132
  785loPI   C1B12229   8.094  11.692   6.028 -0.0128  0.0068 -0.0816
  785loPI   C2B12230   8.138  11.350   6.263 -0.1017 -0.2763 -0.1524
  785loPI   C3B12231   8.123  11.194   6.688 -0.0014 -0.1727  0.5607
  785loPI   C4B12232   8.019  11.097   6.989  0.1214  0.0002  0.0538
  786loPI    C112233   0.135   3.742   4.853  0.1403  0.0586 -0.0316
  786loPI    C212234   0.252   3.464   4.590  0.2449  0.0307  0.0436
  786loPI    C312235   0.142   3.827   4.462  0.0347 -0.0684 -0.0619
  786loPI   PO412236  -0.008   3.687   5.079 -0.1936  0.0126  0.0986
  786loPI   GL112237  -0.213   3.784   5.415 -0.0165  0.2058 -0.1666
  786loPI   GL212238   0.027   3.890   5.659 -0.2280  0.0006  0.2751
  786loPI   C1A12239  -0.332   3.647   5.839 -0.0573  0.4254  0.0620
  786loPI   C2A12240  -0.353   3.704   6.307  0.1831 -0.2435  0.1623
  786loPI   C3A12241  -0.374   3.762   6.704  0.1304  0.2096  0.1223
  786loPI   C4A12242  -0.312   3.632   7.139 -0.5516  0.1075  0.2403
  786loPI   C5A12243  -0.344   3.678   7.576 -0.0310  0.0569  0.0310
  786loPI   C6A12244  -0.431   3.600   8.032 -0.1671  0.1963  0.0210
  786loPI   C1B12245   0.098   3.817   6.093  0.0737  0.0568  0.1191
  786loPI   C2B12246   0.083   3.933   6.472 -0.0693  0.0635  0.0852
  786loPI   C3B12247   0.119   3.768   6.887  0.0367 -0.0776 -0.3476
  786loPI   C4B12248   0.196   3.800   7.301  0.0800  0.1877 -0.3735
  787loPI    C112249   1.546   3.902   5.213  0.0587  0.0129  0.1143
  787loPI    C212250   1.786   3.991   4.906 -0.0829 -0.1270 -0.0391
  787loPI    C312251   1.398   4.086   4.890 -0.0784 -0.0787  0.1241
  787loPI   PO412252   1.536   4.110   5.469  0.0158  0.1314  0.1988
  787loPI   GL112253   1.675   4.125   5.836 -0.1875 -0.0669 -0.1178
  787loPI   GL212254   1.930   4.190   5.868  0.2732 -0.0128  0.2021
  787loPI   C1A12255   1.548   4.169   6.215 -0.0082 -0.0648 -0.3376
  787loPI   C2A12256   1.625   4.212   6.637 -0.0328  0.0936 -0.1194
  787loPI   C3A12257   1.666   4.207   7.065  0.1602  0.0508  0.1446
  787loPI   C4A12258   1.811   4.364   7.427 -0.0399  0.0455 -0.1231
  787loPI   C5A12259   2.128   4.530   7.628 -0.0110 -0.0254  0.2035
  787loPI   C6A12260   2.321   4.748   7.870 -0.0972  0.0355  0.0223
  787loPI   C1B12261   2.027   4.264   6.306  0.0226 -0.1288  0.2728
  787loPI   C2B12262   2.087   4.348   6.705  0.1016 -0.1753 -0.0823
  787loPI   C3B12263   2.067   4.493   7.051  0.1361 -0.0351  0.0352
  787loPI   C4B12264   2.097   4.835   7.238 -0.3928  0.0166  0.0016
  788loPI    C112265   5.087  15.799   5.486  0.3793  0.1053 -0.0029
  788loPI    C212266   5.287  15.689   5.158 -0.0559 -0.1888 -0.1801
  788loPI    C312267   4.888  15.708   5.151 -0.0585  0.0491  0.2645
  788loPI   PO412268   5.255  16.009   5.541 -0.0820  0.2764  0.5202
  788loPI   GL112269   5.470  16.087   5.806 -0.2214 -0.0714  0.1635
  788loPI   GL212270   5.744  16.233   5.879 -0.4022 -0.1582  0.2259
  788loPI   C1A12271   5.449  15.921   6.198 -0.0901  0.0388 -0.2191
  788loPI   C2A12272   5.477  15.914   6.625  0.0081 -0.0448 -0.2199
  788loPI   C3A12273   5.437  15.954   7.068  0.3674  0.1368 -0.1146
  788loPI   C4A12274   5.547  15.950   7.472 -0.1287  0.2192  0.0163
  788loPI   C5A12275   5.626  16.041   7.930  0.2177  0.2169  0.2890
  788loPI   C6A12276   5.670  16.140   8.392 -0.1982 -0.1678  0.1167
  788loPI   C1B12277   5.519  16.446   6.228  0.0452  0.0211 -0.2090
  788loPI   C2B12278   5.503  16.443   6.638 -0.4904 -0.1799  0.3719
  788loPI   C3B12279   5.578  16.422   7.179 -0.1879  0.1831  0.0663
  788loPI   C4B12280   5.637  16.440   7.587 -0.0024 -0.0645  0.1883
  789loPI    C112281  13.705   1.400   5.044  0.1961 -0.0887 -0.0601
  789loPI    C212282  13.759   1.153   4.734  0.1445 -0.0575 -0.0940
  789loPI    C312283  13.390   1.227   4.869  0.1498  0.0974 -0.1630
  789loPI   PO412284  13.968   1.339   5.180  0.0270  0.2654 -0.2181
  789loPI   GL112285  14.092   1.340   5.557  0.0835  0.0547  0.0300
  789loPI   GL212286  14.253   1.554   5.733 -0.2431  0.0786  0.3341
  789loPI   C1A12287  14.197   1.000   5.875  0.0161 -0.0381  0.0624
  789loPI   C2A12288  14.084   1.041   6.329 -0.0607 -0.2434 -0.2854
  789loPI   C3A12289  14.246   1.063   6.755  0.3032 -0.1710  0.0943
  789loPI   C4A12290  14.259   1.126   7.157  0.3430  0.2393  0.0313
  789loPI   C5A12291  14.290   1.194   7.597  0.1729 -0.2447  0.0190
  789loPI   C6A12292  14.569   1.107   8.030 -0.1434  0.0537  0.0486
  789loPI   C1B12293  14.304   1.513   6.118  0.1484  0.2273 -0.1570
  789loPI   C2B12294  14.214   1.521   6.483  0.1543 -0.0930 -0.1728
  789loPI   C3B12295  14.261   1.623   6.927 -0.0966  0.1417 -0.1498
  789loPI   C4B12296  14.309   1.630   7.388  0.1674  0.0509 -0.0286
  790loPI    C112297   1.841   1.667   5.324  0.0749 -0.0313 -0.1748
  790loPI    C212298   1.498   1.815   5.179 -0.0109  0.1846  0.2332
  790loPI    C312299   1.846   1.908   5.005 -0.1196  0.3468  0.1001
  790loPI   PO412300   1.708   1.532   5.483 -0.2195  0.0806  0.0697
  790loPI   GL112301   1.776   1.559   5.908 -0.1870 -0.1882 -0.0472
  790loPI   GL212302   1.479   1.565   5.960  0.0391  0.0332 -0.2076
  790loPI   C1A12303   2.130   1.612   6.116  0.2013  0.1704 -0.0436
  790loPI   C2A12304   2.315   1.733   6.333  0.1525  0.0407  0.2450
  790loPI   C3A12305   2.135   2.064   6.608  0.1147  0.1910 -0.0009
  790loPI   C4A12306   1.778   1.956   6.781 -0.1165 -0.0098  0.0600
  790loPI   C5A12307   1.443   1.628   6.984  0.3757  0.0838  0.1141
  790loPI   C6A12308   1.008   1.759   6.995  0.1075 -0.2028  0.1086
  790loPI   C1B12309   1.300   1.982   6.177  0.1667  0.0433  0.0192
  790loPI   C2B12310   1.177   2.401   6.261 -0.0734  0.1538  0.2396
  790loPI   C3B12311   1.151   2.799   6.311 -0.0008  0.2368  0.1044
  790loPI   C4B12312   1.236   3.302   6.220 -0.1418 -0.0909 -0.0995
  791loPI    C112313  15.631  16.903   5.154 -0.1530  0.0178  0.0364
  791loPI    C212314  15.661  16.582   5.391 -0.2155  0.1178  0.1812
  791loPI    C312315  15.575  16.537   5.003 -0.1235 -0.0464  0.1790
  791loPI   PO412316  15.491  17.063   5.294  0.1040  0.3142 -0.1018
  791loPI   GL112317  15.196  17.390   5.639  0.0951 -0.3894 -0.2206
  791loPI   GL212318  15.148  17.057   5.669 -0.3563  0.1270 -0.0882
  791loPI   C1A12319  15.473  17.487   6.051 -0.0294 -0.3034 -0.1855
  791loPI   C2A12320  15.556  17.513   6.494 -0.1232  0.0366  0.1756
  791loPI   C3A12321  15.637  17.559   6.965 -0.1594  0.0240 -0.2141
  791loPI   C4A12322  15.697  17.713   7.405  0.2985  0.1462  0.0952
  791loPI   C5A12323  15.647  17.767   7.857 -0.1050 -0.2364 -0.0818
  791loPI   C6A12324  15.683  17.538   8.176 -0.0192 -0.2246 -0.1022
  791loPI   C1B12325  15.188  17.016   6.028  0.4399 -0.0051 -0.0977
  791loPI   C2B12326  15.358  17.060   6.448  0.0105 -0.1501 -0.1382
  791loPI   C3B12327  15.416  17.102   6.844 -0.2540 -0.0693  0.1378
  791loPI   C4B12328  15.551  17.146   7.277 -0.1752  0.0230 -0.3578
  792loPI    C112329   0.065  15.026   5.178 -0.2662 -0.2080 -0.0021
  792loPI    C212330   0.464  15.011   5.207 -0.2444  0.3015  0.0485
  792loPI    C312331   0.280  14.847   4.892 -0.0024  0.0148  0.0522
  792loPI   PO412332   0.041  14.880   5.409  0.0534  0.1787 -0.2081
  792loPI   GL112333   0.183  14.586   5.666  0.0678 -0.0603  0.1121
  792loPI   GL212334   0.554  14.640   5.538  0.0320 -0.0025  0.1245
  792loPI   C1A12335   0.039  14.454   6.030 -0.3405 -0.1562 -0.0933
  792loPI   C2A12336  -0.099  14.507   6.453  0.1644  0.2192  0.1585
  792loPI   C3A12337  -0.160  14.248   6.694 -0.3277 -0.0735 -0.1380
  792loPI   C4A12338  -0.076  14.215   7.107  0.2279 -0.1297  0.0183
  792loPI   C5A12339  -0.245  14.075   7.549 -0.0447  0.0022  0.2589
  792loPI   C6A12340  -0.285  14.361   7.786  0.0912 -0.0419  0.1240
  792loPI   C1B12341   0.567  14.524   5.930  0.2296  0.1962  0.1387
  792loPI   C2B12342   0.467  14.383   6.352  0.2023 -0.1889  0.0273
  792loPI   C3B12343   0.326  14.406   6.733 -0.0935  0.0819  0.2077
  792loPI   C4B12344   0.449  14.342   7.159  0.1305  0.2299  0.2521
  793loPI    C112345   9.704  17.128   5.350 -0.1110  0.2838  0.0691
  793loPI    C212346   9.629  17.387   5.054 -0.1369  0.0447 -0.1366
  793loPI    C312347   9.845  17.058   4.982 -0.1735 -0.0334  0.1035
  793loPI   PO412348   9.771  17.306   5.552 -0.4917 -0.1919  0.0063
  793loPI   GL112349   9.575  17.593   5.790 -0.0410 -0.0344 -0.3945
  793loPI   GL212350   9.201  17.574   5.924  0.2287  0.1333 -0.0929
  793loPI   C1A12351   9.622  17.649   6.231 -0.2091 -0.1410 -0.1090
  793loPI   C2A12352   9.894  17.460   6.552  0.1308  0.3229  0.1085
  793loPI   C3A12353  10.261  17.579   6.555  0.2522  0.4266 -0.2764
  793loPI   C4A12354  10.612  17.624   6.855  0.0112 -0.1788 -0.0750
  793loPI   C5A12355  10.754  17.590   7.321 -0.2245  0.1070 -0.0581
  793loPI   C6A12356  11.155  17.700   7.399 -0.0337 -0.0390  0.3534
  793loPI   C1B12357   9.212  17.378   6.371  0.0318  0.1475  0.0609
  793loPI   C2B12358   9.289  17.332   6.750 -0.0688  0.3846 -0.0821
  793loPI   C3B12359   9.436  17.144   7.105  0.1847  0.0868  0.0408
  793loPI   C4B12360   9.595  17.182   7.489 -0.3512 -0.0629  0.0647
  794loPI    C112361   7.679  16.180   5.118 -0.1055 -0.2231  0.1071
  794loPI    C212362   7.458  16.065   4.806 -0.0061 -0.0826 -0.0167
  794loPI    C312363   7.742  15.823   4.949  0.1272 -0.0394 -0.2046
  794loPI   PO412364   7.503  16.193   5.265  0.1090  0.2307  0.0452
  794loPI   GL112365   7.620  16.239   5.730 -0.1789  0.3508 -0.3655
  794loPI   GL212366   7.445  15.904   5.835 -0.1364 -0.0617  0.1446
  794loPI   C1A12367   7.577  16.265   6.192  0.3132  0.0574  0.2630
  794loPI   C2A12368   7.451  16.251   6.631  0.1222  0.2560  0.1793
  794loPI   C3A12369   7.368  16.211   7.006 -0.0616  0.0896  0.1742
  794loPI   C4A12370   7.181  16.174   7.405 -0.0268 -0.0130  0.1174
  794loPI   C5A12371   7.023  16.300   7.807  0.4347 -0.0064  0.0043
  794loPI   C6A12372   7.046  16.588   8.235  0.0020  0.5350  0.0169
  794loPI   C1B12373   7.493  15.766   6.254 -0.0719  0.1924  0.1068
  794loPI   C2B12374   7.376  15.773   6.651  0.0067  0.0663  0.0685
  794loPI   C3B12375   7.529  15.743   7.093 -0.2798  0.2803 -0.3168
  794loPI   C4B12376   7.331  15.509   7.414  0.0535  0.3890 -0.0980
  795loPI    C112377   4.973   3.288   5.643  0.0249  0.2045  0.1084
  795loPI    C212378   4.789   3.511   5.920 -0.1504  0.0132  0.1490
  795loPI    C312379   4.597   3.411   5.584 -0.0980 -0.1345  0.1620
  795loPI   PO412380   5.128   3.125   5.805 -0.0429  0.1886 -0.1270
  795loPI   GL112381   5.124   3.314   6.245 -0.1827  0.0389  0.2823
  795loPI   GL212382   4.883   3.115   6.258  0.4410  0.2032 -0.0403
  795loPI   C1A12383   5.189   3.447   6.669  0.0126  0.1756 -0.2680
  795loPI   C2A12384   5.168   3.505   7.134 -0.1448  0.0844 -0.2230
  795loPI   C3A12385   5.443   3.504   7.576  0.0386  0.0509 -0.2875
  795loPI   C4A12386   5.492   3.680   7.999  0.2989  0.2378  0.1465
  795loPI   C5A12387   5.646   3.608   8.415  0.0108  0.4122 -0.0709
  795loPI   C6A12388   5.555   3.913   8.673 -0.0021  0.0389 -0.0279
  795loPI   C1B12389   4.871   3.066   6.592  0.1234  0.0231  0.1397
  795loPI   C2B12390   4.826   2.976   7.039 -0.0920 -0.3516  0.1184
  795loPI   C3B12391   4.835   2.857   7.437 -0.2401 -0.1179 -0.1448
  795loPI   C4B12392   4.569   2.813   7.674 -0.1200 -0.2328  0.1510
  796loPI    C112393  12.705  15.412   5.376  0.2661 -0.0330  0.2434
  796loPI    C212394  12.855  15.745   5.215 -0.0490 -0.1174 -0.2474
  796loPI    C312395  12.951  15.389   5.061  0.0709 -0.2405  0.1029
  796loPI   PO412396  12.733  15.422   5.634 -0.0618  0.1320 -0.2951
  796loPI   GL112397  12.806  15.192   5.945  0.1571 -0.1696 -0.1491
  796loPI   GL212398  13.087  15.093   6.177  0.3169 -0.0722 -0.0778
  796loPI   C1A12399  12.522  15.010   6.218  0.3604  0.0561 -0.3362
  796loPI   C2A12400  12.241  14.979   6.658 -0.1757  0.0556  0.0507
  796loPI   C3A12401  12.331  15.038   7.103  0.0416 -0.0736 -0.3420
  796loPI   C4A12402  12.287  15.343   7.486 -0.2457 -0.0780  0.3385
  796loPI   C5A12403  12.389  15.592   7.835  0.2009  0.0116 -0.1318
  796loPI   C6A12404  12.301  15.893   8.247  0.2257  0.3057  0.1687
  796loPI   C1B12405  13.273  15.103   6.621  0.0455 -0.0224  0.1982
  796loPI   C2B12406  13.166  14.738   6.941 -0.3249 -0.0258 -0.1982
  796loPI   C3B12407  12.875  14.678   7.186  0.1393 -0.0532  0.0913
  796loPI   C4B12408  12.679  14.792   7.494  0.1942 -0.0470 -0.0184
  797loPI    C112409   4.072  17.771   5.099 -0.3160 -0.1281  0.0932
  797loPI    C212410   3.970  17.407   4.968 -0.0459 -0.1515 -0.0596
  797loPI    C312411   4.351  17.527   4.948 -0.1410  0.1590 -0.0556
  797loPI   PO412412   3.893  17.764   5.383  0.0408  0.2548  0.0316
  797loPI   GL112413   4.012  17.818   5.815 -0.1658  0.2980 -0.1337
  797loPI   GL212414   4.330  17.894   6.002  0.1577 -0.2241 -0.1826
  797loPI   C1A12415   3.834  18.044   6.158 -0.1297  0.0608 -0.2720
  797loPI   C2A12416   3.935  18.169   6.576  0.1051 -0.2456  0.0115
  797loPI   C3A12417   4.116  18.143   6.887  0.0783 -0.3086 -0.0566
  797loPI   C4A12418   4.035  18.132   7.368  0.1178  0.1251  0.2569
  797loPI   C5A12419   3.883  18.018   7.825 -0.1440  0.2057  0.0739
  797loPI   C6A12420   3.831  17.990   8.188  0.0838 -0.2512  0.0125
  797loPI   C1B12421   4.307  17.898   6.439 -0.1350 -0.3414 -0.1739
  797loPI   C2B12422   4.507  17.822   6.799 -0.4523  0.2367 -0.1080
  797loPI   C3B12423   4.369  17.832   7.224  0.1033  0.2648  0.1191
  797loPI   C4B12424   4.516  17.821   7.616  0.3097 -0.1196 -0.1286
  798loPI    C112425  12.022  15.157   5.540 -0.1550  0.2394 -0.1244
  798loPI    C212426  12.254  15.210   5.861 -0.1502 -0.0291 -0.0816
  798loPI    C312427  12.260  15.478   5.564  0.0199  0.0996  0.0359
  798loPI   PO412428  11.744  15.076   5.679 -0.4268  0.3789 -0.0384
  798loPI   GL112429  11.644  14.953   6.095 -0.2278 -0.1227  0.0622
  798loPI   GL212430  11.498  15.254   6.321  0.0710 -0.0809 -0.0081
  798loPI   C1A12431  11.823  14.851   6.467 -0.2698  0.0771  0.0172
  798loPI   C2A12432  11.851  14.860   6.902 -0.1965  0.0161  0.0377
  798loPI   C3A12433  11.924  14.524   7.141  0.3344  0.1188  0.0291
  798loPI   C4A12434  11.792  14.190   7.524  0.0296 -0.1574  0.1637
  798loPI   C5A12435  11.669  13.758   7.523 -0.1361 -0.2358  0.1020
  798loPI   C6A12436  11.603  13.457   7.800 -0.0807  0.1532 -0.1424
  798loPI   C1B12437  11.687  15.311   6.849 -0.0783  0.0119 -0.1762
  798loPI   C2B12438  11.777  15.018   7.352  0.1490  0.4055 -0.0768
  798loPI   C3B12439  12.067  14.889   7.597  0.0279  0.0108 -0.1850
  798loPI   C4B12440  12.264  15.074   7.924  0.1594 -0.0091  0.0251
  799loPI    C112441   2.040   9.314   4.915 -0.0092  0.1228 -0.2483
  799loPI    C212442   1.680   9.198   4.787 -0.0288 -0.1599  0.0491
  799loPI    C312443   1.945   9.350   4.528 -0.3036 -0.0928 -0.1989
  799loPI   PO412444   1.977   9.483   5.099  0.2312  0.3351  0.1402
  799loPI   GL112445   1.990   9.496   5.538 -0.1030 -0.0791 -0.0086
  799loPI   GL212446   2.224   9.811   5.505 -0.0349  0.2328 -0.1848
  799loPI   C1A12447   1.866   9.368   5.887  0.1437  0.0406  0.1154
  799loPI   C2A12448   1.856   9.425   6.250 -0.1388  0.0164 -0.0742
  799loPI   C3A12449   1.622   9.538   6.630 -0.0962 -0.1551  0.1953
  799loPI   C4A12450   1.624   9.658   7.171  0.2180 -0.1088  0.1612
  799loPI   C5A12451   1.769   9.856   7.486  0.1241  0.0582  0.2484
  799loPI   C6A12452   1.900   9.842   7.901 -0.1323 -0.4600 -0.2403
  799loPI   C1B12453   2.265   9.720   5.936  0.0876  0.1691  0.1747
  799loPI   C2B12454   2.279   9.734   6.392 -0.0862 -0.3319 -0.1648
  799loPI   C3B12455   2.148   9.667   6.807  0.1644  0.0254 -0.0415
  799loPI   C4B12456   2.163   9.820   7.154 -0.1369  0.1718 -0.0147
  800loPI    C112457  13.022   5.098   4.812 -0.0341  0.0553  0.2434
  800loPI    C212458  12.663   5.141   4.641  0.0485 -0.0844  0.0307
  800loPI    C312459  12.981   5.331   4.490  0.0825 -0.0349  0.1626
  800loPI   PO412460  12.976   5.105   5.029  0.0090  0.0572  0.0677
  800loPI   GL112461  13.122   5.173   5.476  0.1632  0.1454  0.1272
  800loPI   GL212462  13.396   5.311   5.521  0.0895  0.1769 -0.0915
  800loPI   C1A12463  12.970   5.289   5.864 -0.0052  0.1175  0.1322
  800loPI   C2A12464  12.787   5.343   6.324  0.3694  0.0159  0.2724
  800loPI   C3A12465  12.824   5.308   6.765  0.1642 -0.1924  0.1647
  800loPI   C4A12466  12.767   5.258   7.153 -0.0237  0.3108  0.0051
  800loPI   C5A12467  12.891   5.274   7.577 -0.0852 -0.2054 -0.3777
  800loPI   C6A12468  12.851   5.093   8.058 -0.0236  0.1016 -0.0460
  800loPI   C1B12469  13.466   5.161   5.858  0.1381 -0.1516 -0.0260
  800loPI   C2B12470  13.663   5.160   6.289  0.1136  0.1093 -0.2687
  800loPI   C3B12471  13.710   5.145   6.752 -0.1729 -0.2904 -0.1200
  800loPI   C4B12472  13.849   5.214   7.189  0.0190  0.2007  0.0177
  801loPI    C112473  14.332  14.475   5.283  0.1901 -0.2095 -0.0702
  801loPI    C212474  14.261  14.425   4.893  0.2842 -0.3502 -0.0698
  801loPI    C312475  14.500  14.721   5.016  0.1782 -0.2465 -0.1117
  801loPI   PO412476  14.109  14.409   5.440 -0.0397  0.0786 -0.0346
  801loPI   GL112477  14.024  14.049   5.663 -0.1269  0.0201 -0.4297
  801loPI   GL212478  13.712  14.115   5.975 -0.1361 -0.0780 -0.2686
  801loPI   C1A12479  14.233  14.013   6.053 -0.0063  0.1714  0.2316
  801loPI   C2A12480  14.107  13.858   6.495  0.1291 -0.0760  0.0774
  801loPI   C3A12481  14.130  13.721   6.854  0.0449  0.0329 -0.0141
  801loPI   C4A12482  14.089  13.661   7.382 -0.0854 -0.0377  0.3442
  801loPI   C5A12483  14.115  13.390   7.850  0.0536 -0.0808  0.1121
  801loPI   C6A12484  14.218  13.076   8.144 -0.4489 -0.0581 -0.3263
  801loPI   C1B12485  13.643  14.160   6.378 -0.0044  0.1613 -0.1648
  801loPI   C2B12486  13.694  14.041   6.807  0.1734  0.3118 -0.2513
  801loPI   C3B12487  13.785  14.078   7.271  0.1970  0.0530  0.1622
  801loPI   C4B12488  13.822  14.084   7.749  0.1319 -0.2757  0.0867
  802loPI    C112489   1.617   0.855   5.173  0.2112 -0.3306 -0.0970
  802loPI    C212490   1.919   0.920   4.919  0.0367 -0.0200 -0.2294
  802loPI    C312491   1.552   0.847   4.778 -0.0454  0.0765 -0.0676
  802loPI   PO412492   1.554   1.103   5.315  0.0406 -0.1407  0.4592
  802loPI   GL112493   1.778   1.009   5.685  0.1809 -0.1805  0.1111
  802loPI   GL212494   1.479   1.040   5.787  0.0547 -0.0007  0.1977
  802loPI   C1A12495   1.940   1.074   6.070 -0.0117 -0.0382 -0.1227
  802loPI   C2A12496   1.962   1.139   6.478  0.3544 -0.0372 -0.0240
  802loPI   C3A12497   1.943   1.543   6.789 -0.0897  0.4173  0.0309
  802loPI   C4A12498   1.925   1.448   7.279  0.1319 -0.0946  0.3667
  802loPI   C5A12499   2.113   1.610   7.666  0.1051  0.2778 -0.1889
  802loPI   C6A12500   2.521   1.618   7.895 -0.0435 -0.0608  0.0771
  802loPI   C1B12501   1.432   0.973   6.252  0.2435  0.4440  0.1049
  802loPI   C2B12502   1.092   1.212   6.582 -0.0156  0.0638  0.0555
  802loPI   C3B12503   0.849   1.312   6.898  0.2376  0.1764 -0.1139
  802loPI   C4B12504   0.714   0.972   7.275 -0.1086  0.2105 -0.1310
  803loPI    C112505   9.785  18.149   5.544  0.0497  0.0821  0.1165
  803loPI    C212506   9.684  17.799   5.377  0.1730  0.0730  0.0595
  803loPI    C312507   9.707  18.129   5.152 -0.2301  0.1794  0.1644
  803loPI   PO412508   9.718  18.156   5.762 -0.1091  0.0011 -0.0144
  803loPI   GL112509   9.726  18.143   6.189  0.1311  0.0435 -0.2059
  803loPI   GL212510   9.586  18.299   6.399  0.2281  0.0596  0.0577
  803loPI   C1A12511   9.869  17.953   6.587 -0.2623  0.3770 -0.1654
  803loPI   C2A12512  10.091  17.876   6.904 -0.1656 -0.2014  0.3095
  803loPI   C3A12513  10.265  17.835   7.288 -0.2012 -0.1327  0.0278
  803loPI   C4A12514  10.285  17.953   7.742 -0.1802  0.1317 -0.1046
  803loPI   C5A12515  10.396  18.131   8.097 -0.2016  0.2243 -0.1785
  803loPI   C6A12516  10.097  18.508   8.251  0.1615  0.0449 -0.0808
  803loPI   C1B12517   9.637  18.292   6.866  0.0463 -0.1345 -0.1718
  803loPI   C2B12518   9.750  18.101   7.244 -0.0806  0.2992  0.1373
  803loPI   C3B12519   9.818  17.862   7.578  0.1892  0.1985  0.2362
  803loPI   C4B12520   9.650  17.572   7.798  0.1316 -0.3682 -0.0049
  804loPI    C112521   5.640   9.051   5.130 -0.0080  0.2301 -0.3099
  804loPI    C212522   5.983   8.844   5.125  0.0233  0.2696  0.0032
  804loPI    C312523   5.958   9.196   4.936  0.0579  0.1208 -0.2846
  804loPI   PO412524   5.602   9.055   5.446 -0.1331 -0.1110  0.1031
  804loPI   GL112525   5.871   9.217   5.723 -0.0852 -0.0547 -0.1168
  804loPI   GL212526   5.571   9.343   5.845  0.0259 -0.1547 -0.1820
  804loPI   C1A12527   5.880   9.059   6.083 -0.0906 -0.0746 -0.0741
  804loPI   C2A12528   5.824   8.844   6.441  0.1377 -0.1900 -0.0294
  804loPI   C3A12529   5.677   8.742   6.819  0.1282  0.0515  0.2582
  804loPI   C4A12530   5.532   8.914   7.194  0.2505  0.1217  0.0048
  804loPI   C5A12531   5.290   8.799   7.581  0.1242  0.0462 -0.1072
  804loPI   C6A12532   5.259   8.846   8.109  0.3126 -0.0739 -0.4124
  804loPI   C1B12533   5.506   9.299   6.330 -0.0316  0.0907  0.4717
  804loPI   C2B12534   5.343   9.294   6.806  0.1121  0.0829 -0.1195
  804loPI   C3B12535   5.224   9.302   7.208 -0.0166 -0.2787 -0.0369
  804loPI   C4B12536   5.284   9.306   7.587  0.1594 -0.3445 -0.0427
  805loPI    C112537  16.031  17.331   5.315 -0.0381  0.0514 -0.0795
  805loPI    C212538  15.696  17.476   5.479 -0.0996 -0.1340 -0.0383
  805loPI    C312539  15.754  17.503   5.084 -0.1099  0.0015 -0.0311
  805loPI   PO412540  16.089  17.176   5.315  0.1727 -0.0371 -0.0805
  805loPI   GL112541  15.905  16.929   5.659  0.3247 -0.2856  0.1208
  805loPI   GL212542  15.675  17.063   5.775  0.0085 -0.1044  0.1421
  805loPI   C1A12543  16.142  16.651   6.013 -0.1127 -0.0650  0.0375
  805loPI   C2A12544  16.251  16.780   6.503  0.0510 -0.1548  0.0388
  805loPI   C3A12545  16.351  16.795   6.868 -0.2789 -0.0225  0.1050
  805loPI   C4A12546  16.421  16.951   7.237  0.2625 -0.0130 -0.0941
  805loPI   C5A12547  16.273  17.033   7.650  0.3069 -0.2737  0.1095
  805loPI   C6A12548  15.775  17.132   7.821  0.0648 -0.0329  0.4058
  805loPI   C1B12549  15.866  17.149   6.142  0.1638  0.1441  0.1062
  805loPI   C2B12550  15.877  17.146   6.539  0.1974  0.0878  0.0379
  805loPI   C3B12551  16.079  17.191   6.943  0.1401  0.1079 -0.0311
  805loPI   C4B12552  16.010  17.327   7.270  0.1399 -0.2349 -0.1524
  806loPI    C112553   2.630  18.267   5.125 -0.1714 -0.1848 -0.0403
  806loPI    C212554   2.582  18.619   4.943 -0.1122 -0.0466  0.2068
  806loPI    C312555   2.775  18.322   4.757  0.1294  0.1587  0.1241
  806loPI   PO412556   2.699  18.232   5.445 -0.3426  0.1523 -0.2279
  806loPI   GL112557   2.717  18.473   5.795 -0.1652 -0.2446 -0.2030
  806loPI   GL212558   2.628  18.784   5.859  0.3581  0.0154 -0.0905
  806loPI   C1A12559   3.033  18.326   6.126  0.0035 -0.2276 -0.1328
  806loPI   C2A12560   2.913  18.181   6.501  0.4027 -0.3301  0.2897
  806loPI   C3A12561   3.137  18.009   6.823 -0.3920 -0.0582 -0.0924
  806loPI   C4A12562   3.170  18.162   7.296 -0.1211  0.1210  0.1497
  806loPI   C5A12563   2.895  18.409   7.504 -0.1149 -0.1980 -0.0968
  806loPI   C6A12564   2.677  18.763   7.611 -0.2164  0.2360  0.1680
  806loPI   C1B12565   2.626  18.615   6.248 -0.2018  0.0665 -0.3571
  806loPI   C2B12566   2.456  18.564   6.615 -0.0853  0.2171 -0.0053
  806loPI   C3B12567   2.430  18.701   7.014 -0.0560 -0.2327  0.0874
  806loPI   C4B12568   2.425  18.467   7.322  0.1704 -0.1290  0.2300
  807loPI    C112569   6.469   7.852   5.236 -0.2344  0.2053 -0.0146
  807loPI    C212570   6.237   7.853   4.911 -0.1513  0.3328 -0.0743
  807loPI    C312571   6.627   7.768   4.878 -0.1670  0.2272  0.0097
  807loPI   PO412572   6.399   7.778   5.425  0.2626  0.1431  0.2188
  807loPI   GL112573   6.077   7.727   5.799 -0.1331  0.0502  0.2150
  807loPI   GL212574   6.191   8.008   5.907 -0.1979 -0.1746 -0.0356
  807loPI   C1A12575   6.064   7.423   5.968  0.1660 -0.2638 -0.3382
  807loPI   C2A12576   6.084   7.038   6.152  0.2837 -0.2021  0.1128
  807loPI   C3A12577   6.125   6.861   6.469 -0.1820 -0.3367 -0.2112
  807loPI   C4A12578   6.332   7.006   6.792  0.1493  0.0628 -0.1644
  807loPI   C5A12579   6.732   7.239   6.790  0.0146 -0.0374  0.1585
  807loPI   C6A12580   6.861   7.546   7.091 -0.0453 -0.0540  0.0095
  807loPI   C1B12581   6.181   7.856   6.342  0.1538 -0.1190 -0.2427
  807loPI   C2B12582   5.965   7.890   6.699 -0.1221  0.0724 -0.0535
  807loPI   C3B12583   5.923   7.777   7.053 -0.1851  0.1671 -0.1044
  807loPI   C4B12584   5.771   7.955   7.393 -0.0815 -0.3493 -0.0344
  808loPI    C112585   5.562  12.625   5.101  0.1123 -0.1185 -0.0006
  808loPI    C212586   5.426  12.701   4.732  0.0675  0.1519  0.0691
  808loPI    C312587   5.519  12.327   4.839  0.1695  0.0849 -0.2456
  808loPI   PO412588   5.354  12.821   5.263 -0.1424 -0.0680  0.1394
  808loPI   GL112589   5.176  13.156   5.555  0.6842  0.0797  0.1529
  808loPI   GL212590   5.107  12.911   5.876 -0.0584  0.1580 -0.0472
  808loPI   C1A12591   5.172  13.442   5.901  0.1425 -0.2472 -0.0179
  808loPI   C2A12592   5.064  13.429   6.359 -0.2909  0.1344 -0.0958
  808loPI   C3A12593   4.990  13.562   6.766  0.2755  0.2492  0.1680
  808loPI   C4A12594   4.871  13.676   7.118 -0.0864  0.0937 -0.0737
  808loPI   C5A12595   4.756  13.647   7.569 -0.0517  0.4147 -0.2017
  808loPI   C6A12596   4.462  13.634   7.956  0.0173 -0.2170 -0.2872
  808loPI   C1B12597   5.012  12.907   6.363  0.1084  0.2435 -0.0840
  808loPI   C2B12598   5.026  12.929   6.764 -0.0414  0.1151 -0.2334
  808loPI   C3B12599   4.868  13.101   7.189  0.3214 -0.0298 -0.0597
  808loPI   C4B12600   4.440  13.388   7.327 -0.2721  0.2011  0.1116
  809loPI    C112601  16.958  14.078   5.077 -0.0100 -0.0940 -0.1065
  809loPI    C212602  17.177  14.257   4.794  0.2057  0.0928  0.1724
  809loPI    C312603  16.823  14.410   4.899 -0.0793 -0.2206 -0.2929
  809loPI   PO412604  17.083  14.048   5.368  0.4104  0.2018 -0.2469
  809loPI   GL112605  17.104  13.845   5.703 -0.0825 -0.2283 -0.1894
  809loPI   GL212606  16.847  13.641   5.769 -0.0498 -0.2277  0.0631
  809loPI   C1A12607  17.261  13.802   6.253  0.0852 -0.1921  0.3251
  809loPI   C2A12608  17.282  13.841   6.651 -0.0147  0.2340  0.0676
  809loPI   C3A12609  17.246  13.845   7.169  0.1148  0.0194 -0.0615
  809loPI   C4A12610  17.555  13.975   7.602 -0.1591 -0.0602 -0.2402
  809loPI   C5A12611  17.889  13.797   7.884  0.0379 -0.1294  0.1220
  809loPI   C6A12612  18.324  13.672   7.971  0.2108 -0.0110  0.0305
  809loPI   C1B12613  16.832  13.660   6.112  0.1713 -0.0094  0.0076
  809loPI   C2B12614  16.805  13.697   6.604  0.0260  0.2549  0.3967
  809loPI   C3B12615  16.822  13.610   7.040 -0.0731  0.1206  0.1102
  809loPI   C4B12616  16.865  13.799   7.518  0.0185 -0.1193  0.0647
  810loPI    C112617   2.302   8.900   5.050 -0.0823 -0.0532 -0.0677
  810loPI    C212618   2.626   9.083   5.196 -0.0708  0.0104 -0.1716
  810loPI    C312619   2.506   9.158   4.822 -0.0839 -0.1720 -0.2052
  810loPI   PO412620   2.362   8.540   5.178 -0.0391  0.0853  0.0190
  810loPI   GL112621   2.385   8.134   5.459 -0.2682  0.1851 -0.0107
  810loPI   GL212622   2.215   7.876   5.440 -0.0405  0.2477  0.0470
  810loPI   C1A12623   2.373   8.232   5.871 -0.0241  0.0104  0.1982
  810loPI   C2A12624   2.176   8.415   6.266  0.0179  0.2459  0.2493
  810loPI   C3A12625   2.161   8.466   6.727  0.1341  0.0886  0.1640
  810loPI   C4A12626   2.038   8.293   7.043  0.2056 -0.1396  0.3913
  810loPI   C5A12627   1.950   8.287   7.451  0.1060 -0.1825  0.2674
  810loPI   C6A12628   1.581   8.308   7.665  0.0450  0.4281  0.0407
  810loPI   C1B12629   2.064   7.685   5.823  0.1849 -0.0495 -0.4692
  810loPI   C2B12630   1.856   7.683   6.283 -0.2595 -0.1778 -0.2959
  810loPI   C3B12631   1.857   7.911   6.730 -0.1615  0.0807  0.0385
  810loPI   C4B12632   1.828   7.864   7.200  0.2166  0.1470  0.1947
  811loPI    C112633   8.768   5.604   5.447  0.2613  0.0271  0.1407
  811loPI    C212634   9.095   5.384   5.378  0.3186  0.0825  0.2334
  811loPI    C312635   9.004   5.689   5.136  0.1727 -0.1176  0.0330
  811loPI   PO412636   8.665   5.484   5.580 -0.0835  0.0026  0.1420
  811loPI   GL112637   8.361   5.366   5.877  0.1131 -0.2384  0.1614
  811loPI   GL212638   8.615   5.293   6.150 -0.0059  0.0400 -0.0507
  811loPI   C1A12639   8.036   5.445   6.143  0.1496  0.2312 -0.0360
  811loPI   C2A12640   8.239   5.476   6.595  0.0438 -0.1320  0.0012
  811loPI   C3A12641   8.321   5.533   6.961 -0.2451 -0.3161  0.1046
  811loPI   C4A12642   8.281   5.731   7.341 -0.0547  0.0764 -0.2703
  811loPI   C5A12643   8.617   5.931   7.636  0.0767  0.0199  0.2776
  811loPI   C6A12644   8.912   6.045   7.892  0.0016 -0.1085 -0.0024
  811loPI   C1B12645   8.795   5.069   6.542  0.1516  0.1431 -0.1647
  811loPI   C2B12646   8.728   5.230   6.984 -0.3551 -0.3943  0.2005
  811loPI   C3B12647   8.716   5.491   7.305  0.0780  0.2301 -0.0580
  811loPI   C4B12648   8.822   5.427   7.716  0.2847 -0.0999  0.0353
  812loPI    C112649  17.697   2.784   4.710  0.0705 -0.1557 -0.2557
  812loPI    C212650  18.050   2.969   4.735  0.0582 -0.1536 -0.0898
  812loPI    C312651  18.030   2.595   4.596  0.1192 -0.1355 -0.1482
  812loPI   PO412652  17.566   2.847   5.035  0.0546  0.1187 -0.1210
  812loPI   GL112653  17.658   2.920   5.505 -0.0147 -0.0450  0.1297
  812loPI   GL212654  17.758   3.254   5.707  0.2478  0.1645 -0.0122
  812loPI   C1A12655  17.376   3.045   5.973  0.1174  0.0354  0.0955
  812loPI   C2A12656  17.378   3.015   6.323 -0.1961 -0.0898 -0.2560
  812loPI   C3A12657  17.418   3.015   6.739  0.0678  0.1312  0.1028
  812loPI   C4A12658  17.480   3.098   7.107  0.1041  0.4032 -0.2222
  812loPI   C5A12659  17.411   3.120   7.459  0.0864  0.1636  0.1029
  812loPI   C6A12660  17.515   3.435   7.774 -0.0288  0.0468  0.0373
  812loPI   C1B12661  17.834   3.236   6.151 -0.3699 -0.0835 -0.1705
  812loPI   C2B12662  17.908   3.245   6.581  0.0984 -0.0706  0.0648
  812loPI   C3B12663  17.944   3.172   6.974 -0.3614  0.1103 -0.1561
  812loPI   C4B12664  18.044   3.121   7.348 -0.0833  0.0116  0.0760
  813loPI    C112665  18.271   9.499   4.904  0.0272 -0.3795 -0.1201
  813loPI    C212666  18.538   9.578   4.616 -0.0203  0.1022 -0.0414
  813loPI    C312667  18.147   9.571   4.530 -0.0278  0.1373 -0.0102
  813loPI   PO412668  18.332   9.728   5.106  0.2432 -0.0932  0.1010
  813loPI   GL112669  18.063   9.740   5.370  0.0187 -0.2294 -0.1839
  813loPI   GL212670  17.919   9.959   5.412 -0.3307  0.0404 -0.1239
  813loPI   C1A12671  18.263   9.435   5.736 -0.0652 -0.2342  0.0674
  813loPI   C2A12672  18.213   9.449   6.146 -0.1320 -0.1061 -0.0551
  813loPI   C3A12673  18.322   9.521   6.505  0.1760 -0.1054 -0.2146
  813loPI   C4A12674  18.190   9.554   6.952  0.2724  0.3848  0.1467
  813loPI   C5A12675  18.153   9.571   7.358 -0.3036 -0.1044  0.0997
  813loPI   C6A12676  18.226   9.528   7.819  0.0514  0.0028  0.0013
  813loPI   C1B12677  17.912   9.868   5.877 -0.2653 -0.1933 -0.2889
  813loPI   C2B12678  17.909   9.760   6.328 -0.0692 -0.0509  0.1754
  813loPI   C3B12679  17.840   9.822   6.778  0.1057 -0.1360 -0.0666
  813loPI   C4B12680  17.821   9.919   7.156 -0.2343  0.0593  0.3473
  814loPI    C112681   1.564   0.185   5.565 -0.0638 -0.0326  0.0082
  814loPI    C212682   1.605  -0.211   5.524 -0.0021 -0.0392  0.1292
  814loPI    C312683   1.689   0.032   5.218  0.0672 -0.1126  0.0898
  814loPI   PO412684   1.259   0.122   5.735 -0.2899 -0.1073 -0.1990
  814loPI   GL112685   1.305   0.455   6.016 -0.1652 -0.0602  0.1039
  814loPI   GL212686   1.565   0.200   6.219 -0.0141 -0.2429 -0.0508
  814loPI   C1A12687   1.237   0.521   6.371 -0.1036  0.1064 -0.1191
  814loPI   C2A12688   1.321   0.569   6.765  0.3372  0.2591  0.1078
  814loPI   C3A12689   1.199   0.474   7.190  0.0360 -0.1146  0.5763
  814loPI   C4A12690   1.037   0.707   7.522  0.0609  0.0736 -0.0648
  814loPI   C5A12691   0.993   1.113   7.697 -0.0423 -0.0816  0.1874
  814loPI   C6A12692   1.073   1.551   7.478  0.1406 -0.3063  0.2406
  814loPI   C1B12693   1.475   0.094   6.597  0.0557 -0.5029 -0.1643
  814loPI   C2B12694   1.050   0.168   6.718  0.1077 -0.1205  0.2132
  814loPI   C3B12695   0.707   0.254   6.891  0.0423 -0.2617  0.0481
  814loPI   C4B12696   0.698   0.471   7.227 -0.1361  0.1064 -0.1338
  815loPI    C112697   5.752  15.888   5.347  0.1839 -0.2714 -0.0537
  815loPI    C212698   6.079  16.000   5.146  0.0077  0.2400 -0.0682
  815loPI    C312699   5.766  15.848   4.949  0.1587 -0.0692 -0.0757
  815loPI   PO412700   5.853  15.797   5.552 -0.1587  0.1421  0.2682
  815loPI   GL112701   6.099  15.829   5.936  0.0664 -0.0244  0.1885
  815loPI   GL212702   6.339  15.643   6.024  0.3325  0.1402  0.1440
  815loPI   C1A12703   6.011  16.076   6.273  0.0482 -0.0431 -0.2454
  815loPI   C2A12704   5.940  16.076   6.674  0.0225  0.1986  0.1311
  815loPI   C3A12705   5.925  15.967   7.128 -0.0059 -0.1022  0.1703
  815loPI   C4A12706   6.090  16.140   7.460  0.0540 -0.1363  0.0718
  815loPI   C5A12707   6.144  16.114   7.933 -0.0185  0.2066 -0.1059
  815loPI   C6A12708   6.169  16.207   8.385  0.0246  0.3702  0.1870
  815loPI   C1B12709   6.273  15.689   6.465 -0.2984 -0.0178  0.0291
  815loPI   C2B12710   6.362  15.763   6.932  0.0181  0.2118 -0.1493
  815loPI   C3B12711   6.379  15.734   7.424  0.1911  0.1956  0.0524
  815loPI   C4B12712   6.264  15.582   7.685  0.2155  0.0589  0.2281
  816loPI    C112713  17.957   3.414   5.078 -0.1808  0.2997 -0.1774
  816loPI    C212714  17.592   3.430   5.239 -0.1856  0.1249 -0.1698
  816loPI    C312715  17.637   3.315   4.859 -0.1168 -0.1230 -0.0890
  816loPI   PO412716  18.081   3.224   5.296  0.2376 -0.2155 -0.1585
  816loPI   GL112717  18.232   3.163   5.707 -0.0731  0.2707  0.0613
  816loPI   GL212718  18.128   2.842   5.680 -0.2480 -0.1798  0.3629
  816loPI   C1A12719  18.307   3.361   6.107  0.1274 -0.1564 -0.0942
  816loPI   C2A12720  18.398   3.401   6.550 -0.1166  0.3400 -0.0091
  816loPI   C3A12721  18.419   3.296   7.018 -0.1106 -0.0007 -0.1052
  816loPI   C4A12722  18.521   3.317   7.412 -0.1920 -0.1215 -0.2162
  816loPI   C5A12723  18.335   3.185   7.786  0.0055 -0.1058 -0.2886
  816loPI   C6A12724  18.328   2.788   8.005 -0.0643 -0.1870  0.1429
  816loPI   C1B12725  18.193   2.878   6.179 -0.2413 -0.0993  0.1055
  816loPI   C2B12726  18.276   2.887   6.616 -0.5587  0.3468 -0.2455
  816loPI   C3B12727  18.345   2.807   7.001  0.1390  0.1739  0.4581
  816loPI   C4B12728  18.441   2.815   7.474  0.1453 -0.0228 -0.0977
  817loPI    C112729  16.056   1.678   4.801  0.0537  0.1855 -0.1544
  817loPI    C212730  15.999   1.847   4.444 -0.0789  0.0471 -0.1996
  817loPI    C312731  16.279   1.565   4.489  0.0883  0.2201 -0.1424
  817loPI   PO412732  16.047   1.964   4.916 -0.2501  0.1298  0.1025
  817loPI   GL112733  16.137   2.090   5.364 -0.0788  0.1248  0.1054
  817loPI   GL212734  16.406   1.799   5.439 -0.0785  0.1106  0.1584
  817loPI   C1A12735  16.136   2.258   5.740  0.0573  0.0055 -0.2734
  817loPI   C2A12736  16.163   2.256   6.121 -0.0032  0.2110 -0.1342
  817loPI   C3A12737  16.316   2.275   6.482  0.0299 -0.1361  0.0367
  817loPI   C4A12738  16.369   2.311   6.973 -0.2695 -0.1836  0.2135
  817loPI   C5A12739  16.122   2.261   7.477  0.0539 -0.0682  0.1235
  817loPI   C6A12740  15.827   2.436   7.769  0.0776  0.0160 -0.0776
  817loPI   C1B12741  16.267   1.760   5.772  0.2956 -0.0802 -0.2682
  817loPI   C2B12742  16.068   1.732   6.127  0.1953 -0.1121  0.2862
  817loPI   C3B12743  16.158   1.766   6.562 -0.1231  0.0068 -0.0524
  817loPI   C4B12744  16.218   1.820   7.034  0.1280 -0.0465  0.1137
  818loPI    C112745   3.548   5.570   5.149 -0.2530 -0.0656 -0.2725
  818loPI    C212746   3.574   5.194   5.013  0.1284 -0.1387 -0.0163
  818loPI    C312747   3.859   5.459   4.922 -0.0200  0.0269 -0.0046
  818loPI   PO412748   3.415   5.622   5.476 -0.1194 -0.1151 -0.0106
  818loPI   GL112749   3.518   6.092   5.618 -0.2154  0.3961  0.1542
  818loPI   GL212750   3.789   5.880   5.836 -0.0665  0.0678 -0.1612
  818loPI   C1A12751   3.306   5.989   6.124  0.2087 -0.1576 -0.0236
  818loPI   C2A12752   3.227   5.980   6.622 -0.2384  0.0418 -0.2063
  818loPI   C3A12753   3.386   6.156   7.005 -0.0179  0.2471 -0.0355
  818loPI   C4A12754   3.356   6.206   7.442  0.1227  0.1812 -0.1201
  818loPI   C5A12755   3.228   6.616   7.586  0.2821  0.0419  0.0646
  818loPI   C6A12756   3.313   7.048   7.689  0.0473  0.2042  0.2465
  818loPI   C1B12757   3.779   6.048   6.191 -0.3534 -0.1161 -0.0181
  818loPI   C2B12758   3.786   6.028   6.693 -0.1309  0.0990  0.1651
  818loPI   C3B12759   3.920   6.286   7.044  0.0736 -0.3015 -0.0050
  818loPI   C4B12760   3.876   6.273   7.525 -0.0831 -0.0200 -0.0448
  819loPI    C112761   0.443   9.114   4.940 -0.1144 -0.0746 -0.2248
  819loPI    C212762   0.118   9.046   4.717 -0.1088 -0.1196 -0.2193
  819loPI    C312763   0.192   8.819   5.038 -0.1101 -0.0630 -0.1786
  819loPI   PO412764   0.434   9.363   5.064  0.1890 -0.0654 -0.0165
  819loPI   GL112765   0.552   9.499   5.371 -0.2783  0.3932  0.0966
  819loPI   GL212766   0.581   9.117   5.458 -0.0305 -0.0027 -0.0043
  819loPI   C1A12767   0.376   9.501   5.704  0.0387 -0.1230 -0.0512
  819loPI   C2A12768   0.276   9.665   6.069 -0.1819  0.1433 -0.2413
  819loPI   C3A12769   0.388   9.673   6.439  0.1264 -0.2269 -0.1472
  819loPI   C4A12770   0.315   9.694   6.842  0.2000 -0.0255 -0.0214
  819loPI   C5A12771   0.266   9.793   7.307  0.1330  0.0620 -0.0617
  819loPI   C6A12772  -0.082   9.995   7.552 -0.0095 -0.3358 -0.0731
  819loPI   C1B12773   0.321   9.050   5.841  0.0569 -0.0436 -0.0810
  819loPI   C2B12774   0.293   9.151   6.284  0.0533  0.1060  0.2062
  819loPI   C3B12775   0.182   9.197   6.761 -0.4388 -0.2583  0.2085
  819loPI   C4B12776   0.175   9.292   7.255 -0.2078  0.1236 -0.0807
  820loPI    C112777  10.500   9.860   4.904  0.1819 -0.0794  0.0285
  820loPI    C212778  10.417   9.717   4.539 -0.0722  0.1144  0.0073
  820loPI    C312779  10.730   9.960   4.592  0.0283  0.0013 -0.0602
  820loPI   PO412780  10.381   9.650   5.079 -0.0280  0.1735  0.0360
  820loPI   GL112781  10.460   9.620   5.498 -0.0865 -0.1702 -0.1733
  820loPI   GL212782  10.471   9.350   5.518 -0.2703  0.1968  0.0980
  820loPI   C1A12783  10.418   9.947   5.738 -0.3490 -0.3526  0.3154
  820loPI   C2A12784  10.515   9.891   6.175 -0.1959  0.0971 -0.1975
  820loPI   C3A12785  10.607   9.755   6.654 -0.0145 -0.0806  0.2870
  820loPI   C4A12786  10.551   9.763   7.074  0.0588  0.0744 -0.1155
  820loPI   C5A12787  10.635   9.549   7.527 -0.0069  0.0137 -0.1900
  820loPI   C6A12788  10.278   9.404   7.771 -0.0479  0.0186 -0.1805
  820loPI   C1B12789  10.452   9.415   5.937  0.3197  0.2867 -0.0374
  820loPI   C2B12790  10.419   9.351   6.369 -0.0025 -0.1161  0.0244
  820loPI   C3B12791  10.467   9.277   6.880  0.2344 -0.1297  0.1276
  820loPI   C4B12792  10.471   9.167   7.245  0.0254 -0.2008  0.1106
  821loPI    C112793   0.697   1.312   5.158  0.0020  0.1751 -0.1692
  821loPI    C212794   0.633   1.705   5.194  0.0820  0.1693  0.0459
  821loPI    C312795   0.991   1.571   5.078  0.0773  0.1576  0.0449
  821loPI   PO412796   0.628   1.266   5.470 -0.1079 -0.6586 -0.4388
  821loPI   GL112797   0.974   1.228   5.835  0.0927 -0.0020 -0.1632
  821loPI   GL212798   1.003   0.895   5.909 -0.0672  0.2491  0.0722
  821loPI   C1A12799   0.887   1.372   6.159  0.0533 -0.0943  0.1110
  821loPI   C2A12800   0.899   1.692   6.480 -0.4379  0.2960  0.0660
  821loPI   C3A12801   1.110   2.150   6.667  0.0073  0.2432 -0.2386
  821loPI   C4A12802   1.386   2.443   6.747  0.0836 -0.1355 -0.1089
  821loPI   C5A12803   1.621   2.854   6.693  0.0749 -0.2755  0.1220
  821loPI   C6A12804   1.351   3.224   6.745  0.0371  0.2121 -0.1772
  821loPI   C1B12805   0.792   0.868   6.256 -0.0051 -0.2418  0.2607
  821loPI   C2B12806   0.517   1.085   6.491 -0.0039 -0.3816 -0.2335
  821loPI   C3B12807   0.263   1.116   6.901  0.3081 -0.0161  0.1867
  821loPI   C4B12808   0.227   1.085   7.398 -0.1046  0.2381  0.2189
  822loPI    C112809  13.506  12.488   5.282 -0.2135 -0.1511 -0.0354
  822loPI    C212810  13.233  12.475   4.990 -0.1603  0.1437 -0.1019
  822loPI    C312811  13.513  12.761   4.990  0.0652 -0.0718  0.0415
  822loPI   PO412812  13.519  12.216   5.305  0.0808 -0.0582 -0.0544
  822loPI   GL112813  13.395  11.960   5.691  0.3340 -0.2414  0.0474
  822loPI   GL212814  13.286  11.633   5.661  0.5510  0.0867 -0.3110
  822loPI   C1A12815  13.417  11.996   6.135  0.1163 -0.1789  0.0242
  822loPI   C2A12816  13.248  12.081   6.548  0.0732 -0.2706  0.1455
  822loPI   C3A12817  13.311  11.940   7.004  0.4183  0.0114  0.1553
  822loPI   C4A12818  13.399  11.923   7.453 -0.0108  0.1841  0.1107
  822loPI   C5A12819  13.610  12.158   7.754  0.0569  0.0712 -0.0906
  822loPI   C6A12820  13.544  12.202   8.182 -0.1245 -0.1003 -0.3878
  822loPI   C1B12821  13.181  11.578   6.086 -0.2996 -0.0561 -0.0039
  822loPI   C2B12822  13.154  11.572   6.562 -0.0924 -0.2251  0.3906
  822loPI   C3B12823  13.080  11.410   6.946 -0.0802 -0.2245 -0.3411
  822loPI   C4B12824  13.220  11.510   7.369 -0.1166 -0.1600  0.1381
  823loPI    C112825   6.574   3.319   5.785 -0.2057 -0.0072  0.2436
  823loPI    C212826   6.570   2.921   5.744 -0.0484  0.0051  0.0993
  823loPI    C312827   6.413   3.153   5.459  0.3522  0.0638 -0.0809
  823loPI   PO412828   6.802   3.436   5.849 -0.1178  0.1924 -0.1979
  823loPI   GL112829   6.899   3.612   6.161  0.4179 -0.3121  0.0964
  823loPI   GL212830   6.551   3.680   6.244  0.0231  0.0823  0.2438
  823loPI   C1A12831   7.138   3.464   6.474 -0.0590  0.0276  0.1739
  823loPI   C2A12832   7.195   3.456   6.889  0.0276 -0.1549 -0.2007
  823loPI   C3A12833   7.586   3.415   7.150  0.0096  0.1434  0.0888
  823loPI   C4A12834   7.645   3.069   7.456  0.2114 -0.0862  0.0200
  823loPI   C5A12835   7.981   2.916   7.757  0.1038 -0.4607  0.1912
  823loPI   C6A12836   8.060   2.967   8.220  0.0045 -0.2099 -0.0535
  823loPI   C1B12837   6.606   3.556   6.654 -0.0024 -0.2394 -0.1500
  823loPI   C2B12838   6.701   3.308   7.098 -0.0458  0.0475  0.0349
  823loPI   C3B12839   6.687   2.915   7.398 -0.2183 -0.1068  0.4060
  823loPI   C4B12840   6.630   2.653   7.639  0.1797  0.0749 -0.0892
  824loPI    C112841   7.511   3.144   5.396 -0.2114  0.1140 -0.0426
  824loPI    C212842   7.900   3.176   5.310 -0.1856 -0.1420 -0.0280
  824loPI    C312843   7.628   3.211   5.019 -0.1421 -0.1459 -0.0694
  824loPI   PO412844   7.569   3.094   5.656 -0.0137 -0.0916 -0.0258
  824loPI   GL112845   7.474   2.902   6.011  0.1099 -0.0602  0.2203
  824loPI   GL212846   7.786   2.875   6.044  0.2140  0.1211  0.2495
  824loPI   C1A12847   7.343   3.001   6.460 -0.0688  0.2183 -0.4226
  824loPI   C2A12848   7.356   2.944   6.823  0.3007 -0.0631 -0.0952
  824loPI   C3A12849   7.193   3.042   7.117 -0.1107 -0.2607  0.0795
  824loPI   C4A12850   7.098   3.305   7.378 -0.0373 -0.0462 -0.1663
  824loPI   C5A12851   6.854   3.282   7.672  0.1394 -0.0236  0.0188
  824loPI   C6A12852   6.650   3.197   8.025 -0.3051 -0.1715  0.0034
  824loPI   C1B12853   7.745   2.715   6.400  0.0877 -0.1824  0.0504
  824loPI   C2B12854   7.864   2.300   6.633  0.2509  0.1676  0.0251
  824loPI   C3B12855   7.914   2.296   7.087 -0.0308  0.0720 -0.0364
  824loPI   C4B12856   7.700   2.192   7.387 -0.0354  0.0138 -0.0322
  825loPI    C112857  13.715  16.249   5.601 -0.0955 -0.1111  0.0423
  825loPI    C212858  13.926  15.924   5.701 -0.0117 -0.0774 -0.0239
  825loPI    C312859  13.537  15.891   5.613 -0.0306 -0.1422  0.0824
  825loPI   PO412860  13.682  16.392   5.843 -0.0991  0.1806 -0.1779
  825loPI   GL112861  13.673  16.327   6.224  0.0784 -0.2275 -0.1997
  825loPI   GL212862  13.603  15.969   6.212  0.0488 -0.2345  0.0948
  825loPI   C1A12863  13.718  16.279   6.655  0.0568 -0.2048  0.0145
  825loPI   C2A12864  13.808  16.122   7.059 -0.0006  0.2335 -0.1543
  825loPI   C3A12865  13.822  16.116   7.509  0.0214 -0.2553  0.3115
  825loPI   C4A12866  13.887  16.116   7.895 -0.0296 -0.1672  0.1575
  825loPI   C5A12867  14.117  15.963   8.204  0.3034 -0.0590  0.1665
  825loPI   C6A12868  14.430  15.808   8.425  0.0381 -0.0718  0.3797
  825loPI   C1B12869  13.856  15.824   6.489 -0.0680 -0.3417  0.1779
  825loPI   C2B12870  14.125  15.879   6.830  0.3199 -0.0306  0.1684
  825loPI   C3B12871  14.171  15.797   7.235  0.2585 -0.3879 -0.0526
  825loPI   C4B12872  14.518  15.548   7.369 -0.0815  0.5296  0.2957
  826loPI    C112873   2.063   3.510   5.054 -0.2097 -0.1045  0.0347
  826loPI    C212874   1.985   3.213   4.797 -0.4105 -0.0047 -0.0225
  826loPI    C312875   2.122   3.563   4.662 -0.3349 -0.0148  0.0272
  826loPI   PO412876   1.887   3.467   5.221  0.1008 -0.2209  0.1327
  826loPI   GL112877   1.682   3.478   5.554  0.1718  0.0091 -0.0111
  826loPI   GL212878   2.046   3.580   5.700  0.1196 -0.0332  0.0996
  826loPI   C1A12879   1.421   3.716   5.952 -0.1818  0.1023  0.1042
  826loPI   C2A12880   1.376   3.761   6.405  0.1117 -0.1777  0.0646
  826loPI   C3A12881   1.449   3.746   6.745 -0.2119 -0.2198 -0.1622
  826loPI   C4A12882   1.547   3.592   7.155  0.2394 -0.2252 -0.1591
  826loPI   C5A12883   1.659   3.794   7.476  0.2365  0.0627  0.1464
  826loPI   C6A12884   1.518   4.071   7.686  0.1503 -0.1282  0.1702
  826loPI   C1B12885   1.917   3.747   6.128  0.4129 -0.0591 -0.0331
  826loPI   C2B12886   2.029   3.782   6.538 -0.1395  0.4084 -0.0271
  826loPI   C3B12887   2.021   3.838   6.964 -0.0804  0.0070 -0.1981
  826loPI   C4B12888   2.134   4.042   7.278 -0.0797 -0.0445  0.1200
  827loPI    C112889  15.269   0.745   4.881 -0.0435  0.0879  0.1210
  827loPI    C212890  15.277   0.461   5.162 -0.0008 -0.1399 -0.1058
  827loPI    C312891  15.344   0.365   4.780  0.2509  0.2140 -0.1557
  827loPI   PO412892  15.264   0.962   5.054  0.0070  0.2368  0.4987
  827loPI   GL112893  15.293   0.966   5.397  0.4599  0.2088 -0.0443
  827loPI   GL212894  15.200   0.740   5.625 -0.2882 -0.1257 -0.1818
  827loPI   C1A12895  15.539   1.045   5.930 -0.2878 -0.1940  0.0603
  827loPI   C2A12896  15.501   0.981   6.286 -0.0382  0.0754 -0.1346
  827loPI   C3A12897  15.495   1.028   6.703 -0.0523 -0.0434 -0.1433
  827loPI   C4A12898  15.576   1.131   7.139 -0.0302 -0.0765  0.1873
  827loPI   C5A12899  15.543   1.095   7.547  0.0689 -0.0749  0.1991
  827loPI   C6A12900  15.589   0.697   7.749 -0.1038 -0.0439 -0.0704
  827loPI   C1B12901  14.989   0.821   6.053  0.1866 -0.1610 -0.3005
  827loPI   C2B12902  15.050   0.859   6.501 -0.2320  0.0446 -0.1162
  827loPI   C3B12903  15.120   0.864   6.929  0.1616  0.3010  0.1402
  827loPI   C4B12904  15.121   0.958   7.367  0.0398 -0.1592 -0.3430
  828loPI    C112905  11.756  15.579   5.693  0.1202 -0.2233 -0.0880
  828loPI    C212906  11.964  15.785   5.965 -0.0990 -0.0805 -0.0256
  828loPI    C312907  11.856  15.408   6.040  0.0098 -0.1067  0.0021
  828loPI   PO412908  11.517  15.731   5.608 -0.3179 -0.0181 -0.2203
  828loPI   GL112909  11.202  15.984   5.913  0.0743 -0.0309  0.1254
  828loPI   GL212910  11.455  15.769   6.124  0.3485 -0.0434 -0.2141
  828loPI   C1A12911  10.931  15.951   6.293 -0.2419  0.0286 -0.2061
  828loPI   C2A12912  10.880  15.880   6.757 -0.2100  0.1037  0.0480
  828loPI   C3A12913  10.849  15.697   7.260 -0.0207 -0.1591  0.1345
  828loPI   C4A12914  10.679  15.697   7.767 -0.2006  0.1331  0.1192
  828loPI   C5A12915  10.496  15.935   8.200 -0.0417 -0.2944  0.2016
  828loPI   C6A12916  10.345  16.383   8.242 -0.1086 -0.1167  0.0211
  828loPI   C1B12917  11.898  15.701   6.468  0.0002 -0.1469 -0.0825
  828loPI   C2B12918  12.163  15.460   6.799 -0.1759  0.0417 -0.1368
  828loPI   C3B12919  12.400  15.709   7.092 -0.1163  0.1996 -0.2308
  828loPI   C4B12920  12.684  15.653   7.439 -0.0568 -0.3336 -0.2447
  829loPI    C112921  12.920   6.046   5.146 -0.0027  0.1666  0.2429
  829loPI    C212922  13.113   6.386   5.232  0.3133  0.0164  0.1456
  829loPI    C312923  13.126   6.238   4.861  0.0058  0.0029  0.1376
  829loPI   PO412924  13.048   5.841   5.309  0.2917  0.1613  0.2975
  829loPI   GL112925  13.233   5.752   5.744  0.0597  0.0232 -0.0917
  829loPI   GL212926  13.233   6.136   5.656 -0.1956  0.1692  0.0309
  829loPI   C1A12927  13.286   5.609   6.132  0.1099  0.2147 -0.2598
  829loPI   C2A12928  13.259   5.374   6.478 -0.2575 -0.3034  0.2615
  829loPI   C3A12929  13.316   5.430   6.919  0.0241  0.0616  0.1011
  829loPI   C4A12930  13.358   5.158   7.259 -0.1427 -0.1401  0.0624
  829loPI   C5A12931  13.394   5.408   7.633  0.0086 -0.1571 -0.0704
  829loPI   C6A12932  13.541   5.397   8.105  0.0950 -0.0612 -0.0482
  829loPI   C1B12933  13.339   6.095   6.068  0.2674  0.2647 -0.0939
  829loPI   C2B12934  13.432   6.057   6.482 -0.1770  0.0861  0.0010
  829loPI   C3B12935  13.387   5.942   6.957  0.2896  0.0840 -0.0617
  829loPI   C4B12936  13.517   6.014   7.408  0.1193 -0.1084  0.1623
  830loPI    C112937  17.954  14.070   4.951 -0.2150  0.1393 -0.0067
  830loPI    C212938  17.955  14.208   4.576  0.2319  0.0037 -0.0613
  830loPI    C312939  17.987  13.815   4.645  0.0157  0.0152  0.1190
  830loPI   PO412940  18.084  14.219   5.128  0.2933 -0.1535  0.2765
  830loPI   GL112941  18.350  14.146   5.495 -0.0780 -0.0213  0.1146
  830loPI   GL212942  18.150  14.340   5.620 -0.1308  0.0842 -0.1839
  830loPI   C1A12943  18.301  13.913   5.897  0.2454 -0.1814 -0.1720
  830loPI   C2A12944  18.333  13.881   6.343  0.0688  0.0340 -0.0774
  830loPI   C3A12945  18.174  13.747   6.756 -0.0363 -0.0353 -0.2126
  830loPI   C4A12946  18.043  13.741   7.158 -0.0669  0.0873 -0.0274
  830loPI   C5A12947  18.123  13.552   7.486  0.2130 -0.3085 -0.0613
  830loPI   C6A12948  18.131  13.111   7.604 -0.1441 -0.0448  0.0400
  830loPI   C1B12949  17.995  14.294   6.051 -0.1635  0.0624  0.1087
  830loPI   C2B12950  17.886  14.038   6.321  0.0040 -0.2344  0.1274
  830loPI   C3B12951  17.739  13.975   6.754  0.1302 -0.2490  0.0971
  830loPI   C4B12952  17.811  14.177   7.147  0.0552 -0.2688 -0.0009
  831loPI    C112953  14.424   4.470   5.274  0.2522 -0.0557  0.0022
  831loPI    C212954  14.439   4.090   5.399  0.0337 -0.1111 -0.1341
  831loPI    C312955  14.346   4.172   5.019 -0.1894  0.0888 -0.0387
  831loPI   PO412956  14.269   4.610   5.534 -0.4180  0.2291 -0.1468
  831loPI   GL112957  14.366   4.536   6.035  0.0707  0.4049  0.0978
  831loPI   GL212958  14.489   4.265   5.860  0.3534 -0.0320  0.1396
  831loPI   C1A12959  14.514   4.449   6.393  0.3815  0.1905 -0.2901
  831loPI   C2A12960  14.428   4.509   6.793  0.0610  0.3385 -0.0445
  831loPI   C3A12961  14.167   4.364   7.130  0.0022 -0.0904  0.2202
  831loPI   C4A12962  13.847   4.298   7.444 -0.1620 -0.0197 -0.2594
  831loPI   C5A12963  13.610   4.115   7.717  0.0206  0.1064 -0.3013
  831loPI   C6A12964  13.374   3.825   7.906 -0.1522 -0.1007 -0.1163
  831loPI   C1B12965  14.777   4.068   6.240  0.3218 -0.1410  0.1881
  831loPI   C2B12966  14.898   4.069   6.727  0.2632 -0.0692  0.1514
  831loPI   C3B12967  14.975   4.008   7.152  0.0425 -0.2941 -0.1587
  831loPI   C4B12968  15.024   4.010   7.569 -0.0225  0.0483  0.0546
  832loPI    C112969  13.050  13.908   5.242  0.0260 -0.2187  0.2222
  832loPI    C212970  13.422  13.872   5.101 -0.0143 -0.0878  0.0780
  832loPI    C312971  13.111  13.769   4.872 -0.0822  0.1533  0.0597
  832loPI   PO412972  13.085  14.078   5.365 -0.0508  0.1238 -0.1321
  832loPI   GL112973  13.045  14.192   5.804  0.0547  0.0623  0.0417
  832loPI   GL212974  13.157  13.836   5.840 -0.1103  0.0704  0.0222
  832loPI   C1A12975  12.857  14.170   6.175 -0.0913 -0.2351 -0.2888
  832loPI   C2A12976  12.710  14.060   6.488 -0.2223 -0.1836 -0.1695
  832loPI   C3A12977  12.434  13.984   6.861  0.0694 -0.1720 -0.1522
  832loPI   C4A12978  12.377  14.036   7.265 -0.0392  0.2560 -0.2381
  832loPI   C5A12979  12.203  14.017   7.740  0.1544 -0.0560 -0.0959
  832loPI   C6A12980  11.878  13.797   8.036 -0.1101  0.3392  0.2123
  832loPI   C1B12981  13.274  13.663   6.126  0.1067  0.3185  0.0188
  832loPI   C2B12982  13.250  13.850   6.494 -0.1610  0.2414  0.1306
  832loPI   C3B12983  13.141  13.883   6.892 -0.1979 -0.0469 -0.3303
  832loPI   C4B12984  12.739  13.685   7.031 -0.0111 -0.0373 -0.0030
  833loPI    C112985  11.709  10.199   5.047  0.1253  0.0073  0.3389
  833loPI    C212986  12.006  10.125   4.789 -0.2090  0.0938 -0.0818
  833loPI    C312987  11.972   9.908   5.123  0.1187 -0.1516 -0.2033
  833loPI   PO412988  11.747  10.433   5.102 -0.1128  0.1176  0.2211
  833loPI   GL112989  11.786  10.669   5.392 -0.0767 -0.0162 -0.1110
  833loPI   GL212990  11.545  10.809   5.479 -0.3057 -0.4361  0.0328
  833loPI   C1A12991  12.067  10.848   5.649 -0.3138  0.2652  0.0081
  833loPI   C2A12992  12.114  10.761   6.091 -0.2445 -0.0190 -0.1278
  833loPI   C3A12993  12.104  10.683   6.496  0.2719  0.2266  0.2494
  833loPI   C4A12994  12.221  10.591   6.935 -0.0961 -0.1898 -0.1991
  833loPI   C5A12995  12.293  10.513   7.418 -0.0970  0.0798 -0.1500
  833loPI   C6A12996  12.592  10.768   7.576 -0.1485  0.0343 -0.2896
  833loPI   C1B12997  11.635  10.661   5.881 -0.0264  0.2492  0.0488
  833loPI   C2B12998  11.614  10.618   6.343  0.0387 -0.3736 -0.2074
  833loPI   C3B12999  11.697  10.527   6.802  0.0261  0.2164 -0.1423
  833loPI   C4B13000  11.737  10.528   7.341  0.3322 -0.0956 -0.4041
  834loPI    C113001   5.404   1.699   5.136 -0.0202  0.2677  0.2108
  834loPI    C213002   5.776   1.607   5.252 -0.0393  0.2948  0.2945
  834loPI    C313003   5.550   1.333   5.068  0.0470  0.3002  0.1790
  834loPI   PO413004   5.238   1.745   5.365 -0.1070 -0.3691  0.3923
  834loPI   GL113005   4.916   1.594   5.727  0.1478  0.1187  0.0149
  834loPI   GL213006   5.165   1.484   5.898  0.0765  0.0623  0.1409
  834loPI   C1A13007   4.735   1.560   6.128 -0.0498  0.0866  0.1082
  834loPI   C2A13008   4.681   1.529   6.528 -0.0120 -0.1244  0.1892
  834loPI   C3A13009   4.671   1.496   6.926  0.2292 -0.2629  0.0598
  834loPI   C4A13010   4.778   1.496   7.354 -0.2560 -0.2983  0.0426
  834loPI   C5A13011   4.903   1.582   7.691  0.2652  0.1069  0.1184
  834loPI   C6A13012   4.718   1.872   7.873 -0.0768 -0.0803  0.1133
  834loPI   C1B13013   5.253   1.787   6.218  0.1729  0.0905 -0.0497
  834loPI   C2B13014   5.542   2.010   6.527 -0.1065 -0.1593  0.1002
  834loPI   C3B13015   5.877   2.215   6.489  0.2007 -0.0510 -0.3763
  834loPI   C4B13016   6.257   2.259   6.436 -0.0308  0.0975 -0.2923
  835loPI    C113017   3.628  12.672   4.974 -0.1235  0.0604 -0.1289
  835loPI    C213018   4.020  12.646   5.049 -0.1935 -0.1065  0.2012
  835loPI    C313019   3.886  12.898   4.769  0.1476 -0.0473  0.0863
  835loPI   PO413020   3.467  12.640   5.180 -0.4459 -0.0049 -0.0386
  835loPI   GL113021   3.415  12.748   5.531  0.0546 -0.0566 -0.0143
  835loPI   GL213022   3.257  12.407   5.636  0.1885 -0.4600 -0.1439
  835loPI   C1A13023   3.200  12.835   5.905 -0.0057  0.2742  0.2060
  835loPI   C2A13024   3.103  12.805   6.342 -0.0863  0.0218 -0.1045
  835loPI   C3A13025   2.820  12.860   6.701 -0.1823  0.0875 -0.2209
  835loPI   C4A13026   2.730  12.815   7.167 -0.0700  0.0461 -0.2934
  835loPI   C5A13027   2.562  13.015   7.401  0.1447  0.0424 -0.1038
  835loPI   C6A13028   2.320  13.269   7.611 -0.1433 -0.0470  0.0414
  835loPI   C1B13029   3.286  12.327   6.085 -0.2074 -0.0166  0.0725
  835loPI   C2B13030   3.176  12.311   6.504  0.0249 -0.2403 -0.1936
  835loPI   C3B13031   3.233  12.392   6.983  0.0547  0.0829 -0.0910
  835loPI   C4B13032   3.176  12.518   7.339  0.1123 -0.0016 -0.2238
  836loPI    C113033  10.282   6.655   5.126  0.0423  0.0727 -0.1379
  836loPI    C213034  10.141   7.012   5.239  0.0168  0.0034  0.0516
  836loPI    C313035   9.895   6.697   5.219  0.0712 -0.0381  0.0365
  836loPI   PO413036  10.572   6.684   5.302 -0.2559  0.1046  0.2728
  836loPI   GL113037  10.487   6.599   5.742 -0.2169  0.2261 -0.0871
  836loPI   GL213038  10.205   6.719   5.710 -0.0021 -0.0740 -0.1680
  836loPI   C1A13039  10.547   6.508   6.223  0.0720 -0.0873  0.0854
  836loPI   C2A13040  10.648   6.434   6.582 -0.1919  0.1465 -0.1040
  836loPI   C3A13041  10.762   6.526   6.959  0.0522 -0.0525 -0.1742
  836loPI   C4A13042  10.825   6.544   7.405  0.0234 -0.2822 -0.0052
  836loPI   C5A13043  11.144   6.660   7.912 -0.2341 -0.1335  0.2048
  836loPI   C6A13044  11.525   6.828   8.270 -0.0775 -0.1160 -0.2277
  836loPI   C1B13045  10.246   7.120   5.938  0.2180 -0.1922  0.3969
  836loPI   C2B13046  10.389   7.399   6.303  0.0168 -0.1181 -0.0330
  836loPI   C3B13047  10.380   7.346   6.771 -0.1475 -0.1767 -0.0555
  836loPI   C4B13048  10.510   7.367   7.211  0.1989 -0.3664 -0.5034
  837loPI    C113049   8.386   1.258   5.462 -0.2371 -0.0955 -0.0884
  837loPI    C213050   8.284   1.642   5.420  0.0097 -0.0063  0.0995
  837loPI    C313051   8.438   1.441   5.110 -0.1061  0.0490  0.0050
  837loPI   PO413052   8.482   1.263   5.708  0.0269 -0.0378 -0.0543
  837loPI   GL113053   8.737   1.364   5.991  0.0829  0.1275 -0.2788
  837loPI   GL213054   8.884   1.248   6.295 -0.0070 -0.1793  0.0174
  837loPI   C1A13055   8.431   1.465   6.369 -0.1836 -0.2159 -0.0439
  837loPI   C2A13056   8.433   1.589   6.730  0.3068  0.3335  0.0441
  837loPI   C3A13057   8.506   1.669   7.145 -0.0283 -0.0656 -0.3089
  837loPI   C4A13058   8.432   1.369   7.518 -0.1760  0.2045  0.0848
  837loPI   C5A13059   8.602   1.221   7.883  0.0278 -0.2331 -0.0082
  837loPI   C6A13060   8.615   1.291   8.345  0.5179 -0.1611 -0.0015
  837loPI   C1B13061   9.125   1.159   6.721  0.1915 -0.1716 -0.3619
  837loPI   C2B13062   9.425   1.122   7.062 -0.0061  0.0316 -0.0523
  837loPI   C3B13063   9.618   1.138   7.441 -0.0293 -0.1016  0.1950
  837loPI   C4B13064   9.889   0.894   7.709 -0.0346  0.1663  0.1703
  838loPI    C113065  14.863   2.993   4.864  0.0786 -0.1669  0.1654
  838loPI    C213066  14.971   2.698   4.615 -0.1071 -0.1627  0.0786
  838loPI    C313067  14.597   2.840   4.607 -0.0258  0.0587  0.1373
  838loPI   PO413068  14.967   2.926   5.084 -0.0747  0.0219  0.0436
  838loPI   GL113069  14.938   2.997   5.503 -0.0660  0.0412 -0.0727
  838loPI   GL213070  14.679   3.227   5.710 -0.1369 -0.1378 -0.0583
  838loPI   C1A13071  14.992   2.836   5.946  0.3371 -0.1797 -0.1849
  838loPI   C2A13072  14.955   2.728   6.412 -0.1439 -0.3714 -0.0507
  838loPI   C3A13073  14.930   2.690   6.843  0.0899 -0.1615  0.0293
  838loPI   C4A13074  15.060   2.790   7.297  0.1708 -0.1170  0.1542
  838loPI   C5A13075  15.372   2.693   7.657 -0.1199 -0.1512  0.0988
  838loPI   C6A13076  15.630   2.815   7.991  0.1103 -0.0376 -0.1023
  838loPI   C1B13077  14.591   3.064   6.176 -0.1235  0.3741 -0.0577
  838loPI   C2B13078  14.606   3.125   6.577  0.0234  0.0823 -0.1866
  838loPI   C3B13079  14.597   3.003   6.956  0.0341 -0.1041  0.1498
  838loPI   C4B13080  14.591   3.025   7.465  0.0070  0.0416 -0.2463
  839loPI    C113081  13.425   9.201   4.743  0.1576 -0.0887  0.1761
  839loPI    C213082  13.561   9.558   4.623 -0.0570 -0.1487 -0.2674
  839loPI    C313083  13.811   9.247   4.649  0.0774 -0.0312 -0.1366
  839loPI   PO413084  13.322   9.218   4.965  0.0687 -0.1506 -0.2239
  839loPI   GL113085  13.180   9.255   5.403 -0.0952  0.0621  0.2070
  839loPI   GL213086  13.317   9.006   5.407  0.2504  0.1509 -0.0508
  839loPI   C1A13087  13.492   9.352   5.750 -0.1357  0.0964  0.3124
  839loPI   C2A13088  13.521   9.248   6.235  0.1122 -0.0493  0.1491
  839loPI   C3A13089  13.577   9.373   6.626 -0.2163 -0.0205 -0.0469
  839loPI   C4A13090  13.639   9.362   7.081 -0.1048  0.2029 -0.2918
  839loPI   C5A13091  13.679   9.132   7.433 -0.2159  0.2265  0.3299
  839loPI   C6A13092  13.511   8.850   7.646  0.0371  0.4109  0.1824
  839loPI   C1B13093  13.350   8.878   5.840 -0.1710  0.1675  0.1823
  839loPI   C2B13094  13.507   8.798   6.281 -0.2746  0.1949 -0.0895
  839loPI   C3B13095  13.604   8.849   6.688 -0.1230 -0.2550  0.0689
  839loPI   C4B13096  13.584   8.846   7.057 -0.1637 -0.1396  0.0173
  840loPI    C113097   7.784   0.637   5.453  0.0822  0.2227 -0.0990
  840loPI    C213098   7.437   0.750   5.288 -0.0350  0.2211  0.1413
  840loPI    C313099   7.655   0.460   5.119 -0.1982  0.1553  0.0419
  840loPI   PO413100   7.730   0.566   5.713 -0.1214 -0.2847  0.1705
  840loPI   GL113101   7.804   0.763   6.011  0.1080 -0.1771 -0.0826
  840loPI   GL213102   7.609   0.898   6.247  0.1161  0.2516 -0.0957
  840loPI   C1A13103   7.997   0.587   6.263  0.1998 -0.1268  0.0375
  840loPI   C2A13104   8.271   0.500   6.620 -0.3109  0.0538  0.1501
  840loPI   C3A13105   8.352   0.327   7.050 -0.1724  0.2203  0.3927
  840loPI   C4A13106   8.489   0.325   7.434 -0.3578 -0.0891 -0.5098
  840loPI   C5A13107   8.614   0.184   7.821 -0.1764  0.0614  0.2399
  840loPI   C6A13108   8.575   0.113   8.177  0.0052 -0.0222  0.5880
  840loPI   C1B13109   7.776   0.757   6.674 -0.3953  0.4051  0.2393
  840loPI   C2B13110   7.970   0.748   6.921 -0.1248 -0.0328 -0.0494
  840loPI   C3B13111   7.947   0.779   7.366  0.6340  0.1988 -0.1487
  840loPI   C4B13112   8.230   0.884   7.806 -0.1563 -0.0500  0.1236
  841loPI    C113113  13.657   2.362   4.945 -0.1333  0.3365 -0.2636
  841loPI    C213114  13.608   2.116   4.633 -0.0463 -0.0002 -0.0179
  841loPI    C313115  13.305   2.183   4.884  0.0736 -0.2605  0.2006
  841loPI   PO413116  13.804   2.338   5.175 -0.0640 -0.2695 -0.1585
  841loPI   GL113117  13.788   2.386   5.616  0.0570  0.3795 -0.1295
  841loPI   GL213118  14.209   2.357   5.659 -0.0867 -0.1978  0.0567
  841loPI   C1A13119  13.496   2.351   5.945 -0.0439  0.2053  0.1431
  841loPI   C2A13120  13.500   2.300   6.329 -0.2847  0.1895  0.1093
  841loPI   C3A13121  13.586   2.308   6.757  0.1341 -0.2341  0.0589
  841loPI   C4A13122  13.488   2.345   7.165 -0.1403  0.0796  0.0289
  841loPI   C5A13123  13.576   2.547   7.556  0.0467  0.0934  0.1213
  841loPI   C6A13124  13.480   2.802   7.912 -0.1913  0.0425  0.2272
  841loPI   C1B13125  13.984   2.471   6.050 -0.1679  0.2236  0.1361
  841loPI   C2B13126  14.030   2.460   6.501  0.5680  0.0767  0.4677
  841loPI   C3B13127  14.041   2.374   6.935  0.4060  0.1514  0.0055
  841loPI   C4B13128  14.092   2.435   7.342 -0.1069 -0.0602 -0.0463
  842loPI    C113129   4.221  13.108   5.108 -0.2058 -0.0662 -0.0509
  842loPI    C213130   4.476  12.927   4.858 -0.1714  0.1114 -0.1456
  842loPI    C313131   4.382  13.313   4.804 -0.1265  0.1650  0.1442
  842loPI   PO413132   4.321  12.942   5.347  0.0877 -0.1518 -0.2337
  842loPI   GL113133   4.643  12.969   5.671  0.0405 -0.0941 -0.3230
  842loPI   GL213134   4.518  12.726   5.762 -0.0092  0.2667  0.0437
  842loPI   C1A13135   4.695  13.253   6.106  0.3240 -0.3916 -0.0938
  842loPI   C2A13136   4.571  13.119   6.567  0.1219 -0.1181 -0.1446
  842loPI   C3A13137   4.482  13.008   6.921  0.0710 -0.1227 -0.3708
  842loPI   C4A13138   4.285  12.924   7.331 -0.2826  0.3358 -0.1561
  842loPI   C5A13139   4.241  13.044   7.677  0.2985  0.0770 -0.2474
  842loPI   C6A13140   4.306  12.743   7.917 -0.3903 -0.2898  0.1581
  842loPI   C1B13141   4.514  12.765   6.229 -0.1505 -0.2028 -0.2335
  842loPI   C2B13142   4.539  12.613   6.636 -0.0308 -0.1055  0.0615
  842loPI   C3B13143   4.560  12.539   7.138 -0.2435  0.2125 -0.1471
  842loPI   C4B13144   4.703  12.700   7.595  0.1813  0.3606  0.0248
  843loPI    C113145   9.240   4.661   5.153 -0.0024 -0.0221 -0.0558
  843loPI    C213146   9.359   5.042   5.144  0.5638 -0.1741  0.3944
  843loPI    C313147   9.546   4.769   4.920 -0.0680 -0.1461 -0.2016
  843loPI   PO413148   9.246   4.650   5.486  0.2398 -0.2292  0.0298
  843loPI   GL113149   9.367   4.730   5.857  0.0020  0.0787 -0.3494
  843loPI   GL213150   9.161   4.979   6.044  0.1425 -0.2177  0.2646
  843loPI   C1A13151   9.664   4.611   6.274 -0.0469  0.0445  0.1557
  843loPI   C2A13152   9.598   4.762   6.643 -0.0900 -0.2514 -0.0579
  843loPI   C3A13153   9.711   4.989   7.091 -0.2837  0.1578 -0.0425
  843loPI   C4A13154   9.582   5.044   7.468  0.1210  0.1055  0.1200
  843loPI   C5A13155   9.804   5.017   7.817  0.1274 -0.1432  0.3473
  843loPI   C6A13156   9.839   5.232   8.232 -0.3869 -0.0592 -0.1203
  843loPI   C1B13157   9.325   5.108   6.409 -0.0824 -0.0150 -0.2119
  843loPI   C2B13158   9.478   5.301   6.796 -0.0904  0.2781  0.2438
  843loPI   C3B13159   9.661   5.502   7.138  0.1089 -0.2462 -0.0492
  843loPI   C4B13160   9.703   5.558   7.570 -0.0292 -0.3564  0.3067
  844loPI    C113161   9.172   9.678   5.123  0.0618 -0.0125 -0.1336
  844loPI    C213162   8.894   9.465   4.929  0.1598 -0.0810 -0.2000
  844loPI    C313163   9.102   9.747   4.735  0.1261 -0.0193 -0.1466
  844loPI   PO413164   9.149   9.466   5.348  0.4067 -0.3512 -0.0441
  844loPI   GL113165   8.945   9.521   5.748 -0.0987  0.3348  0.0203
  844loPI   GL213166   9.009   9.818   5.798  0.4899 -0.5013 -0.2344
  844loPI   C1A13167   8.684   9.544   6.063 -0.0674  0.1122 -0.3110
  844loPI   C2A13168   8.736   9.626   6.355 -0.0602 -0.0735 -0.3374
  844loPI   C3A13169   8.909   9.714   6.718 -0.0009 -0.5430 -0.0971
  844loPI   C4A13170   8.997   9.678   7.061 -0.0546 -0.1339 -0.1597
  844loPI   C5A13171   8.847   9.849   7.426  0.0552 -0.1448  0.0259
  844loPI   C6A13172   8.738   9.621   7.839 -0.1705  0.1308  0.3459
  844loPI   C1B13173   9.076   9.966   6.245  0.0408  0.1020  0.2902
  844loPI   C2B13174   8.830  10.214   6.506 -0.1796  0.2354  0.2633
  844loPI   C3B13175   8.606  10.262   6.904  0.1145  0.1967 -0.1145
  844loPI   C4B13176   8.626  10.300   7.336  0.0389 -0.2867  0.2387
  845loPI    C113177   4.968   9.395   4.828  0.0180 -0.0878 -0.0205
  845loPI    C213178   4.853   9.775   4.878 -0.0458 -0.1319  0.1791
  845loPI    C313179   4.938   9.638   4.512  0.2153  0.1417  0.1338
  845loPI   PO413180   4.799   9.317   5.032  0.0397 -0.0250  0.4355
  845loPI   GL113181   4.742   9.229   5.451 -0.3832  0.3386  0.2660
  845loPI   GL213182   4.390   9.263   5.502  0.0155 -0.3226  0.0918
  845loPI   C1A13183   4.688   8.929   5.859  0.2104 -0.1907 -0.1096
  845loPI   C2A13184   4.490   8.956   6.219  0.3783  0.2318  0.0486
  845loPI   C3A13185   4.416   8.907   6.673  0.2128 -0.0505  0.0435
  845loPI   C4A13186   4.278   8.960   7.140  0.2381 -0.0484  0.0747
  845loPI   C5A13187   4.384   9.221   7.595  0.1835 -0.1836  0.0313
  845loPI   C6A13188   4.533   9.474   8.023 -0.0017 -0.1780  0.3781
  845loPI   C1B13189   4.332   9.313   5.918  0.2812 -0.4229 -0.1192
  845loPI   C2B13190   4.212   9.352   6.443  0.0600  0.0599 -0.2228
  845loPI   C3B13191   4.094   9.445   6.779  0.0882  0.0811  0.1957
  845loPI   C4B13192   4.315   9.456   7.138 -0.1706  0.0597 -0.2033
  846loPI    C113193  11.409   5.895   5.170 -0.2379 -0.1075 -0.0259
  846loPI    C213194  11.319   5.636   4.879 -0.0905  0.0040 -0.1725
  846loPI    C313195  11.233   6.024   4.834  0.1178  0.0534 -0.1553
  846loPI   PO413196  11.449   5.661   5.328 -0.0826 -0.1400 -0.1451
  846loPI   GL113197  11.588   5.739   5.765  0.1114  0.2068 -0.0715
  846loPI   GL213198  11.942   5.825   5.662 -0.2636 -0.1359 -0.0066
  846loPI   C1A13199  11.634   5.729   6.288  0.0089  0.1449  0.5200
  846loPI   C2A13200  11.511   5.816   6.750 -0.0227 -0.0365 -0.0731
  846loPI   C3A13201  11.625   5.831   7.131 -0.0977  0.0631 -0.2355
  846loPI   C4A13202  11.766   5.818   7.600 -0.0047 -0.1291 -0.0790
  846loPI   C5A13203  11.605   5.804   8.010  0.2355 -0.0300 -0.0198
  846loPI   C6A13204  11.665   5.685   8.415 -0.0100  0.1886 -0.0974
  846loPI   C1B13205  11.990   5.945   6.093  0.1810 -0.0534  0.2649
  846loPI   C2B13206  11.932   6.023   6.465  0.1615 -0.0945  0.0761
  846loPI   C3B13207  12.028   5.952   6.878  0.3167  0.0899 -0.0724
  846loPI   C4B13208  12.145   5.944   7.278  0.0093  0.1578  0.2583
  847loPI    C113209   7.818   2.683   5.607  0.0530 -0.0601 -0.2433
  847loPI    C213210   7.739   2.360   5.385 -0.3335 -0.1305 -0.0123
  847loPI    C313211   7.680   2.725   5.234  0.2493 -0.1536 -0.3284
  847loPI   PO413212   8.065   2.623   5.651  0.0415 -0.0712 -0.1167
  847loPI   GL113213   8.255   2.658   6.027 -0.1180 -0.3232 -0.0704
  847loPI   GL213214   8.571   2.818   6.064 -0.0114 -0.1861 -0.2103
  847loPI   C1A13215   8.239   2.672   6.476 -0.0633  0.1667 -0.1736
  847loPI   C2A13216   8.214   2.633   6.930  0.0770  0.1566 -0.3131
  847loPI   C3A13217   7.990   2.728   7.351  0.5469 -0.1926  0.1550
  847loPI   C4A13218   8.052   2.370   7.671  0.0228 -0.0266  0.2073
  847loPI   C5A13219   8.218   2.127   7.953 -0.0399 -0.1208 -0.1974
  847loPI   C6A13220   8.278   2.241   8.450  0.1074 -0.1913  0.1174
  847loPI   C1B13221   8.732   2.916   6.495 -0.0896 -0.2631  0.3047
  847loPI   C2B13222   8.825   3.095   6.923 -0.1797  0.0864 -0.0618
  847loPI   C3B13223   8.698   3.022   7.350 -0.0389  0.0375  0.2507
  847loPI   C4B13224   8.437   2.678   7.536 -0.3225 -0.0064  0.1004
  848loPI    C113225  17.976  10.750   4.469 -0.0185  0.0478  0.2094
  848loPI    C213226  17.801  10.436   4.293 -0.1308  0.1908  0.0634
  848loPI    C313227  18.134  10.594   4.136 -0.0475  0.1160  0.1636
  848loPI   PO413228  18.018  10.688   4.797 -0.0902  0.3973 -0.0256
  848loPI   GL113229  18.089  10.655   5.276 -0.1035 -0.2504  0.4056
  848loPI   GL213230  18.441  10.813   5.464  0.0061 -0.0849 -0.1300
  848loPI   C1A13231  18.173  10.403   5.678  0.0040 -0.1961 -0.3908
  848loPI   C2A13232  17.949  10.334   6.097 -0.2086  0.0121  0.0553
  848loPI   C3A13233  18.003  10.287   6.395 -0.1533 -0.2226  0.1716
  848loPI   C4A13234  17.962  10.371   6.864 -0.0477 -0.0355  0.3568
  848loPI   C5A13235  17.908  10.432   7.251  0.1007 -0.1422 -0.1509
  848loPI   C6A13236  17.973  10.364   7.689 -0.1249 -0.1367 -0.0344
  848loPI   C1B13237  18.458  10.958   5.865 -0.3630  0.0279  0.0137
  848loPI   C2B13238  18.484  11.036   6.306 -0.1203  0.2844 -0.0869
  848loPI   C3B13239  18.463  11.054   6.707 -0.2148  0.2683 -0.3474
  848loPI   C4B13240  18.629  11.042   7.201  0.1982  0.1324 -0.0943
  849loPI    C113241   0.250  11.521   4.926  0.4908 -0.0381  0.0082
  849loPI    C213242   0.200  11.372   4.558  0.1218 -0.0591  0.0637
  849loPI    C313243   0.320  11.751   4.606  0.0745 -0.0254 -0.0788
  849loPI   PO413244   0.321  11.256   5.171  0.1587  0.1264  0.0397
  849loPI   GL113245   0.480  11.177   5.588 -0.3045  0.2338  0.4003
  849loPI   GL213246   0.222  11.377   5.663 -0.1530  0.0234 -0.4181
  849loPI   C1A13247   0.723  11.176   5.940  0.0485 -0.0578  0.1981
  849loPI   C2A13248   0.623  11.158   6.481 -0.0136 -0.1293  0.2339
  849loPI   C3A13249   0.722  11.154   6.920 -0.2846 -0.0042 -0.1803
  849loPI   C4A13250   0.740  11.275   7.402  0.1590 -0.3530  0.0784
  849loPI   C5A13251   0.374  11.308   7.695  0.0932 -0.1751 -0.1766
  849loPI   C6A13252   0.043  11.165   7.951  0.0227  0.1190 -0.0279
  849loPI   C1B13253   0.322  11.445   6.095  0.1226  0.3420 -0.2474
  849loPI   C2B13254   0.237  11.492   6.455 -0.1245 -0.1937  0.0584
  849loPI   C3B13255   0.302  11.501   6.867  0.0023 -0.1193 -0.1950
  849loPI   C4B13256   0.256  11.545   7.229  0.0034 -0.3393 -0.4833
  850loPI    C113257  11.886   4.285   5.284  0.0775  0.1432 -0.0163
  850loPI    C213258  11.530   4.192   5.126 -0.0375  0.1414  0.2395
  850loPI    C313259  11.849   4.235   4.889 -0.1709 -0.0279  0.0260
  850loPI   PO413260  11.846   4.484   5.400 -0.1565 -0.1316  0.2080
  850loPI   GL113261  12.049   4.719   5.768  0.0447 -0.1423 -0.0970
  850loPI   GL213262  12.237   5.000   5.650 -0.0014 -0.2536 -0.0180
  850loPI   C1A13263  11.910   4.862   6.090  0.1249  0.2212  0.0519
  850loPI   C2A13264  11.860   4.951   6.511  0.0167 -0.1822 -0.1941
  850loPI   C3A13265  11.876   4.992   7.015 -0.0685  0.2536  0.0183
  850loPI   C4A13266  11.874   5.018   7.354 -0.2290  0.0958 -0.0602
  850loPI   C5A13267  11.715   5.120   7.763  0.0538  0.1372  0.0474
  850loPI   C6A13268  11.916   5.392   8.041 -0.1695  0.0474  0.3649
  850loPI   C1B13269  12.518   5.047   6.009  0.1749  0.3310  0.1162
  850loPI   C2B13270  12.386   5.113   6.504 -0.3207  0.3090 -0.3106
  850loPI   C3B13271  12.355   5.092   6.934  0.1524  0.0500 -0.0453
  850loPI   C4B13272  12.434   4.998   7.422  0.0869  0.3079  0.1129
  851loPI    C113273  14.834  11.762   4.896 -0.0790 -0.1220  0.0597
  851loPI    C213274  14.442  11.692   4.860 -0.0610 -0.2860  0.1700
  851loPI    C313275  14.629  11.924   4.594 -0.1989 -0.3489  0.0167
  851loPI   PO413276  14.967  11.854   5.144  0.0693  0.1465 -0.0477
  851loPI   GL113277  15.257  11.534   5.439 -0.0106  0.2238  0.1838
  851loPI   GL213278  15.399  11.870   5.520  0.0986  0.1084  0.1060
  851loPI   C1A13279  15.475  11.439   5.805 -0.0003  0.0187 -0.2309
  851loPI   C2A13280  15.480  11.356   6.235 -0.3659 -0.3461  0.0213
  851loPI   C3A13281  15.354  11.370   6.607 -0.0038 -0.2819  0.1148
  851loPI   C4A13282  15.513  11.330   7.062 -0.0600  0.2452  0.1347
  851loPI   C5A13283  15.464  11.480   7.455  0.1806  0.0696  0.0619
  851loPI   C6A13284  15.324  11.776   7.681  0.0047  0.1278  0.1447
  851loPI   C1B13285  15.583  11.907   5.961  0.0697 -0.3213 -0.0802
  851loPI   C2B13286  15.621  11.808   6.380  0.0577 -0.0723  0.1262
  851loPI   C3B13287  15.540  11.774   6.791  0.1527 -0.1299 -0.1774
  851loPI   C4B13288  15.554  11.895   7.220 -0.0664  0.0321  0.1104
  852loPI    C113289   3.429   4.731   5.170 -0.1685 -0.0509 -0.0465
  852loPI    C213290   3.673   4.416   5.127 -0.1097 -0.0009 -0.0811
  852loPI    C313291   3.360   4.463   4.882  0.0744  0.1450 -0.2928
  852loPI   PO413292   3.543   4.900   5.439 -0.1121 -0.0860  0.1079
  852loPI   GL113293   3.351   5.219   5.739  0.0182 -0.1421  0.1677
  852loPI   GL213294   3.220   4.961   5.986  0.0975 -0.6667 -0.2525
  852loPI   C1A13295   3.435   5.489   6.067  0.2289 -0.1194  0.5172
  852loPI   C2A13296   3.550   5.624   6.473  0.3131  0.0629 -0.0194
  852loPI   C3A13297   3.522   5.583   6.843  0.0589  0.1544  0.0665
  852loPI   C4A13298   3.522   5.678   7.335  0.0022 -0.0968  0.1992
  852loPI   C5A13299   3.574   5.826   7.754 -0.0825 -0.0382 -0.1978
  852loPI   C6A13300   3.538   6.289   8.002 -0.1842 -0.0159  0.3872
  852loPI   C1B13301   3.260   5.121   6.369 -0.1694  0.1118  0.1524
  852loPI   C2B13302   3.271   5.128   6.800 -0.0144 -0.1359 -0.4118
  852loPI   C3B13303   3.216   5.336   7.239 -0.1043 -0.1224  0.0963
  852loPI   C4B13304   3.077   5.286   7.689 -0.2811  0.1575  0.1684
  853loPI    C113305  17.247  17.337   5.124 -0.0074 -0.0474 -0.1303
  853loPI    C213306  17.234  17.403   4.730 -0.1184 -0.0597 -0.1290
  853loPI    C313307  16.939  17.201   4.909  0.0149 -0.2008 -0.0665
  853loPI   PO413308  17.473  17.218   5.172  0.0636  0.0257 -0.2254
  853loPI   GL113309  17.484  16.999   5.538  0.1155  0.0629 -0.0039
  853loPI   GL213310  17.784  17.002   5.538 -0.0801  0.4044  0.1133
  853loPI   C1A13311  17.317  16.910   5.874 -0.1660  0.0599  0.1279
  853loPI   C2A13312  17.258  17.151   6.301 -0.0132  0.1025 -0.1191
  853loPI   C3A13313  17.479  17.161   6.566 -0.2281  0.1463  0.1068
  853loPI   C4A13314  17.489  17.158   6.998  0.0150 -0.0665  0.2749
  853loPI   C5A13315  17.521  17.206   7.431 -0.0141 -0.2381  0.0240
  853loPI   C6A13316  17.606  17.075   7.755  0.0641  0.1660  0.0691
  853loPI   C1B13317  18.018  17.315   5.868 -0.0567  0.1684 -0.1670
  853loPI   C2B13318  17.854  17.486   6.247  0.1031 -0.0421 -0.1921
  853loPI   C3B13319  17.522  17.609   6.540  0.3143  0.5289 -0.1302
  853loPI   C4B13320  17.455  17.727   7.005 -0.0683 -0.0664  0.1651
  854loPI    C113321  15.259   5.214   5.036 -0.1136  0.0081  0.1245
  854loPI    C213322  15.196   5.570   5.207  0.0034  0.0031  0.1798
  854loPI    C313323  15.401   5.546   4.864  0.0006 -0.0116  0.1791
  854loPI   PO413324  15.363   5.060   5.228 -0.0190 -0.2277  0.0605
  854loPI   GL113325  15.594   4.958   5.524  0.2231  0.1005 -0.0937
  854loPI   GL213326  15.788   4.713   5.618 -0.2897  0.1514  0.1295
  854loPI   C1A13327  15.375   4.807   5.849  0.1594 -0.2812 -0.2800
  854loPI   C2A13328  15.332   4.758   6.279 -0.0604  0.1238 -0.0317
  854loPI   C3A13329  15.441   4.786   6.640  0.0314  0.2958  0.1635
  854loPI   C4A13330  15.513   4.751   7.006 -0.1411 -0.1744 -0.1394
  854loPI   C5A13331  15.230   4.648   7.288 -0.3570 -0.3826 -0.1733
  854loPI   C6A13332  14.947   4.701   7.539 -0.1501 -0.0976 -0.0302
  854loPI   C1B13333  15.694   4.530   6.043 -0.1537  0.2151 -0.2671
  854loPI   C2B13334  15.736   4.453   6.498 -0.0536  0.1399 -0.0354
  854loPI   C3B13335  15.914   4.438   6.941  0.2153  0.1652 -0.0303
  854loPI   C4B13336  16.328   4.559   7.034 -0.2289 -0.0645  0.1750
  855loPI    C113337   3.918  13.464   4.790  0.0443 -0.0294  0.0026
  855loPI    C213338   3.904  13.804   4.579 -0.0468 -0.0298  0.0078
  855loPI    C313339   4.067  13.475   4.419 -0.1287 -0.0338 -0.0676
  855loPI   PO413340   3.998  13.629   5.088 -0.1585 -0.2505 -0.1324
  855loPI   GL113341   4.058  13.580   5.566  0.0664  0.2243 -0.2409
  855loPI   GL213342   3.739  13.417   5.575 -0.1384 -0.0531  0.2112
  855loPI   C1A13343   4.266  13.565   5.960 -0.0380  0.0807  0.1621
  855loPI   C2A13344   4.430  13.621   6.428 -0.3503  0.1211  0.0769
  855loPI   C3A13345   4.215  13.514   6.838 -0.4421  0.3003  0.1942
  855loPI   C4A13346   3.996  13.224   7.095 -0.0772 -0.1660  0.0344
  855loPI   C5A13347   3.783  13.024   7.445  0.0654  0.0516 -0.1300
  855loPI   C6A13348   3.761  12.908   7.908 -0.1112  0.1021  0.1393
  855loPI   C1B13349   3.698  13.180   6.011  0.0750 -0.0835 -0.2184
  855loPI   C2B13350   3.522  13.150   6.463  0.2797  0.2983 -0.1103
  855loPI   C3B13351   3.327  12.897   6.743 -0.0759  0.1548  0.1483
  855loPI   C4B13352   3.197  12.976   7.190 -0.1617  0.0406 -0.1431
  856loPI    C113353   4.559  10.077   5.133  0.0612 -0.0557 -0.0520
  856loPI    C213354   4.268  10.096   4.859  0.1595  0.0133 -0.1526
  856loPI    C313355   4.574  10.354   4.845 -0.1279  0.4018  0.3650
  856loPI   PO413356   4.399  10.089   5.369 -0.0643  0.1998  0.1055
  856loPI   GL113357   4.335   9.824   5.659  0.0105 -0.0727  0.0372
  856loPI   GL213358   4.381  10.000   5.912 -0.2104  0.2704 -0.6151
  856loPI   C1A13359   4.025   9.748   6.101  0.0156 -0.0659  0.1921
  856loPI   C2A13360   4.061   9.867   6.621  0.2087 -0.3473  0.0711
  856loPI   C3A13361   3.981   9.826   7.132  0.2073 -0.3005 -0.2406
  856loPI   C4A13362   3.977   9.482   7.461  0.0495 -0.0277  0.4803
  856loPI   C5A13363   3.958   9.011   7.504  0.2044  0.4852  0.6104
  856loPI   C6A13364   4.386   8.681   7.580 -0.3678  0.0461 -0.0958
  856loPI   C1B13365   4.441  10.129   6.346  0.4003  0.0353 -0.2118
  856loPI   C2B13366   4.306  10.254   6.684  0.1018  0.1107 -0.0510
  856loPI   C3B13367   4.115  10.375   7.262 -0.2145  0.0504 -0.1673
  856loPI   C4B13368   4.359  10.439   7.591  0.2391 -0.0315 -0.0417
  857loPI    C113369   0.054   7.138   4.804  0.0006 -0.0079  0.1231
  857loPI    C213370   0.128   6.747   4.766  0.0126  0.0055  0.0067
  857loPI    C313371   0.227   6.999   4.471  0.1914  0.1235  0.1657
  857loPI   PO413372   0.086   7.155   5.063 -0.3958 -0.0878 -0.0346
  857loPI   GL113373  -0.094   7.253   5.473 -0.0239 -0.1002 -0.1906
  857loPI   GL213374  -0.044   7.030   5.672 -0.0981  0.1095  0.2840
  857loPI   C1A13375   0.053   7.612   5.685 -0.0360  0.2071  0.1015
  857loPI   C2A13376  -0.026   7.591   6.178  0.2973 -0.3423  0.0160
  857loPI   C3A13377   0.036   7.626   6.598 -0.2483  0.2052  0.0163
  857loPI   C4A13378   0.030   7.810   7.002 -0.1086  0.0587  0.1529
  857loPI   C5A13379  -0.205   8.056   7.393 -0.2370  0.2666 -0.0038
  857loPI   C6A13380  -0.665   7.983   7.592  0.0123  0.2593 -0.3636
  857loPI   C1B13381  -0.145   7.058   6.185  0.2830 -0.1382  0.1669
  857loPI   C2B13382  -0.089   7.099   6.608  0.1808 -0.0849 -0.2009
  857loPI   C3B13383  -0.060   7.300   7.057 -0.1083  0.0326 -0.4710
  857loPI   C4B13384   0.086   7.443   7.399  0.0832 -0.0036 -0.2937
  858loPI    C113385   3.364   4.174   5.540 -0.0044 -0.1159  0.0071
  858loPI    C213386   3.014   4.201   5.732  0.0311 -0.1165  0.0720
  858loPI    C313387   3.029   4.253   5.336 -0.0675 -0.2766  0.0464
  858loPI   PO413388   3.513   4.353   5.608 -0.4587 -0.0545 -0.1134
  858loPI   GL113389   3.788   4.655   5.846  0.0606  0.2215  0.0491
  858loPI   GL213390   3.858   4.387   6.011 -0.0119 -0.0058 -0.1930
  858loPI   C1A13391   3.661   4.834   6.184  0.1058 -0.2355  0.2891
  858loPI   C2A13392   3.613   4.833   6.642  0.0004  0.0296 -0.1555
  858loPI   C3A13393   3.587   4.868   7.118  0.2408  0.3416  0.2049
  858loPI   C4A13394   3.479   5.032   7.528  0.0842  0.2023 -0.0254
  858loPI   C5A13395   3.319   4.923   7.934 -0.1848 -0.1198  0.0723
  858loPI   C6A13396   3.286   5.144   8.278 -0.3394  0.1854  0.0894
  858loPI   C1B13397   3.876   4.402   6.490 -0.0075 -0.0328  0.3338
  858loPI   C2B13398   3.850   4.443   6.927 -0.0100 -0.0042 -0.4467
  858loPI   C3B13399   3.832   4.440   7.325  0.0520 -0.0834  0.1400
  858loPI   C4B13400   3.811   4.669   7.728  0.1198 -0.1124 -0.1259
  859loPI    C113401  15.964   4.307   4.798  0.3794  0.0517 -0.0847
  859loPI    C213402  16.052   4.697   4.783 -0.0072  0.1431 -0.0725
  859loPI    C313403  15.901   4.513   4.461 -0.0673  0.0642  0.0006
  859loPI   PO413404  16.149   4.230   4.946 -0.1107 -0.0931  0.0453
  859loPI   GL113405  16.240   4.336   5.353 -0.1363  0.1391  0.1582
  859loPI   GL213406  16.247   4.574   5.376  0.0995  0.0536 -0.2235
  859loPI   C1A13407  16.160   4.135   5.748 -0.0810 -0.1395  0.0666
  859loPI   C2A13408  16.053   4.075   6.196  0.0155  0.0564  0.0329
  859loPI   C3A13409  15.700   3.898   6.386 -0.0044 -0.1462  0.0891
  859loPI   C4A13410  15.739   3.901   6.809  0.0592 -0.2944 -0.2737
  859loPI   C5A13411  15.863   4.002   7.239 -0.4248  0.0482  0.0694
  859loPI   C6A13412  16.232   4.202   7.424 -0.1312 -0.0343 -0.2424
  859loPI   C1B13413  16.264   4.660   5.803 -0.0649 -0.0452  0.0502
  859loPI   C2B13414  16.258   4.520   6.215  0.0517 -0.3163 -0.1022
  859loPI   C3B13415  16.262   4.393   6.552 -0.0306  0.0991  0.1676
  859loPI   C4B13416  16.251   4.055   6.801 -0.0197 -0.1535  0.1155
  860loPI    C113417   6.532  15.261   5.462  0.1762 -0.1311  0.0527
  860loPI    C213418   6.308  15.026   5.227 -0.0298  0.1036  0.0101
  860loPI    C313419   6.705  15.041   5.175 -0.0373 -0.0875 -0.1117
  860loPI   PO413420   6.386  15.237   5.694 -0.0567  0.0991  0.0085
  860loPI   GL113421   6.393  15.073   6.063  0.2481  0.2803  0.3388
  860loPI   GL213422   6.132  15.151   6.248 -0.3020  0.1695 -0.0323
  860loPI   C1A13423   6.498  14.794   6.404 -0.0489 -0.1522 -0.0251
  860loPI   C2A13424   6.328  14.775   6.844 -0.1269  0.1907  0.1609
  860loPI   C3A13425   6.198  14.642   7.269  0.1080 -0.2242  0.1791
  860loPI   C4A13426   6.099  14.483   7.679 -0.2646  0.1247 -0.0934
  860loPI   C5A13427   5.802  14.524   7.931 -0.0624  0.0455  0.1872
  860loPI   C6A13428   5.701  14.420   8.422 -0.1406 -0.0455  0.0107
  860loPI   C1B13429   6.331  15.217   6.643  0.0967 -0.1993 -0.0882
  860loPI   C2B13430   6.318  15.248   7.085 -0.0762  0.0985  0.1962
  860loPI   C3B13431   6.600  15.299   7.422  0.0619  0.0698 -0.0567
  860loPI   C4B13432   6.667  15.229   7.954 -0.1339 -0.5086  0.0207
  861loPI    C113433  11.157   1.494   5.781  0.2810  0.1711  0.0911
  861loPI    C213434  10.969   1.654   5.467 -0.0136 -0.4035 -0.0389
  861loPI    C313435  11.367   1.617   5.464  0.0189 -0.0726 -0.1839
  861loPI   PO413436  10.910   1.402   5.913  0.3060  0.1713  0.2513
  861loPI   GL113437  10.861   1.736   6.305 -0.0440  0.0353  0.6713
  861loPI   GL213438  10.692   1.497   6.376 -0.0973  0.2954 -0.2287
  861loPI   C1A13439  11.285   1.635   6.569 -0.0712  0.2466 -0.2934
  861loPI   C2A13440  11.477   1.938   6.961  0.0493  0.1435  0.0348
  861loPI   C3A13441  11.650   1.898   7.412  0.2290 -0.0876 -0.1404
  861loPI   C4A13442  11.638   1.639   7.842  0.1140 -0.1500  0.0816
  861loPI   C5A13443  11.689   1.219   7.771 -0.0979  0.2638  0.1224
  861loPI   C6A13444  12.131   0.992   7.585 -0.0541  0.0607  0.0451
  861loPI   C1B13445  10.865   1.574   6.758 -0.1750 -0.0402 -0.0164
  861loPI   C2B13446  11.026   1.701   7.121  0.0577  0.0111  0.1432
  861loPI   C3B13447  11.159   1.885   7.439 -0.2485  0.4181  0.0699
  861loPI   C4B13448  11.325   2.038   7.824  0.4503 -0.1845  0.2432
  862loPI    C113449  13.144   1.676   4.960 -0.1598  0.1867  0.1157
  862loPI    C213450  12.939   1.339   5.027  0.0647  0.0529  0.1415
  862loPI    C313451  13.034   1.446   4.653 -0.0983  0.1442  0.1253
  862loPI   PO413452  13.245   1.720   5.216  0.0640 -0.0631 -0.0534
  862loPI   GL113453  13.578   1.889   5.526  0.0909  0.0107 -0.1720
  862loPI   GL213454  13.598   1.569   5.515 -0.1044  0.0747 -0.1048
  862loPI   C1A13455  13.863   1.934   5.930  0.0014 -0.0292  0.0891
  862loPI   C2A13456  13.936   2.008   6.272 -0.0191 -0.1630  0.1892
  862loPI   C3A13457  13.876   1.941   6.668  0.0339 -0.0253  0.1709
  862loPI   C4A13458  13.913   1.935   7.159 -0.3266  0.1237  0.2810
  862loPI   C5A13459  13.785   2.063   7.496 -0.0436 -0.1285 -0.1991
  862loPI   C6A13460  13.635   2.110   7.945  0.1561  0.1469 -0.0332
  862loPI   C1B13461  13.702   1.461   5.861  0.1930 -0.0415  0.2740
  862loPI   C2B13462  13.716   1.546   6.323  0.0448 -0.1386  0.2749
  862loPI   C3B13463  13.806   1.424   6.748  0.0694 -0.1672  0.1633
  862loPI   C4B13464  13.812   1.382   7.204 -0.1609  0.1017 -0.3714
  863loPI    C113465   5.870   0.011   5.170  0.0553 -0.0506  0.1193
  863loPI    C213466   6.120   0.075   4.864 -0.1449 -0.0654 -0.0494
  863loPI    C313467   6.041  -0.299   4.983  0.0695 -0.0534  0.1369
  863loPI   PO413468   5.953   0.128   5.379  0.1342  0.1269 -0.1944
  863loPI   GL113469   6.113   0.121   5.801 -0.1589  0.1066  0.1865
  863loPI   GL213470   6.330   0.352   5.751 -0.0882  0.1877 -0.0590
  863loPI   C1A13471   6.163  -0.203   6.084 -0.0977 -0.0836  0.1023
  863loPI   C2A13472   6.285  -0.240   6.495  0.1209  0.1442  0.0471
  863loPI   C3A13473   6.231  -0.325   7.011  0.1481  0.0491  0.0388
  863loPI   C4A13474   6.302  -0.250   7.506  0.1881 -0.0404  0.0037
  863loPI   C5A13475   6.585  -0.158   7.765 -0.0462  0.5356 -0.0724
  863loPI   C6A13476   6.790   0.117   7.943  0.1524 -0.1210  0.1525
  863loPI   C1B13477   6.315   0.263   6.246  0.4202 -0.0461 -0.0359
  863loPI   C2B13478   6.373   0.283   6.627 -0.1050 -0.0273  0.1075
  863loPI   C3B13479   6.388   0.260   7.075  0.0890  0.4517  0.2554
  863loPI   C4B13480   6.511   0.206   7.475  0.4554  0.0104  0.0792
  864loPI    C113481   4.886  10.694   5.237 -0.2283  0.0849  0.0435
  864loPI    C213482   4.817  10.998   4.987 -0.0327  0.0793 -0.0189
  864loPI    C313483   5.155  10.987   5.200 -0.0282 -0.1054 -0.0338
  864loPI   PO413484   4.726  10.556   5.249  0.1539 -0.0738 -0.1064
  864loPI   GL113485   4.550  10.484   5.599 -0.1532  0.0856 -0.0558
  864loPI   GL213486   4.149  10.416   5.612 -0.0759  0.0197  0.1818
  864loPI   C1A13487   4.656  10.515   5.978  0.0462 -0.0941  0.0564
  864loPI   C2A13488   4.686  10.578   6.371  0.3826 -0.0756  0.0231
  864loPI   C3A13489   4.655  10.830   6.758  0.0551 -0.1025 -0.2554
  864loPI   C4A13490   4.365  10.983   7.079 -0.1273 -0.0988  0.1838
  864loPI   C5A13491   4.232  10.996   7.490  0.1706  0.0607 -0.2336
  864loPI   C6A13492   4.059  10.792   7.862  0.4223 -0.0970 -0.0461
  864loPI   C1B13493   4.101  10.456   6.055  0.1824 -0.1324  0.1515
  864loPI   C2B13494   3.905  10.360   6.456  0.0760  0.0035 -0.1154
  864loPI   C3B13495   3.694  10.192   6.805 -0.0917  0.0349  0.2328
  864loPI   C4B13496   3.673  10.181   7.267 -0.0826  0.0687  0.2467
  865loPI    C113497  12.994   7.368   5.209 -0.1577  0.1347 -0.0846
  865loPI    C213498  13.086   7.594   4.892 -0.2370 -0.0136 -0.2144
  865loPI    C313499  13.060   7.197   4.854  0.1546 -0.0721  0.0686
  865loPI   PO413500  13.077   7.592   5.423 -0.2224  0.1169  0.0085
  865loPI   GL113501  12.872   7.750   5.710  0.2632  0.0797  0.2305
  865loPI   GL213502  12.677   7.612   5.753 -0.3242  0.1154 -0.0266
  865loPI   C1A13503  13.210   7.880   6.007  0.3469 -0.0995 -0.1550
  865loPI   C2A13504  13.265   7.888   6.493 -0.0542 -0.2264  0.3913
  865loPI   C3A13505  13.402   7.822   6.911  0.1359 -0.1829  0.1193
  865loPI   C4A13506  13.394   7.844   7.391 -0.2061  0.0081  0.0729
  865loPI   C5A13507  13.304   7.779   7.854 -0.0335 -0.0595  0.2222
  865loPI   C6A13508  13.369   7.386   8.129  0.0074  0.1789 -0.3992
  865loPI   C1B13509  12.777   7.722   6.182  0.1232  0.1790  0.1565
  865loPI   C2B13510  12.757   7.675   6.551  0.3006 -0.0585  0.0675
  865loPI   C3B13511  12.844   7.635   6.942  0.2166  0.0520  0.0926
  865loPI   C4B13512  12.946   7.616   7.330  0.2728 -0.1852  0.3302
  866loPI    C113513   8.736   8.958   4.993  0.0315 -0.0620  0.0027
  866loPI    C213514   8.951   8.958   4.656 -0.0033  0.0583 -0.0201
  866loPI    C313515   8.717   8.645   4.744  0.2536 -0.1166  0.0523
  866loPI   PO413516   8.989   8.973   5.201  0.1085 -0.1988 -0.1336
  866loPI   GL113517   9.254   9.037   5.593  0.1681  0.0845 -0.0829
  866loPI   GL213518   9.132   8.689   5.576 -0.0235 -0.0291  0.1129
  866loPI   C1A13519   9.415   9.028   5.976  0.1282 -0.0956 -0.0008
  866loPI   C2A13520   9.448   8.890   6.430  0.1006  0.1531  0.1994
  866loPI   C3A13521   9.536   8.975   6.889 -0.0085 -0.2901  0.2014
  866loPI   C4A13522   9.529   8.948   7.313 -0.0990 -0.0430  0.0303
  866loPI   C5A13523   9.419   9.147   7.687  0.0154 -0.2104  0.1861
  866loPI   C6A13524   9.098   9.156   7.950 -0.0497 -0.0067  0.1265
  866loPI   C1B13525   9.055   8.671   6.073  0.2305 -0.1325  0.0753
  866loPI   C2B13526   8.943   8.761   6.433  0.0782  0.3241  0.1574
  866loPI   C3B13527   8.566   8.623   6.709  0.1755 -0.0331  0.3435
  866loPI   C4B13528   8.526   8.372   7.042  0.0018  0.2588 -0.2264
  867loPI    C113529   2.094   2.619   5.381 -0.0871  0.0864 -0.0017
  867loPI    C213530   2.029   2.377   5.070  0.2698  0.0845 -0.0799
  867loPI    C313531   2.208   2.730   5.014  0.4426  0.0332  0.1379
  867loPI   PO413532   1.846   2.608   5.527  0.1603  0.1123 -0.1351
  867loPI   GL113533   1.677   2.350   5.980  0.0577 -0.0462  0.0645
  867loPI   GL213534   1.968   2.116   5.991 -0.2384 -0.0961 -0.0006
  867loPI   C1A13535   1.700   2.384   6.356 -0.0875  0.1149 -0.0605
  867loPI   C2A13536   1.931   2.475   6.688  0.1782  0.0512  0.4784
  867loPI   C3A13537   2.106   2.363   7.040  0.4070 -0.1061  0.0956
  867loPI   C4A13538   2.029   2.367   7.554  0.3086 -0.0640  0.0516
  867loPI   C5A13539   1.699   2.517   7.854 -0.0607  0.1820  0.4480
  867loPI   C6A13540   1.388   2.775   8.081 -0.0801  0.0457  0.2496
  867loPI   C1B13541   1.763   1.874   6.311  0.0952  0.4343  0.1163
  867loPI   C2B13542   1.533   1.488   6.504 -0.1656  0.1557  0.1172
  867loPI   C3B13543   1.556   1.171   6.779 -0.3877  0.0657 -0.1492
  867loPI   C4B13544   1.657   0.879   7.185 -0.1018 -0.3253  0.0735
  868loPI    C113545   3.914   6.399   5.129 -0.0715  0.0763  0.1294
  868loPI    C213546   3.784   6.409   4.751 -0.1989  0.1224  0.1738
  868loPI    C313547   4.173   6.459   4.831 -0.1254 -0.1863  0.0262
  868loPI   PO413548   3.666   6.505   5.249  0.0068  0.0433  0.0300
  868loPI   GL113549   3.375   6.579   5.560 -0.3189  0.3798 -0.4657
  868loPI   GL213550   3.359   6.849   5.447 -0.2912  0.2645  0.2774
  868loPI   C1A13551   3.553   6.468   6.004 -0.1408  0.0001 -0.2484
  868loPI   C2A13552   3.491   6.345   6.433  0.0708 -0.2263 -0.2171
  868loPI   C3A13553   3.592   6.577   6.777  0.1525 -0.0444  0.1684
  868loPI   C4A13554   3.780   6.997   6.775  0.0057 -0.2331 -0.0728
  868loPI   C5A13555   3.980   7.107   7.251 -0.2516  0.0985  0.0540
  868loPI   C6A13556   3.779   7.176   7.648 -0.1112 -0.0885 -0.1410
  868loPI   C1B13557   3.537   7.060   5.797  0.3098  0.0919  0.0085
  868loPI   C2B13558   3.310   7.391   6.084  0.1613 -0.2807  0.3110
  868loPI   C3B13559   3.290   7.417   6.578  0.1462 -0.0168  0.1607
  868loPI   C4B13560   3.220   7.635   6.994  0.1058 -0.0445  0.1197
  869loPI    C113561   0.093  13.068   4.959 -0.0709 -0.0320 -0.1726
  869loPI    C213562   0.287  13.414   5.009 -0.0387 -0.0571 -0.1237
  869loPI    C313563   0.337  13.204   4.672  0.0058 -0.0551 -0.1185
  869loPI   PO413564   0.115  12.917   5.193  0.0129 -0.0339  0.0780
  869loPI   GL113565   0.361  12.914   5.558 -0.0832 -0.0672 -0.1892
  869loPI   GL213566   0.328  13.286   5.560 -0.1553 -0.0041  0.2620
  869loPI   C1A13567   0.008  13.082   5.877  0.2707 -0.1038 -0.0675
  869loPI   C2A13568   0.005  12.830   6.233 -0.1436  0.1162  0.1005
  869loPI   C3A13569   0.091  12.834   6.643 -0.0616  0.1270  0.0774
  869loPI   C4A13570   0.020  12.868   7.112  0.0204 -0.2455  0.0267
  869loPI   C5A13571   0.081  12.718   7.577 -0.0890 -0.1641 -0.0078
  869loPI   C6A13572   0.176  12.423   7.816  0.0913  0.1721  0.0514
  869loPI   C1B13573   0.298  13.427   5.921  0.3173 -0.0779  0.2276
  869loPI   C2B13574   0.212  13.392   6.310  0.1026 -0.0902  0.3547
  869loPI   C3B13575   0.189  13.360   6.706  0.2384 -0.1465 -0.1259
  869loPI   C4B13576   0.135  13.338   7.206 -0.2162  0.0604  0.1366
  870loPI    C113577   7.056  10.412   5.089  0.0585 -0.1751 -0.0652
  870loPI    C213578   7.448  10.394   5.010  0.0969  0.0885  0.0534
  870loPI    C313579   7.196  10.548   4.739  0.1059  0.1295  0.0682
  870loPI   PO413580   7.004  10.545   5.322  0.2341 -0.1328  0.1161
  870loPI   GL113581   6.827  10.504   5.720  0.1913 -0.1615 -0.0577
  870loPI   GL213582   6.789  10.245   5.870 -0.2748  0.1705 -0.0081
  870loPI   C1A13583   6.935  10.610   6.206  0.0509 -0.3110  0.0629
  870loPI   C2A13584   6.697  10.800   6.529 -0.0278 -0.1856  0.1883
  870loPI   C3A13585   6.670  10.634   6.895  0.1419 -0.1010  0.5129
  870loPI   C4A13586   6.736  10.551   7.308  0.0121  0.0533  0.0333
  870loPI   C5A13587   6.878  10.556   7.788  0.2169  0.3529  0.1029
  870loPI   C6A13588   7.175  10.735   7.967  0.1749  0.0598 -0.2829
  870loPI   C1B13589   6.842  10.157   6.260 -0.1070  0.0659 -0.2446
  870loPI   C2B13590   6.954  10.276   6.596  0.2751 -0.0083  0.1457
  870loPI   C3B13591   6.906  10.171   7.044  0.0225 -0.0016  0.1571
  870loPI   C4B13592   6.917  10.061   7.525  0.1447 -0.1905  0.0265
  871loPI    C113593   9.085   6.789   5.641 -0.1377 -0.1167  0.0086
  871loPI    C213594   8.922   6.734   5.280 -0.2048  0.3478 -0.0384
  871loPI    C313595   8.688   6.765   5.603 -0.1452 -0.0610  0.0499
  871loPI   PO413596   9.351   6.706   5.554 -0.0057  0.2646  0.1149
  871loPI   GL113597   9.739   6.562   5.787 -0.0533 -0.0954 -0.1673
  871loPI   GL213598   9.417   6.355   5.897 -0.0911 -0.2305 -0.0148
  871loPI   C1A13599   9.954   6.736   6.180 -0.2126  0.0817 -0.1331
  871loPI   C2A13600  10.327   6.772   6.614 -0.1013 -0.1121  0.1499
  871loPI   C3A13601  10.351   6.842   7.048  0.0830 -0.2594  0.1583
  871loPI   C4A13602  10.377   6.892   7.442  0.0946 -0.0815 -0.1067
  871loPI   C5A13603  10.717   6.933   7.722 -0.3073 -0.1011 -0.0970
  871loPI   C6A13604  10.984   7.178   8.025  0.0536  0.2394 -0.1174
  871loPI   C1B13605   9.380   6.487   6.327  0.0235  0.3044  0.1472
  871loPI   C2B13606   9.376   6.559   6.774 -0.1535  0.0289 -0.0597
  871loPI   C3B13607   9.413   6.503   7.198 -0.0844  0.3428  0.1251
  871loPI   C4B13608   9.494   6.703   7.557 -0.0020  0.1300  0.0766
  872loPI    C113609  16.559   4.486   4.832  0.0220 -0.0392 -0.0283
  872loPI    C213610  16.681   4.144   4.663 -0.0921 -0.1587  0.1284
  872loPI    C313611  16.371   4.344   4.508 -0.1800 -0.2544  0.1788
  872loPI   PO413612  16.694   4.579   5.035  0.1027 -0.0872 -0.0908
  872loPI   GL113613  16.705   4.693   5.429 -0.0024  0.1927  0.3083
  872loPI   GL213614  16.644   4.349   5.634 -0.1797 -0.0427  0.1008
  872loPI   C1A13615  16.733   4.761   5.858 -0.5714 -0.1001 -0.1295
  872loPI   C2A13616  16.855   4.725   6.211 -0.1374  0.1865 -0.0521
  872loPI   C3A13617  16.677   4.716   6.549  0.0522  0.2070 -0.0106
  872loPI   C4A13618  16.876   4.805   7.028  0.0792 -0.2945  0.0915
  872loPI   C5A13619  17.124   4.757   7.393 -0.1303 -0.0194  0.0609
  872loPI   C6A13620  17.403   4.936   7.715  0.1803 -0.1856  0.0150
  872loPI   C1B13621  16.644   4.285   6.038 -0.0715  0.0185  0.0040
  872loPI   C2B13622  16.722   4.196   6.466  0.0002  0.0195 -0.2542
  872loPI   C3B13623  16.862   4.236   6.919  0.0771 -0.2150 -0.1319
  872loPI   C4B13624  16.748   4.224   7.397  0.0904  0.2188 -0.1973
  873loPI    C113625  13.640  13.103   5.327 -0.0876  0.0697  0.1062
  873loPI    C213626  13.822  13.287   5.021 -0.4009  0.1622 -0.0279
  873loPI    C313627  13.424  13.243   5.021 -0.3696 -0.1564  0.1980
  873loPI   PO413628  13.865  13.145   5.502 -0.0852 -0.0421  0.0239
  873loPI   GL113629  14.077  12.954   5.764 -0.0825 -0.0674  0.2512
  873loPI   GL213630  14.416  12.999   5.865  0.3112  0.2264  0.2235
  873loPI   C1A13631  14.001  13.192   6.169 -0.0055  0.2654  0.2814
  873loPI   C2A13632  13.971  13.198   6.596  0.0162  0.2212 -0.2968
  873loPI   C3A13633  14.033  13.280   7.045  0.1291  0.2212 -0.0259
  873loPI   C4A13634  13.899  13.198   7.443 -0.1026  0.1857  0.0941
  873loPI   C5A13635  14.000  12.910   7.724 -0.2479  0.3318 -0.1312
  873loPI   C6A13636  14.162  12.615   8.060  0.2745 -0.1904 -0.2041
  873loPI   C1B13637  14.290  12.862   6.343 -0.5262  0.0123 -0.1298
  873loPI   C2B13638  14.325  12.971   6.753 -0.3569  0.0300 -0.2303
  873loPI   C3B13639  14.430  12.906   7.230 -0.0343  0.0115  0.1380
  873loPI   C4B13640  14.511  12.863   7.741 -0.1623 -0.2558  0.0212
  874loPI    C113641  16.425  13.609   4.708 -0.0043  0.0806  0.0038
  874loPI    C213642  16.250  13.411   4.408  0.0224  0.0657 -0.0019
  874loPI    C313643  16.615  13.566   4.359  0.1232 -0.1366  0.0983
  874loPI   PO413644  16.460  13.555   4.952 -0.2299 -0.2710 -0.1076
  874loPI   GL113645  16.421  13.545   5.431 -0.1258  0.0095 -0.0290
  874loPI   GL213646  16.611  13.277   5.501  0.0273 -0.3027  0.2265
  874loPI   C1A13647  16.383  13.585   5.887 -0.2151  0.0164 -0.1978
  874loPI   C2A13648  16.344  13.503   6.388  0.2114  0.0935  0.2996
  874loPI   C3A13649  16.260  13.549   6.852  0.0775  0.0199  0.1810
  874loPI   C4A13650  16.373  13.560   7.203 -0.1814  0.1033  0.0494
  874loPI   C5A13651  16.270  13.644   7.616 -0.3708 -0.0095 -0.1976
  874loPI   C6A13652  15.848  13.611   7.849  0.0923  0.0589  0.0218
  874loPI   C1B13653  16.738  13.203   5.895 -0.1815 -0.0574 -0.2922
  874loPI   C2B13654  16.768  13.233   6.371 -0.1342 -0.1618 -0.1084
  874loPI   C3B13655  16.632  13.258   6.797  0.0256  0.0075 -0.1373
  874loPI   C4B13656  16.738  13.209   7.221 -0.2623 -0.1726 -0.1487
  875loPI    C113657  11.549  12.528   4.793  0.0785 -0.1329  0.1432
  875loPI    C213658  11.502  12.132   4.816  0.2130 -0.1901 -0.4152
  875loPI    C313659  11.226  12.356   4.632  0.0443  0.0064  0.0607
  875loPI   PO413660  11.541  12.624   5.103  0.1727  0.0564 -0.0260
  875loPI   GL113661  11.171  12.394   5.552  0.0864  0.0035  0.0532
  875loPI   GL213662  10.881  12.252   5.620 -0.2848 -0.0538 -0.0302
  875loPI   C1A13663  11.497  12.238   5.739 -0.0311 -0.3464  0.1845
  875loPI   C2A13664  11.777  12.163   6.029 -0.0709 -0.0653 -0.2446
  875loPI   C3A13665  11.922  12.083   6.495 -0.2020 -0.2041 -0.2215
  875loPI   C4A13666  11.929  12.098   6.956  0.0352 -0.0552 -0.0325
  875loPI   C5A13667  11.916  11.925   7.428 -0.2473  0.0674 -0.2288
  875loPI   C6A13668  12.086  11.698   7.809 -0.0500  0.2974  0.2384
  875loPI   C1B13669  11.040  12.279   6.081  0.1283 -0.1233 -0.0520
  875loPI   C2B13670  11.000  12.373   6.496 -0.0033 -0.1452 -0.0959
  875loPI   C3B13671  10.887  12.298   6.932 -0.0348  0.0463  0.2172
  875loPI   C4B13672  10.930  12.133   7.381 -0.0137  0.0461  0.2236
  876loPI    C113673   6.290   9.121   5.355  0.1520  0.0420  0.1732
  876loPI    C213674   6.366   9.049   5.741 -0.0457 -0.2581  0.1593
  876loPI    C313675   6.313   8.744   5.487 -0.2336 -0.0618 -0.0411
  876loPI   PO413676   6.170   9.328   5.361  0.2018 -0.1891  0.1049
  876loPI   GL113677   6.216   9.667   5.615  0.0706 -0.0344  0.1089
  876loPI   GL213678   5.910   9.740   5.772 -0.0085 -0.0472  0.0505
  876loPI   C1A13679   6.212   9.426   6.083  0.1337  0.0222 -0.1861
  876loPI   C2A13680   6.029   9.330   6.522 -0.1881  0.4275  0.1592
  876loPI   C3A13681   5.849   9.252   6.892 -0.2214 -0.1532 -0.1047
  876loPI   C4A13682   5.793   9.312   7.340 -0.1910 -0.2609  0.3022
  876loPI   C5A13683   5.874   9.456   7.778 -0.1744 -0.0483 -0.1585
  876loPI   C6A13684   6.059   9.565   8.249 -0.5359 -0.0314 -0.0911
  876loPI   C1B13685   5.747   9.719   6.121 -0.0195  0.1242  0.0870
  876loPI   C2B13686   5.667   9.700   6.600 -0.2421  0.0053  0.1007
  876loPI   C3B13687   5.634   9.714   7.062  0.1616  0.2820  0.3326
  876loPI   C4B13688   5.536   9.821   7.473  0.1857  0.5459  0.0818
  877loPI    C113689   1.258   8.667   4.910 -0.2624 -0.1444 -0.1958
  877loPI    C213690   1.393   8.343   5.102 -0.1536 -0.0661 -0.1393
  877loPI    C313691   1.008   8.368   4.999 -0.2487 -0.0403  0.2115
  877loPI   PO413692   1.342   8.906   5.039 -0.2306  0.0380 -0.1893
  877loPI   GL113693   1.335   8.945   5.555 -0.0611  0.1248  0.0287
  877loPI   GL213694   1.593   8.907   5.745  0.0665  0.0382  0.0278
  877loPI   C1A13695   1.092   9.017   5.887 -0.0256  0.3832 -0.0284
  877loPI   C2A13696   1.076   9.073   6.282  0.0223  0.1599  0.0172
  877loPI   C3A13697   1.091   9.004   6.713 -0.2264  0.0300  0.1976
  877loPI   C4A13698   1.079   8.961   7.155 -0.1774 -0.3804 -0.2689
  877loPI   C5A13699   0.962   9.014   7.574 -0.1349 -0.0129 -0.3810
  877loPI   C6A13700   0.609   9.023   7.858 -0.1102  0.0819  0.0813
  877loPI   C1B13701   1.547   8.953   6.187  0.2773 -0.0239 -0.0752
  877loPI   C2B13702   1.505   9.085   6.525 -0.2374 -0.0068  0.0436
  877loPI   C3B13703   1.558   9.141   6.957  0.0345 -0.1866  0.1032
  877loPI   C4B13704   1.556   9.129   7.332  0.1173 -0.3973  0.0455
  878loPI    C113705  16.317  10.873   4.856  0.1688 -0.0998 -0.1441
  878loPI    C213706  16.596  10.753   4.596  0.0702 -0.1682 -0.2187
  878loPI    C313707  16.370  11.072   4.513 -0.0186 -0.2406 -0.2568
  878loPI   PO413708  16.374  10.779   5.120 -0.4118 -0.1141 -0.1187
  878loPI   GL113709  16.471  10.749   5.524 -0.1351 -0.2787  0.2842
  878loPI   GL213710  16.125  10.717   5.557  0.1371 -0.0555 -0.1613
  878loPI   C1A13711  16.710  10.746   5.924 -0.2577 -0.0645 -0.0043
  878loPI   C2A13712  16.707  10.849   6.403 -0.1032 -0.0111  0.3944
  878loPI   C3A13713  16.705  10.824   6.797 -0.0922  0.0519  0.1453
  878loPI   C4A13714  16.688  10.825   7.264 -0.0891 -0.0282 -0.0359
  878loPI   C5A13715  16.686  10.871   7.689 -0.2617  0.1528  0.1702
  878loPI   C6A13716  16.595  10.798   8.127  0.1402  0.0697 -0.0137
  878loPI   C1B13717  16.237  10.563   5.881 -0.3191 -0.2991 -0.0238
  878loPI   C2B13718  16.244  10.709   6.264 -0.2795 -0.0154  0.4220
  878loPI   C3B13719  16.218  10.749   6.647  0.1242  0.2592 -0.0263
  878loPI   C4B13720  16.254  10.661   7.050  0.1639  0.0472 -0.0750
  879loPI    C113721  15.188  13.246   5.087  0.2618  0.0018  0.0866
  879loPI    C213722  15.408  13.352   4.770 -0.0725  0.0864 -0.1215
  879loPI    C313723  15.026  13.243   4.722 -0.1012  0.0122  0.2436
  879loPI   PO413724  15.217  13.469   5.343  0.2061 -0.0739  0.1328
  879loPI   GL113725  15.201  13.491   5.656 -0.1352  0.1555 -0.1677
  879loPI   GL213726  15.133  13.798   5.747 -0.0308 -0.3269 -0.1047
  879loPI   C1A13727  15.402  13.247   6.072  0.0887 -0.0959 -0.0334
  879loPI   C2A13728  15.289  13.088   6.536 -0.3073 -0.1288  0.0130
  879loPI   C3A13729  15.325  13.332   6.846  0.0675  0.4138 -0.0835
  879loPI   C4A13730  15.404  13.088   7.289 -0.2191  0.0382  0.0305
  879loPI   C5A13731  15.672  12.963   7.718  0.1566  0.1370  0.1099
  879loPI   C6A13732  16.058  12.872   7.951 -0.1405 -0.2374 -0.2793
  879loPI   C1B13733  15.137  14.043   6.055 -0.0171 -0.1438  0.0251
  879loPI   C2B13734  15.096  14.116   6.517  0.1463  0.0291 -0.2545
  879loPI   C3B13735  15.026  14.142   6.928  0.0812  0.4001 -0.3497
  879loPI   C4B13736  15.066  14.107   7.299 -0.3748 -0.0368  0.1783
  880loPI    C113737  10.992  10.983   4.878  0.0431 -0.1458 -0.0821
  880loPI    C213738  10.667  10.846   4.689 -0.0516  0.0463 -0.0608
  880loPI    C313739  11.024  10.837   4.506 -0.0908 -0.0454 -0.1336
  880loPI   PO413740  11.047  10.775   5.190 -0.0355  0.2432 -0.3367
  880loPI   GL113741  11.131  10.978   5.649 -0.1665 -0.0492 -0.1409
  880loPI   GL213742  10.854  10.950   5.650 -0.0165 -0.2435 -0.2027
  880loPI   C1A13743  11.252  10.928   6.107 -0.0732  0.0230 -0.0142
  880loPI   C2A13744  11.300  10.922   6.537 -0.1671  0.1232 -0.0929
  880loPI   C3A13745  11.374  10.878   7.019 -0.1160  0.1300  0.2021
  880loPI   C4A13746  11.405  10.891   7.525 -0.1831 -0.4688 -0.1393
  880loPI   C5A13747  11.245  10.988   7.856  0.3501 -0.0075 -0.2133
  880loPI   C6A13748  10.921  11.007   8.134  0.1850 -0.0719 -0.1822
  880loPI   C1B13749  10.752  11.164   5.996 -0.2109  0.0375  0.1673
  880loPI   C2B13750  10.817  10.957   6.327  0.2759 -0.1484 -0.0442
  880loPI   C3B13751  10.758  10.754   6.686  0.1540 -0.3251  0.2939
  880loPI   C4B13752  10.920  10.728   7.051 -0.1692 -0.0463  0.0889
  881loPI    C113753  13.241  16.240   5.401  0.3758 -0.0671 -0.1582
  881loPI    C213754  13.189  16.586   5.209  0.4451 -0.1274 -0.2864
  881loPI    C313755  13.093  16.241   5.030  0.1896 -0.1634 -0.0857
  881loPI   PO413756  13.155  16.299   5.634  0.1509 -0.0667 -0.1983
  881loPI   GL113757  13.144  16.150   6.023  0.1395  0.2587 -0.0289
  881loPI   GL213758  13.179  16.357   6.178  0.0317  0.0013  0.0150
  881loPI   C1A13759  13.250  16.113   6.533 -0.0012  0.1732  0.3091
  881loPI   C2A13760  13.329  16.124   6.934 -0.4217  0.0334 -0.1027
  881loPI   C3A13761  13.387  16.353   7.347  0.0740 -0.0069 -0.2432
  881loPI   C4A13762  13.583  16.538   7.703 -0.0579 -0.2111  0.0607
  881loPI   C5A13763  13.782  16.696   8.082  0.1614  0.0869  0.1528
  881loPI   C6A13764  14.255  16.743   8.159  0.2785  0.0746  0.1117
  881loPI   C1B13765  13.243  16.707   6.363 -0.0719 -0.3153  0.1610
  881loPI   C2B13766  13.370  16.691   6.749 -0.1252  0.1009  0.1360
  881loPI   C3B13767  13.454  16.822   7.182  0.1652 -0.0139 -0.1543
  881loPI   C4B13768  13.274  17.019   7.526  0.1219 -0.0266  0.2117
  882loPI    C113769  14.377   6.791   5.139  0.0518 -0.0456 -0.0902
  882loPI    C213770  14.552   7.021   4.863  0.1610  0.1469  0.1363
  882loPI    C313771  14.524   6.626   4.805  0.0355  0.2048 -0.2231
  882loPI   PO413772  14.550   6.778   5.370  0.1931 -0.1938 -0.1679
  882loPI   GL113773  14.503   6.891   5.762  0.0091 -0.4378 -0.0582
  882loPI   GL213774  14.551   7.288   5.778 -0.1214 -0.0754 -0.1357
  882loPI   C1A13775  14.397   6.922   6.177 -0.0547 -0.0316  0.0095
  882loPI   C2A13776  14.441   6.877   6.669 -0.3413  0.0354  0.0690
  882loPI   C3A13777  14.568   6.859   7.133  0.1111  0.2992 -0.1624
  882loPI   C4A13778  14.560   6.741   7.531 -0.2673 -0.1280 -0.2689
  882loPI   C5A13779  14.723   6.675   7.898  0.1296  0.2514 -0.0467
  882loPI   C6A13780  14.968   6.441   8.045 -0.0084 -0.1980 -0.1544
  882loPI   C1B13781  14.551   7.374   6.277 -0.1091  0.2653  0.1116
  882loPI   C2B13782  14.555   7.357   6.650 -0.1071 -0.0242 -0.1674
  882loPI   C3B13783  14.676   7.347   7.137 -0.1409 -0.1509  0.3456
  882loPI   C4B13784  14.743   7.351   7.546 -0.1283  0.2066  0.2365
  883loPI    C113785   8.382   3.108   5.370  0.1302 -0.0705  0.1822
  883loPI    C213786   8.291   2.751   5.214  0.2204 -0.0344  0.0452
  883loPI    C313787   8.503   3.014   5.000 -0.0141  0.1771  0.0693
  883loPI   PO413788   8.348   3.050   5.648  0.0849 -0.0549  0.1023
  883loPI   GL113789   8.363   3.264   6.041  0.1151  0.1204 -0.0469
  883loPI   GL213790   8.164   3.125   6.253  0.0401 -0.0261 -0.1043
  883loPI   C1A13791   8.604   3.423   6.406  0.1654  0.1800 -0.2581
  883loPI   C2A13792   8.554   3.617   6.797 -0.0613 -0.1670  0.0103
  883loPI   C3A13793   8.556   3.495   7.143  0.2427 -0.1395  0.0773
  883loPI   C4A13794   8.759   3.600   7.497  0.4001 -0.1090  0.2136
  883loPI   C5A13795   8.910   3.973   7.700 -0.3522  0.0675  0.0799
  883loPI   C6A13796   9.005   4.453   7.850 -0.5061 -0.2523  0.2508
  883loPI   C1B13797   8.298   3.151   6.769 -0.0253  0.0244 -0.0990
  883loPI   C2B13798   8.191   3.168   7.207 -0.0974 -0.1837 -0.1363
  883loPI   C3B13799   8.291   3.311   7.662  0.1820  0.3285  0.0147
  883loPI   C4B13800   8.493   3.086   7.892  0.0880 -0.2373 -0.1433
  884loPI    C113801   3.370  10.227   4.887 -0.0365 -0.0954  0.1805
  884loPI    C213802   3.597   9.898   4.897  0.0363 -0.0467  0.1380
  884loPI    C313803   3.690  10.198   4.649 -0.1148 -0.0556  0.0698
  884loPI   PO413804   3.354  10.302   5.120  0.1402 -0.3468  0.0128
  884loPI   GL113805   3.137  10.242   5.489 -0.1798  0.1383 -0.0817
  884loPI   GL213806   3.182   9.921   5.741  0.1769  0.0872  0.0962
  884loPI   C1A13807   2.936  10.532   5.844 -0.0913 -0.2361  0.0628
  884loPI   C2A13808   2.793  10.641   6.191  0.0267 -0.1078  0.2068
  884loPI   C3A13809   2.482  10.664   6.503  0.1018  0.0053 -0.2388
  884loPI   C4A13810   2.429  10.748   6.925  0.2073  0.0870  0.1347
  884loPI   C5A13811   2.471  10.749   7.381 -0.1551  0.4901 -0.0307
  884loPI   C6A13812   2.330  11.060   7.710 -0.1762  0.3279 -0.1385
  884loPI   C1B13813   3.045  10.162   6.133 -0.0277  0.0766 -0.0642
  884loPI   C2B13814   2.895  10.364   6.605  0.0744 -0.1378  0.1651
  884loPI   C3B13815   2.809  10.488   7.047 -0.0652  0.0746 -0.1790
  884loPI   C4B13816   2.838  10.359   7.368  0.1232  0.0909  0.2373
  885loPI    C113817   9.778  10.330   4.704  0.0367 -0.0374 -0.0485
  885loPI    C213818   9.456  10.561   4.755 -0.1087 -0.2459 -0.0116
  885loPI    C313819   9.803  10.724   4.641 -0.1689  0.0118  0.1663
  885loPI   PO413820   9.805  10.187   4.905  0.0933  0.1495 -0.1824
  885loPI   GL113821   9.658  10.190   5.361  0.1053 -0.2222  0.0858
  885loPI   GL213822   9.423   9.913   5.492 -0.1982 -0.2050  0.1151
  885loPI   C1A13823   9.958  10.300   5.764  0.3147 -0.0473 -0.3224
  885loPI   C2A13824  10.067  10.193   6.258 -0.0727  0.0748 -0.0851
  885loPI   C3A13825  10.118  10.160   6.747 -0.1082  0.0548  0.2285
  885loPI   C4A13826  10.144  10.075   7.137  0.0665 -0.0757  0.3268
  885loPI   C5A13827  10.320   9.938   7.542  0.0823 -0.0099 -0.3405
  885loPI   C6A13828  10.467  10.269   7.881  0.1709  0.1101 -0.0597
  885loPI   C1B13829   9.518  10.054   5.858 -0.1619 -0.0131 -0.0170
  885loPI   C2B13830   9.616  10.018   6.294  0.0270 -0.0241 -0.1581
  885loPI   C3B13831   9.644   9.979   6.711  0.1280 -0.0696 -0.0802
  885loPI   C4B13832   9.671  10.196   7.065 -0.0630  0.0248  0.1244
  886loPI    C113833   9.211  16.178   5.382 -0.0635  0.1347  0.0966
  886loPI    C213834   9.108  15.890   5.125 -0.0965  0.0555  0.1983
  886loPI    C313835   9.328  16.200   5.000 -0.0711 -0.0075  0.0858
  886loPI   PO413836   9.348  16.036   5.581  0.2331  0.1692  0.1014
  886loPI   GL113837   9.201  15.860   5.964 -0.0052 -0.1009 -0.2550
  886loPI   GL213838   9.491  16.090   6.094  0.1351  0.1903 -0.0169
  886loPI   C1A13839   8.858  15.807   6.320  0.0492  0.1510  0.2145
  886loPI   C2A13840   8.948  15.639   6.705  0.1709  0.0112  0.1493
  886loPI   C3A13841   8.783  15.577   7.049 -0.3918  0.0788 -0.0696
  886loPI   C4A13842   8.535  15.371   7.279  0.3191 -0.0072 -0.1193
  886loPI   C5A13843   8.504  15.592   7.640  0.1429 -0.1296 -0.0899
  886loPI   C6A13844   8.500  15.945   7.968 -0.0192  0.2305  0.0148
  886loPI   C1B13845   9.846  15.948   6.314 -0.0485 -0.1449 -0.1313
  886loPI   C2B13846   9.998  16.012   6.771  0.0865  0.0420  0.0883
  886loPI   C3B13847  10.064  15.964   7.255  0.0807  0.0300 -0.1534
  886loPI   C4B13848  10.437  16.115   7.420 -0.2016 -0.1517  0.0059
  887loPI    C113849   6.163   5.524   5.190 -0.1647 -0.0703  0.0723
  887loPI    C213850   5.845   5.654   4.985 -0.1080 -0.1957 -0.0974
  887loPI    C313851   6.210   5.680   4.825 -0.0281 -0.0295  0.1069
  887loPI   PO413852   6.053   5.612   5.458  0.4168 -0.0535  0.3232
  887loPI   GL113853   6.315   5.673   5.800 -0.1226  0.0185 -0.0947
  887loPI   GL213854   6.468   5.721   5.574  0.0462 -0.0235  0.1946
  887loPI   C1A13855   6.266   5.928   6.150  0.2176 -0.1026  0.2180
  887loPI   C2A13856   6.192   6.011   6.545 -0.1805  0.0056  0.0696
  887loPI   C3A13857   6.111   6.030   6.959 -0.0306 -0.1865  0.2142
  887loPI   C4A13858   6.074   6.103   7.436 -0.1635 -0.0777  0.2598
  887loPI   C5A13859   6.403   6.237   7.689  0.0108  0.0386  0.2426
  887loPI   C6A13860   6.652   6.421   8.063 -0.1572 -0.1081  0.1172
  887loPI   C1B13861   6.720   5.956   5.802 -0.0145  0.1959 -0.3176
  887loPI   C2B13862   6.784   6.047   6.252  0.1002  0.0422 -0.1200
  887loPI   C3B13863   6.671   6.141   6.668  0.2720 -0.0491 -0.1150
  887loPI   C4B13864   6.577   6.144   7.110  0.0186 -0.0588  0.1252
  888loPI    C113865  17.212   2.392   5.070 -0.3045 -0.1414  0.1150
  888loPI    C213866  16.915   2.230   4.857 -0.2148  0.1503 -0.2426
  888loPI    C313867  17.195   2.449   4.674  0.0238  0.1743  0.1415
  888loPI   PO413868  17.273   2.249   5.295  0.0335  0.0754  0.1222
  888loPI   GL113869  17.029   2.310   5.653 -0.1436 -0.0112  0.2678
  888loPI   GL213870  17.170   2.537   5.788  0.0286  0.0959 -0.0416
  888loPI   C1A13871  16.745   1.959   5.859 -0.1309  0.2501 -0.1380
  888loPI   C2A13872  16.564   1.875   6.265 -0.1432  0.2648  0.0625
  888loPI   C3A13873  16.639   1.898   6.782  0.5469 -0.2221 -0.3000
  888loPI   C4A13874  16.687   1.940   7.216  0.1263 -0.0372  0.1173
  888loPI   C5A13875  16.249   1.763   7.510  0.1906 -0.2681 -0.0319
  888loPI   C6A13876  16.005   1.328   7.556 -0.4729 -0.0500  0.0851
  888loPI   C1B13877  17.234   2.583   6.130  0.3352 -0.1046 -0.2983
  888loPI   C2B13878  17.262   2.532   6.504 -0.2708  0.0086  0.0859
  888loPI   C3B13879  17.308   2.554   6.996  0.1180  0.0468  0.0627
  888loPI   C4B13880  17.326   2.659   7.358 -0.1318 -0.1172 -0.2203
  889loPI    C113881   6.009  10.040   5.188  0.0499  0.1130 -0.0516
  889loPI    C213882   5.996   9.677   5.021 -0.0111  0.0208  0.1496
  889loPI    C313883   6.349   9.848   5.102  0.0177  0.0092  0.0506
  889loPI   PO413884   5.858  10.024   5.391  0.0046 -0.0262 -0.0945
  889loPI   GL113885   5.858  10.216   5.786  0.4398 -0.0499  0.1316
  889loPI   GL213886   5.580  10.499   5.834 -0.0660  0.1144  0.0879
  889loPI   C1A13887   5.977  10.190   6.269 -0.2489 -0.0890  0.3557
  889loPI   C2A13888   5.914  10.254   6.678  0.0047 -0.1193 -0.0121
  889loPI   C3A13889   5.744  10.238   7.111  0.3407 -0.3024  0.1678
  889loPI   C4A13890   5.784  10.231   7.586 -0.0259  0.3434  0.2139
  889loPI   C5A13891   5.821  10.571   7.948  0.0844  0.0059 -0.1256
  889loPI   C6A13892   5.627  10.812   8.220 -0.2104 -0.2597  0.2847
  889loPI   C1B13893   5.659  10.570   6.325  0.2396  0.1671  0.0774
  889loPI   C2B13894   5.576  10.665   6.793 -0.1315 -0.0468 -0.0912
  889loPI   C3B13895   5.665  11.001   6.970 -0.0034  0.2251  0.0749
  889loPI   C4B13896   5.903  11.171   7.246 -0.1108 -0.0393 -0.0641
  890loPI    C113897   8.872  17.136   5.225  0.1207 -0.1377 -0.0227
  890loPI    C213898   8.777  17.076   5.609 -0.2685  0.1452 -0.0685
  890loPI    C313899   8.538  16.939   5.320 -0.1878  0.2835 -0.2025
  890loPI   PO413900   9.194  17.077   5.310 -0.0962  0.0063 -0.0181
  890loPI   GL113901   9.369  17.102   5.775  0.0456 -0.1056  0.2007
  890loPI   GL213902   9.601  17.155   5.992 -0.1934 -0.2153 -0.0907
  890loPI   C1A13903   9.226  16.827   6.086 -0.0242  0.2123  0.2131
  890loPI   C2A13904   9.152  16.912   6.504  0.0157  0.2417  0.1125
  890loPI   C3A13905   9.287  16.753   6.879 -0.0628 -0.1420 -0.0976
  890loPI   C4A13906   9.225  16.432   7.205  0.1472  0.0113 -0.1335
  890loPI   C5A13907   9.068  16.401   7.638  0.0532 -0.0013  0.3145
  890loPI   C6A13908   8.907  16.149   8.011 -0.2275  0.4156 -0.2106
  890loPI   C1B13909   9.610  17.097   6.399  0.0731  0.0797  0.0546
  890loPI   C2B13910   9.820  16.975   6.780  0.0389 -0.2601  0.0383
  890loPI   C3B13911   9.883  16.857   7.140 -0.1203 -0.0059  0.2659
  890loPI   C4B13912  10.117  16.950   7.509  0.3150  0.0301  0.1792
  891loPI    C113913  17.476   4.227   5.155 -0.0043  0.2422  0.0101
  891loPI    C213914  17.129   4.351   5.313  0.0333  0.4138 -0.0395
  891loPI    C313915  17.144   4.229   4.932 -0.0266  0.1442  0.0419
  891loPI   PO413916  17.594   4.099   5.266  0.0915 -0.1598 -0.0436
  891loPI   GL113917  17.497   3.856   5.676 -0.1113 -0.2827  0.1212
  891loPI   GL213918  17.322   3.594   5.625  0.1965  0.1808 -0.1327
  891loPI   C1A13919  17.594   3.999   6.070 -0.4645 -0.0057  0.0439
  891loPI   C2A13920  17.605   3.991   6.519  0.2601  0.2145 -0.0198
  891loPI   C3A13921  17.748   4.054   6.997  0.2615  0.0765 -0.1245
  891loPI   C4A13922  17.788   4.057   7.346  0.1034  0.0799  0.2854
  891loPI   C5A13923  17.652   3.966   7.758  0.0856  0.3123 -0.1654
  891loPI   C6A13924  17.311   3.857   8.020 -0.0327  0.0092  0.0769
  891loPI   C1B13925  17.430   3.522   6.085  0.0888  0.1215 -0.1823
  891loPI   C2B13926  17.508   3.553   6.396  0.1938  0.2425  0.0759
  891loPI   C3B13927  17.537   3.582   6.917  0.0850 -0.2179 -0.1268
  891loPI   C4B13928  17.639   3.527   7.292 -0.0171  0.0323  0.0040
  892loPI    C113929  14.136   0.802   5.328  0.1349 -0.1607  0.0646
  892loPI    C213930  14.109   0.855   4.933 -0.0308  0.0528  0.1026
  892loPI    C313931  14.419   1.008   5.133 -0.0091  0.0483  0.0726
  892loPI   PO413932  14.009   0.616   5.355 -0.1005  0.1363 -0.1586
  892loPI   GL113933  13.810   0.510   5.728 -0.1221 -0.0624 -0.0221
  892loPI   GL213934  13.527   0.385   5.836  0.1613 -0.1661 -0.0190
  892loPI   C1A13935  13.948   0.596   6.082  0.0966 -0.2373  0.1797
  892loPI   C2A13936  14.049   0.576   6.506  0.1302 -0.3818  0.0460
  892loPI   C3A13937  14.141   0.602   6.985  0.0883  0.1234  0.1533
  892loPI   C4A13938  14.092   0.580   7.372  0.1031  0.0535  0.0119
  892loPI   C5A13939  14.011   0.261   7.754  0.2722 -0.1151  0.0750
  892loPI   C6A13940  14.373   0.038   7.973  0.3843 -0.0272  0.0221
  892loPI   C1B13941  13.571   0.493   6.335  0.0485  0.3611 -0.0191
  892loPI   C2B13942  13.584   0.379   6.757  0.1526 -0.0642 -0.0601
  892loPI   C3B13943  13.504   0.449   7.160 -0.2458  0.2395  0.0274
  892loPI   C4B13944  13.317   0.366   7.611 -0.0905  0.1356  0.0842
  893loPI    C113945   0.861  17.793   5.487 -0.1698  0.0445  0.0371
  893loPI    C213946   0.816  18.002   5.149  0.0168  0.1849  0.0968
  893loPI    C313947   0.965  17.631   5.137  0.1443  0.2377  0.0370
  893loPI   PO413948   1.067  17.933   5.605  0.1766  0.1850  0.0889
  893loPI   GL113949   1.234  18.132   5.993  0.0250  0.1798 -0.1410
  893loPI   GL213950   1.204  17.806   6.083  0.1656 -0.1699 -0.1934
  893loPI   C1A13951   1.071  18.201   6.394 -0.1153  0.0922  0.1012
  893loPI   C2A13952   0.686  18.175   6.713 -0.2671  0.1233 -0.1980
  893loPI   C3A13953   0.591  18.157   7.147 -0.0352  0.0629 -0.2139
  893loPI   C4A13954   0.575  17.983   7.628 -0.1122  0.1147  0.0052
  893loPI   C5A13955   0.864  17.644   7.730  0.5875  0.1713 -0.0643
  893loPI   C6A13956   1.039  17.607   8.126  0.2147 -0.0778 -0.2375
  893loPI   C1B13957   1.407  17.846   6.417  0.2680  0.1351  0.0511
  893loPI   C2B13958   1.156  17.853   6.808  0.1566  0.0638  0.0757
  893loPI   C3B13959   1.102  17.784   7.236  0.3329  0.0194 -0.0995
  893loPI   C4B13960   1.046  18.101   7.640 -0.2384  0.2232 -0.0417
  894loPI    C113961  15.307   6.567   5.068  0.0582  0.1379 -0.3654
  894loPI    C213962  14.980   6.797   5.077 -0.0328  0.0030 -0.1572
  894loPI    C313963  15.241   6.833   4.777 -0.1344  0.2543 -0.2181
  894loPI   PO413964  15.389   6.573   5.382  0.3482 -0.0169 -0.3422
  894loPI   GL113965  15.278   6.607   5.744 -0.0974 -0.0532 -0.1232
  894loPI   GL213966  15.009   6.832   5.583  0.0732 -0.3177 -0.0325
  894loPI   C1A13967  15.302   6.669   6.097  0.4124  0.0597 -0.1413
  894loPI   C2A13968  15.283   6.740   6.484  0.2680  0.4053  0.0012
  894loPI   C3A13969  15.333   6.630   6.799  0.0743 -0.0089  0.0740
  894loPI   C4A13970  15.536   6.741   7.209 -0.1422 -0.0237 -0.1604
  894loPI   C5A13971  15.438   6.845   7.598 -0.2562 -0.0506  0.2465
  894loPI   C6A13972  15.658   7.065   7.940 -0.1178  0.2390  0.1292
  894loPI   C1B13973  14.947   7.008   5.990 -0.1231 -0.0550 -0.1298
  894loPI   C2B13974  14.880   7.006   6.361  0.0715 -0.0079 -0.1507
  894loPI   C3B13975  14.992   7.037   6.806  0.1502 -0.1110  0.2956
  894loPI   C4B13976  15.031   7.024   7.358 -0.0516  0.0420  0.0285
  895loPI    C113977  14.945  14.267   5.617 -0.1026 -0.1165  0.1308
  895loPI    C213978  14.835  14.385   5.251  0.1310 -0.1904  0.0354
  895loPI    C313979  14.601  14.138   5.460 -0.0498 -0.0709 -0.0238
  895loPI   PO413980  15.291  14.205   5.473 -0.2987  0.1045 -0.0229
  895loPI   GL113981  15.602  14.240   5.735 -0.2672  0.1364  0.3766
  895loPI   GL213982  15.746  14.564   5.671  0.0276 -0.1229  0.0937
  895loPI   C1A13983  15.618  14.209   6.228 -0.0798  0.0431  0.0809
  895loPI   C2A13984  15.662  14.227   6.681  0.2479 -0.0110 -0.2694
  895loPI   C3A13985  15.603  14.364   7.206 -0.0858  0.0345  0.0270
  895loPI   C4A13986  15.618  14.431   7.555 -0.1838 -0.1581  0.2296
  895loPI   C5A13987  15.221  14.389   7.836  0.2405  0.0609 -0.0353
  895loPI   C6A13988  14.790  14.513   7.928 -0.1527 -0.0276  0.0043
  895loPI   C1B13989  15.734  14.718   6.124  0.0443  0.1016 -0.3967
  895loPI   C2B13990  15.749  14.697   6.559  0.1153 -0.3303  0.0230
  895loPI   C3B13991  15.685  14.835   7.037 -0.1737  0.2956  0.2240
  895loPI   C4B13992  15.671  14.910   7.499  0.2232  0.0937 -0.0503
  896loPI    C113993  17.171   3.825   5.230  0.1081 -0.2486 -0.1361
  896loPI    C213994  16.984   3.720   4.893  0.0122  0.1589 -0.2158
  896loPI    C313995  17.383   3.744   4.901  0.0176  0.0919 -0.2834
  896loPI   PO413996  16.975   3.864   5.377 -0.0140 -0.1960  0.2802
  896loPI   GL113997  16.994   3.954   5.826  0.1201  0.0369  0.1522
  896loPI   GL213998  17.143   4.316   5.840  0.0546  0.2401 -0.3844
  896loPI   C1A13999  17.068   3.812   6.244  0.4078  0.1001 -0.2064
  896loPI   C2A14000  17.085   3.913   6.620 -0.2414  0.2205  0.1768
  896loPI   C3A14001  17.189   3.918   7.064  0.0651 -0.0518  0.1392
  896loPI   C4A14002  17.228   3.912   7.491 -0.1694 -0.0057 -0.0091
  896loPI   C5A14003  17.042   4.245   7.815  0.1243 -0.1846 -0.0284
  896loPI   C6A14004  16.905   4.674   7.800 -0.2552  0.2097  0.3695
  896loPI   C1B14005  17.213   4.374   6.280  0.1180  0.2170  0.2080
  896loPI   C2B14006  17.262   4.410   6.691 -0.2327  0.1010 -0.1372
  896loPI   C3B14007  17.313   4.372   7.156 -0.2166 -0.4290 -0.0661
  896loPI   C4B14008  17.492   4.443   7.569 -0.0553  0.4642 -0.0048
  897loPI    C114009  15.211  17.891   5.284 -0.1061  0.0054  0.0071
  897loPI    C214010  15.222  17.528   5.115  0.1630 -0.0141  0.0607
  897loPI    C314011  14.983  17.812   4.965 -0.0501 -0.2120  0.0188
  897loPI   PO414012  15.351  17.855   5.473  0.3154  0.1187  0.0229
  897loPI   GL114013  15.327  17.926   5.813 -0.0225  0.0023 -0.0117
  897loPI   GL214014  15.169  17.845   6.036 -0.1559 -0.2455 -0.1277
  897loPI   C1A14015  15.750  17.937   6.084 -0.0269  0.0627 -0.3464
  897loPI   C2A14016  15.697  18.029   6.454  0.5478 -0.1001 -0.4085
  897loPI   C3A14017  15.703  18.073   6.959 -0.2551 -0.2084 -0.0248
  897loPI   C4A14018  15.779  18.154   7.336 -0.0642 -0.0955 -0.0311
  897loPI   C5A14019  15.830  18.286   7.729  0.0653  0.1768 -0.1952
  897loPI   C6A14020  15.766  18.653   8.000 -0.2348  0.0282 -0.0792
  897loPI   C1B14021  15.218  17.904   6.475 -0.3364 -0.0026 -0.0685
  897loPI   C2B14022  15.222  17.922   6.849  0.3632 -0.1393  0.0116
  897loPI   C3B14023  15.256  17.956   7.264  0.1894 -0.0722  0.2018
  897loPI   C4B14024  15.344  18.088   7.693  0.2857  0.1403 -0.1593
  898loPI    C114025  10.266  13.906   5.688  0.2012 -0.2269  0.0469
  898loPI    C214026  10.021  13.619   5.557  0.3003 -0.1988 -0.2044
  898loPI    C314027   9.982  13.993   5.421  0.1046 -0.0671  0.1994
  898loPI   PO414028  10.539  13.703   5.799 -0.5180  0.2111  0.0173
  898loPI   GL114029  10.713  13.483   6.194  0.1761 -0.0306 -0.0962
  898loPI   GL214030  10.732  13.231   6.112  0.1436 -0.0235 -0.0030
  898loPI   C1A14031  10.873  13.792   6.547  0.0201 -0.2841 -0.4855
  898loPI   C2A14032  10.936  14.016   7.031  0.3708 -0.0941  0.1732
  898loPI   C3A14033  10.782  14.289   7.451  0.0999 -0.2156 -0.2932
  898loPI   C4A14034  10.762  14.392   7.957  0.0495  0.1817  0.1307
  898loPI   C5A14035  11.110  14.424   8.104 -0.1330 -0.3313  0.0811
  898loPI   C6A14036  11.530  14.425   8.298  0.0453 -0.0398 -0.0115
  898loPI   C1B14037  10.703  13.203   6.538 -0.2795 -0.1163  0.1574
  898loPI   C2B14038  10.682  13.258   6.929 -0.0705 -0.0186 -0.2687
  898loPI   C3B14039  10.754  13.556   7.214  0.0525  0.1622 -0.1501
  898loPI   C4B14040  10.747  13.864   7.585 -0.0051 -0.0164  0.2081
  899loPI    C114041  18.035  10.024   4.753  0.1240  0.0202 -0.1639
  899loPI    C214042  18.209  10.221   5.054 -0.2386  0.0352  0.0426
  899loPI    C314043  18.432  10.071   4.758  0.0788  0.4304  0.0714
  899loPI   PO414044  17.881   9.857   4.892  0.0972 -0.5540  0.0570
  899loPI   GL114045  17.538   9.866   5.113  0.2628 -0.0097 -0.0382
  899loPI   GL214046  17.678   9.493   5.121 -0.0803  0.1555  0.1096
  899loPI   C1A14047  17.622   9.650   5.560  0.2807  0.1606  0.3075
  899loPI   C2A14048  17.534   9.608   6.007  0.0245 -0.1066 -0.1304
  899loPI   C3A14049  17.460   9.643   6.500 -0.0341  0.1744  0.0901
  899loPI   C4A14050  17.439   9.616   6.997 -0.1605 -0.0480  0.0664
  899loPI   C5A14051  17.392   9.719   7.331  0.1226  0.3353 -0.1716
  899loPI   C6A14052  17.402  10.177   7.484 -0.1807  0.2074  0.0926
  899loPI   C1B14053  17.846   9.215   5.453 -0.1995 -0.0504  0.0384
  899loPI   C2B14054  17.839   9.272   5.884  0.0025  0.0611 -0.1744
  899loPI   C3B14055  17.772   9.274   6.305 -0.0952  0.3641  0.1852
  899loPI   C4B14056  17.774   9.336   6.694 -0.0391 -0.1443  0.0970
  900loPI    C114057   1.908   7.841   4.764 -0.0964  0.2489  0.4279
  900loPI    C214058   2.218   8.089   4.713  0.1943 -0.1730  0.0541
  900loPI    C314059   2.256   7.769   4.949 -0.0558 -0.0732  0.2341
  900loPI   PO414060   1.620   7.931   4.913  0.2956 -0.3409 -0.2083
  900loPI   GL114061   1.595   7.952   5.367 -0.2410  0.1793  0.0566
  900loPI   GL214062   1.783   7.675   5.331 -0.1556 -0.0836  0.1740
  900loPI   C1A14063   1.526   8.011   5.830 -0.0014 -0.1667  0.0627
  900loPI   C2A14064   1.418   8.054   6.303 -0.1798 -0.1086  0.1093
  900loPI   C3A14065   1.384   8.113   6.766 -0.0864  0.3435 -0.0169
  900loPI   C4A14066   1.347   8.035   7.277 -0.0398  0.2782  0.0482
  900loPI   C5A14067   1.325   7.867   7.692  0.0755 -0.5050  0.0298
  900loPI   C6A14068   1.469   7.616   8.009  0.3102 -0.1071 -0.0996
  900loPI   C1B14069   1.394   7.559   5.619 -0.1524 -0.2234  0.0469
  900loPI   C2B14070   1.404   7.550   6.064 -0.0450 -0.0594 -0.1904
  900loPI   C3B14071   1.401   7.563   6.446  0.1865  0.1238  0.1897
  900loPI   C4B14072   1.603   7.512   6.864  0.0346  0.1463 -0.1070
  901loPI    C114073  14.771   3.745   4.901  0.0390  0.2420 -0.1433
  901loPI    C214074  14.390   3.675   4.802  0.0421  0.1359 -0.0813
  901loPI    C314075  14.675   3.414   4.698  0.0372 -0.0103  0.2580
  901loPI   PO414076  14.778   3.799   5.217 -0.1389  0.1742  0.0346
  901loPI   GL114077  14.892   3.641   5.471 -0.1348  0.4354 -0.0225
  901loPI   GL214078  14.623   3.697   5.712 -0.1978 -0.0845 -0.4167
  901loPI   C1A14079  15.191   3.795   5.803 -0.0136 -0.0223  0.0481
  901loPI   C2A14080  15.223   3.740   6.230 -0.1616  0.1286  0.1727
  901loPI   C3A14081  15.286   3.694   6.672  0.1963 -0.2506 -0.0465
  901loPI   C4A14082  15.404   3.743   7.111  0.1831  0.1437 -0.0973
  901loPI   C5A14083  15.353   3.623   7.533  0.0494  0.0466 -0.1089
  901loPI   C6A14084  15.107   3.182   7.695 -0.1112 -0.0848  0.2572
  901loPI   C1B14085  14.726   3.562   6.118  0.0871 -0.2315  0.2931
  901loPI   C2B14086  14.707   3.580   6.620  0.0091  0.2689  0.0288
  901loPI   C3B14087  14.723   3.526   7.020  0.1991  0.2048  0.0210
  901loPI   C4B14088  14.840   3.522   7.303  0.0395 -0.3440 -0.5878
  902loPI    C114089  14.878  11.247   4.952 -0.0171  0.2956 -0.0811
  902loPI    C214090  14.483  11.186   4.937  0.0852 -0.4856  0.0099
  902loPI    C314091  14.707  11.124   4.612  0.1394 -0.0321 -0.0450
  902loPI   PO414092  15.028  11.220   5.138  0.1417  0.0604 -0.0332
  902loPI   GL114093  15.128  11.005   5.634 -0.1174 -0.1757  0.0499
  902loPI   GL214094  14.980  11.247   5.732  0.0143  0.0818  0.3048
  902loPI   C1A14095  15.298  10.854   6.003  0.1124  0.1445  0.1671
  902loPI   C2A14096  15.388  10.904   6.434 -0.2910  0.2296 -0.0810
  902loPI   C3A14097  15.342  10.874   6.913  0.1519 -0.0809 -0.0556
  902loPI   C4A14098  15.372  10.876   7.334  0.0003 -0.0574 -0.2697
  902loPI   C5A14099  15.185  10.830   7.739  0.1903 -0.0860  0.2158
  902loPI   C6A14100  14.830  10.910   7.869 -0.1144  0.1599  0.1678
  902loPI   C1B14101  14.883  11.217   6.122  0.4497 -0.3752 -0.0947
  902loPI   C2B14102  14.908  11.231   6.559  0.0253 -0.1775 -0.3498
  902loPI   C3B14103  14.989  11.197   7.011 -0.0134 -0.3273 -0.0240
  902loPI   C4B14104  15.016  11.146   7.341 -0.1418 -0.3598  0.0425
  903loPI    C114105  14.343   7.922   4.929 -0.2983  0.1799 -0.1983
  903loPI    C214106  14.304   7.584   4.718 -0.0483  0.0447 -0.0331
  903loPI    C314107  14.535   7.880   4.580 -0.1514  0.0911 -0.1078
  903loPI   PO414108  14.456   7.792   5.172  0.0886 -0.3611  0.1340
  903loPI   GL114109  14.279   7.711   5.521  0.0401 -0.1977 -0.1796
  903loPI   GL214110  14.016   7.835   5.602 -0.2320 -0.2396 -0.0194
  903loPI   C1A14111  14.643   7.761   5.808  0.0865 -0.2999  0.0727
  903loPI   C2A14112  14.685   7.899   6.241  0.0884  0.0184 -0.1132
  903loPI   C3A14113  14.665   7.848   6.609  0.2089  0.0629 -0.2919
  903loPI   C4A14114  14.706   7.921   7.096 -0.0596 -0.2593  0.1301
  903loPI   C5A14115  14.734   7.825   7.473 -0.0881 -0.4601  0.1802
  903loPI   C6A14116  14.421   7.791   7.839 -0.2414 -0.2111  0.0461
  903loPI   C1B14117  14.164   7.691   6.021 -0.1392  0.0141 -0.0597
  903loPI   C2B14118  14.187   7.647   6.477  0.3033 -0.0963  0.1633
  903loPI   C3B14119  14.242   7.722   6.880  0.1169  0.0402 -0.3112
  903loPI   C4B14120  14.254   7.715   7.303 -0.1658  0.0061  0.1294
  904loPI    C114121   7.623   9.077   5.252 -0.1656 -0.3040 -0.0628
  904loPI    C214122   7.526   8.782   4.999  0.0616 -0.4454  0.0120
  904loPI    C314123   7.884   8.960   4.972 -0.1647 -0.0050 -0.1914
  904loPI   PO414124   7.550   9.057   5.562  0.0481  0.1504 -0.0925
  904loPI   GL114125   7.737   9.402   5.854  0.0429 -0.2502 -0.1803
  904loPI   GL214126   7.391   9.479   5.987  0.0006 -0.0648  0.1030
  904loPI   C1A14127   7.651   9.201   6.277  0.1290 -0.0619 -0.1193
  904loPI   C2A14128   7.545   9.287   6.637  0.1436 -0.0200 -0.2903
  904loPI   C3A14129   7.633   9.323   7.078  0.0739 -0.3239 -0.0750
  904loPI   C4A14130   7.775   9.292   7.507 -0.0688 -0.4125  0.0013
  904loPI   C5A14131   7.896   9.453   7.886 -0.1525 -0.1586 -0.2204
  904loPI   C6A14132   7.820   9.496   8.317  0.1938  0.1380  0.0321
  904loPI   C1B14133   7.106   9.391   6.297  0.1152 -0.1286 -0.0383
  904loPI   C2B14134   6.977   9.381   6.699 -0.1806 -0.0595  0.1861
  904loPI   C3B14135   6.967   9.240   7.058  0.1578 -0.0338  0.0943
  904loPI   C4B14136   6.759   9.279   7.351 -0.2034  0.0666 -0.1071
  905loPI    C114137   0.928  14.791   5.265  0.1120  0.0322  0.0368
  905loPI    C214138   0.684  14.529   5.085  0.0289  0.0657  0.1001
  905loPI    C314139   0.879  14.803   4.868  0.1750 -0.0963  0.0247
  905loPI   PO414140   1.191  14.648   5.432 -0.2169 -0.3971 -0.2338
  905loPI   GL114141   1.280  14.654   5.819 -0.2535 -0.0523 -0.0748
  905loPI   GL214142   1.616  14.683   5.809  0.0850 -0.0569  0.0859
  905loPI   C1A14143   1.086  14.595   6.107 -0.2250  0.0114 -0.2734
  905loPI   C2A14144   0.939  14.529   6.470 -0.2150 -0.1023 -0.1813
  905loPI   C3A14145   0.806  14.483   6.870 -0.2649  0.2599  0.2017
  905loPI   C4A14146   0.899  14.414   7.319 -0.0802 -0.2489 -0.0883
  905loPI   C5A14147   0.860  14.639   7.710 -0.2894 -0.0218 -0.1425
  905loPI   C6A14148   0.647  14.699   8.088  0.1781  0.1984 -0.2329
  905loPI   C1B14149   1.690  14.482   6.173 -0.0850  0.0089  0.3808
  905loPI   C2B14150   1.740  14.379   6.629 -0.1390  0.3117  0.0840
  905loPI   C3B14151   1.774  14.264   7.011  0.3957  0.0306  0.0265
  905loPI   C4B14152   2.112  13.983   7.176  0.1403 -0.1832 -0.0985
  906loPI    C114153  12.890  14.565   5.221 -0.1732  0.0011  0.0561
  906loPI    C214154  12.741  14.930   5.157 -0.1131  0.0658  0.2792
  906loPI    C314155  13.116  14.846   5.048 -0.2788 -0.0723 -0.2058
  906loPI   PO414156  12.780  14.536   5.453  0.0290  0.1701  0.0664
  906loPI   GL114157  12.485  14.440   5.812 -0.0029  0.4384  0.1239
  906loPI   GL214158  12.248  14.681   5.927 -0.1293 -0.2284 -0.4308
  906loPI   C1A14159  12.457  14.479   6.298 -0.0062 -0.1424 -0.0720
  906loPI   C2A14160  12.152  14.469   6.617  0.1419  0.2346 -0.2200
  906loPI   C3A14161  11.715  14.371   6.686 -0.2863 -0.0127  0.1497
  906loPI   C4A14162  11.407  14.242   7.043 -0.1627 -0.2237  0.2409
  906loPI   C5A14163  11.487  14.545   7.413 -0.1957 -0.1961  0.0596
  906loPI   C6A14164  11.688  14.646   7.811 -0.0976  0.3184 -0.2049
  906loPI   C1B14165  11.970  14.468   6.152  0.4172 -0.2133  0.1755
  906loPI   C2B14166  11.818  14.189   6.211  0.2532 -0.0809  0.0788
  906loPI   C3B14167  12.050  13.996   6.509 -0.1005 -0.2179 -0.1024
  906loPI   C4B14168  11.892  13.988   6.973  0.1158 -0.1505  0.0738
  907loPI    C114169   9.506   1.710   5.567  0.0857  0.0786  0.1351
  907loPI    C214170   9.458   1.947   5.248  0.1645 -0.0788  0.0054
  907loPI    C314171   9.767   1.693   5.264  0.1490 -0.0865  0.1982
  907loPI   PO414172   9.211   1.520   5.619 -0.0512  0.1733  0.2147
  907loPI   GL114173   9.269   1.418   6.043 -0.1088 -0.1835 -0.0269
  907loPI   GL214174   9.413   1.254   6.321 -0.1107  0.0141 -0.1731
  907loPI   C1A14175   9.141   1.626   6.474 -0.1238 -0.0556 -0.0974
  907loPI   C2A14176   8.995   1.572   6.869 -0.0540  0.0541 -0.2008
  907loPI   C3A14177   9.011   1.523   7.311 -0.1275 -0.1463 -0.2382
  907loPI   C4A14178   9.086   1.284   7.717  0.0194 -0.1155 -0.1334
  907loPI   C5A14179   9.106   1.285   8.117 -0.0394  0.2877 -0.0014
  907loPI   C6A14180   9.033   0.872   8.300  0.2503 -0.2916 -0.2126
  907loPI   C1B14181   9.734   1.179   6.644  0.1807  0.0924  0.3030
  907loPI   C2B14182  10.047   1.104   6.929 -0.4517 -0.0613  0.0522
  907loPI   C3B14183  10.256   1.037   7.314  0.5088 -0.0445  0.1908
  907loPI   C4B14184  10.492   0.801   7.586 -0.3281  0.1861 -0.3346
  908loPI    C114185  10.180   6.278   5.439  0.0358  0.0879  0.1355
  908loPI    C214186  10.336   6.017   5.179 -0.0327  0.0796  0.1024
  908loPI    C314187  10.574   6.209   5.438  0.0692  0.2660 -0.1259
  908loPI   PO414188  10.042   6.172   5.684 -0.1065 -0.1807 -0.1920
  908loPI   GL114189  10.149   6.297   6.049 -0.1012 -0.2013 -0.1757
  908loPI   GL214190  10.473   6.063   5.988 -0.0175 -0.0771  0.1299
  908loPI   C1A14191  10.227   6.143   6.470  0.0238  0.3845 -0.0247
  908loPI   C2A14192  10.296   6.324   6.895 -0.0525  0.0236 -0.1541
  908loPI   C3A14193  10.221   6.420   7.327 -0.0879  0.0459 -0.0696
  908loPI   C4A14194  10.179   6.406   7.767 -0.0223 -0.0030  0.1945
  908loPI   C5A14195  10.000   6.239   8.128  0.0365 -0.1635 -0.2165
  908loPI   C6A14196  10.092   5.952   8.409  0.1740 -0.1506 -0.2027
  908loPI   C1B14197  10.925   6.157   6.259 -0.1965  0.1864  0.0791
  908loPI   C2B14198  11.112   6.188   6.729  0.3966 -0.2745  0.1465
  908loPI   C3B14199  11.243   6.265   7.159  0.1559  0.2508 -0.3203
  908loPI   C4B14200  11.145   6.284   7.627  0.1371  0.1620  0.2646
  909loPI    C114201   7.098  15.254   5.506  0.0377 -0.1632  0.0263
  909loPI    C214202   7.315  15.157   5.185  0.0390 -0.0626 -0.0035
  909loPI    C314203   6.995  15.394   5.146 -0.1309 -0.2842  0.0261
  909loPI   PO414204   6.947  15.091   5.643 -0.3031 -0.2467  0.0805
  909loPI   GL114205   6.831  15.242   6.016  0.1403  0.0840 -0.0578
  909loPI   GL214206   6.806  15.530   5.826  0.1666 -0.1348  0.0786
  909loPI   C1A14207   6.650  15.387   6.330 -0.2431 -0.0458 -0.1350
  909loPI   C2A14208   6.749  15.641   6.620 -0.0799  0.0983 -0.0329
  909loPI   C3A14209   6.891  15.848   7.000 -0.2253  0.1471  0.0569
  909loPI   C4A14210   6.910  15.777   7.500  0.1683 -0.0194  0.1950
  909loPI   C5A14211   6.632  15.930   7.837  0.2571 -0.1361  0.0161
  909loPI   C6A14212   6.541  16.320   8.074  0.2144  0.1006 -0.2659
  909loPI   C1B14213   7.003  15.868   6.202  0.1729 -0.0366 -0.0686
  909loPI   C2B14214   6.959  16.143   6.566  0.0517  0.2119  0.0771
  909loPI   C3B14215   6.879  16.395   7.010  0.3902 -0.0709 -0.1101
  909loPI   C4B14216   7.273  16.657   7.220 -0.0725  0.1356  0.0004
  910loPI    C114217  11.444   9.828   5.078 -0.0465 -0.0496 -0.0773
  910loPI    C214218  11.154   9.864   4.805  0.0532 -0.0655 -0.1861
  910loPI    C314219  11.306   9.504   4.890 -0.0236 -0.0689 -0.0608
  910loPI   PO414220  11.333   9.970   5.315 -0.1932  0.0934  0.1359
  910loPI   GL114221  11.429  10.117   5.722 -0.6388  0.2715 -0.2210
  910loPI   GL214222  11.758  10.077   5.535 -0.0919 -0.1107 -0.2594
  910loPI   C1A14223  11.468  10.181   6.080 -0.3111  0.3845 -0.0047
  910loPI   C2A14224  11.493  10.071   6.475  0.1580  0.2799 -0.0534
  910loPI   C3A14225  11.618  10.021   6.864  0.0331  0.0498 -0.0489
  910loPI   C4A14226  11.526  10.015   7.260  0.3152 -0.3919  0.2266
  910loPI   C5A14227  11.435  10.064   7.676  0.0555  0.0417  0.3259
  910loPI   C6A14228  11.356  10.490   7.814  0.0691  0.2945  0.1663
  910loPI   C1B14229  11.983  10.217   5.780  0.3720  0.0623 -0.2650
  910loPI   C2B14230  11.931  10.231   6.163 -0.1293 -0.0608  0.2376
  910loPI   C3B14231  12.024  10.194   6.595  0.1239  0.4350  0.2080
  910loPI   C4B14232  11.992  10.201   7.120  0.1641 -0.2307  0.2724
  911loPI    C114233   7.172   0.438   5.507 -0.1471  0.1973  0.1574
  911loPI    C214234   6.791   0.319   5.492 -0.1555  0.2226  0.1667
  911loPI    C314235   6.974   0.446   5.160 -0.0717 -0.0484  0.1066
  911loPI   PO414236   7.180   0.591   5.689 -0.0674  0.2436 -0.0938
  911loPI   GL114237   7.191   0.763   6.105  0.1173 -0.0290  0.0986
  911loPI   GL214238   7.123   1.006   6.168 -0.0344 -0.0477  0.0884
  911loPI   C1A14239   7.243   0.583   6.485 -0.0563  0.1572  0.1501
  911loPI   C2A14240   7.328   0.613   6.944 -0.2780 -0.0909  0.0052
  911loPI   C3A14241   7.326   0.567   7.405 -0.0515  0.2102  0.0956
  911loPI   C4A14242   7.207   0.474   7.846 -0.3040  0.0655  0.2492
  911loPI   C5A14243   7.324   0.437   8.152  0.1586  0.1250  0.0910
  911loPI   C6A14244   7.632   0.437   8.503  0.0994  0.2009 -0.0215
  911loPI   C1B14245   7.078   1.078   6.563 -0.0565 -0.0086  0.1029
  911loPI   C2B14246   6.998   0.963   6.997  0.0089  0.1895 -0.2261
  911loPI   C3B14247   6.849   1.039   7.392 -0.0230 -0.0939 -0.1852
  911loPI   C4B14248   6.718   1.077   7.763 -0.0762 -0.0686 -0.2295
  912loPI    C114249   2.197  18.283   5.559  0.0673  0.0714 -0.0516
  912loPI    C214250   2.385  18.619   5.451  0.1422  0.0736  0.0821
  912loPI    C314251   2.186  18.404   5.178  0.2902  0.1020 -0.0496
  912loPI   PO414252   2.275  18.254   5.772  0.0425 -0.1220 -0.0667
  912loPI   GL114253   2.299  18.186   6.185  0.0100  0.0516  0.0327
  912loPI   GL214254   2.550  18.015   6.094 -0.1338 -0.0486 -0.1385
  912loPI   C1A14255   1.892  18.128   6.433  0.0946 -0.0274 -0.0807
  912loPI   C2A14256   1.705  18.141   6.832 -0.1578 -0.0487 -0.3355
  912loPI   C3A14257   1.361  18.299   7.021  0.1013 -0.0498 -0.0115
  912loPI   C4A14258   1.010  18.427   7.207  0.1324  0.2640 -0.0165
  912loPI   C5A14259   0.678  18.489   7.506  0.0403  0.1356 -0.0718
  912loPI   C6A14260   0.440  18.596   7.876  0.0848  0.0268  0.0884
  912loPI   C1B14261   2.315  17.874   6.611 -0.1383  0.0537  0.1463
  912loPI   C2B14262   2.168  18.063   6.950  0.0762  0.1472 -0.2353
  912loPI   C3B14263   1.981  18.220   7.265 -0.1105 -0.0937  0.2930
  912loPI   C4B14264   1.593  18.281   7.460  0.0606 -0.1731  0.0169
  913loPI    C114265   7.725   8.382   5.630  0.1173  0.1477 -0.1112
  913loPI    C214266   7.831   8.586   5.302  0.1289 -0.0886 -0.2570
  913loPI    C314267   8.110   8.410   5.527  0.0947 -0.2119 -0.3100
  913loPI   PO414268   7.586   8.246   5.625 -0.0155  0.0444 -0.1720
  913loPI   GL114269   7.472   8.193   5.979 -0.0234  0.4026 -0.0645
  913loPI   GL214270   7.749   8.286   6.139 -0.0973 -0.0277  0.0942
  913loPI   C1A14271   7.209   8.392   6.273 -0.2528  0.1984 -0.0995
  913loPI   C2A14272   6.947   8.387   6.547  0.2016 -0.1819 -0.0736
  913loPI   C3A14273   6.607   8.385   6.878 -0.5897  0.2512 -0.0754
  913loPI   C4A14274   6.780   8.392   7.322  0.1963 -0.1918 -0.2477
  913loPI   C5A14275   6.735   8.366   7.659 -0.2516  0.0899  0.3299
  913loPI   C6A14276   6.949   8.447   8.045  0.2174 -0.1715 -0.0236
  913loPI   C1B14277   7.580   8.461   6.570 -0.0483  0.2500 -0.1680
  913loPI   C2B14278   7.696   8.679   6.907 -0.2615 -0.1351 -0.3050
  913loPI   C3B14279   7.505   8.888   7.208  0.0946  0.1610  0.2246
  913loPI   C4B14280   7.275   9.191   7.494  0.1819 -0.0643 -0.1361
  914loPI    C114281   4.371   4.783   5.040 -0.0883  0.2767  0.0284
  914loPI    C214282   3.974   4.805   5.085 -0.0579  0.1378  0.3955
  914loPI    C314283   4.134   4.520   4.855 -0.1789  0.3420  0.0508
  914loPI   PO414284   4.477   4.781   5.310 -0.2046 -0.0452 -0.0779
  914loPI   GL114285   4.387   4.775   5.778 -0.1343 -0.0298  0.1746
  914loPI   GL214286   4.102   4.933   5.614  0.0205  0.3076 -0.0371
  914loPI   C1A14287   4.156   4.758   6.114  0.3254  0.2396 -0.2833
  914loPI   C2A14288   4.118   4.822   6.555  0.2604 -0.1615 -0.0545
  914loPI   C3A14289   4.116   4.835   6.965  0.3728 -0.0897  0.1582
  914loPI   C4A14290   4.052   4.926   7.363  0.3255  0.1824  0.0900
  914loPI   C5A14291   3.879   5.243   7.623 -0.1126  0.0060 -0.0859
  914loPI   C6A14292   3.540   5.355   7.886 -0.0655 -0.1117 -0.0504
  914loPI   C1B14293   3.989   5.258   5.925  0.2203  0.0914 -0.0756
  914loPI   C2B14294   3.803   5.272   6.302  0.1424  0.0507  0.2127
  914loPI   C3B14295   3.873   5.262   6.691 -0.0819 -0.1408 -0.2737
  914loPI   C4B14296   3.826   5.307   7.129  0.1541  0.0811 -0.2292
  915loPI    C114297   5.778   8.286   4.985 -0.4867  0.1852 -0.0477
  915loPI    C214298   5.721   7.911   4.858 -0.0955  0.1276 -0.0667
  915loPI    C314299   5.680   8.217   4.603 -0.2440  0.0862 -0.0939
  915loPI   PO414300   6.081   8.272   5.144  0.2662  0.0437  0.1916
  915loPI   GL114301   5.979   8.384   5.594  0.0926 -0.0639  0.0680
  915loPI   GL214302   5.871   8.718   5.710 -0.1933  0.0922 -0.3764
  915loPI   C1A14303   5.779   8.442   6.140 -0.0517 -0.0136 -0.1156
  915loPI   C2A14304   5.695   8.312   6.567 -0.1716 -0.0828 -0.2729
  915loPI   C3A14305   5.682   8.258   6.948  0.1577  0.0849 -0.1288
  915loPI   C4A14306   5.726   8.461   7.292 -0.2901 -0.2799 -0.2624
  915loPI   C5A14307   5.775   8.455   7.763  0.0450  0.0593 -0.0643
  915loPI   C6A14308   5.401   8.370   8.140  0.2476 -0.3712  0.0424
  915loPI   C1B14309   6.202   8.633   5.963 -0.0078  0.2259 -0.0003
  915loPI   C2B14310   6.361   8.816   6.356 -0.0110  0.0353 -0.2799
  915loPI   C3B14311   6.234   8.825   6.751 -0.1984 -0.0226 -0.0663
  915loPI   C4B14312   6.130   8.922   7.177  0.1945 -0.0524 -0.0101
  916loPI    C114313  15.585  14.349   5.141  0.0535 -0.0512  0.0417
  916loPI    C214314  15.593  14.379   4.743 -0.0927  0.1485  0.0525
  916loPI    C314315  15.266  14.241   4.926 -0.0257  0.0574  0.1039
  916loPI   PO414316  15.826  14.245   5.224 -0.2845 -0.0376 -0.3322
  916loPI   GL114317  16.116  14.188   5.506 -0.1228  0.0494 -0.3933
  916loPI   GL214318  16.007  13.919   5.694 -0.2184 -0.3135 -0.3022
  916loPI   C1A14319  16.065  14.338   5.977  0.0585  0.0733 -0.0543
  916loPI   C2A14320  16.091  14.348   6.405  0.0673 -0.2120 -0.1708
  916loPI   C3A14321  16.043  14.429   6.880  0.1014  0.0007  0.3390
  916loPI   C4A14322  16.097  14.329   7.200  0.1926 -0.2459  0.0640
  916loPI   C5A14323  16.239  14.576   7.581 -0.1306  0.3291 -0.1272
  916loPI   C6A14324  16.292  14.573   8.138  0.0140 -0.0207 -0.0499
  916loPI   C1B14325  16.035  13.880   6.097  0.0269  0.3482 -0.1316
  916loPI   C2B14326  15.957  13.850   6.495  0.3867  0.0502  0.1891
  916loPI   C3B14327  15.964  13.923   6.960 -0.0002  0.0844  0.2576
  916loPI   C4B14328  15.961  13.891   7.335 -0.0730 -0.1195 -0.4589
  917loPI    C114329   8.966  11.887   5.275 -0.0301 -0.0100 -0.1372
  917loPI    C214330   8.792  11.535   5.197  0.0574 -0.0401 -0.1983
  917loPI    C314331   9.048  11.695   4.934 -0.1640  0.1850 -0.2819
  917loPI   PO414332   8.747  11.979   5.450  0.1359 -0.0572 -0.1224
  917loPI   GL114333   8.904  12.274   5.780 -0.1230 -0.1678  0.1177
  917loPI   GL214334   8.597  12.439   5.637 -0.1019  0.2092 -0.0450
  917loPI   C1A14335   8.953  12.218   6.211  0.5665  0.1970 -0.4080
  917loPI   C2A14336   8.936  12.251   6.577  0.0775 -0.1546 -0.3356
  917loPI   C3A14337   8.905  12.213   6.936  0.0724  0.0796 -0.1238
  917loPI   C4A14338   8.695  11.939   7.245  0.0847  0.2390  0.1689
  917loPI   C5A14339   8.738  11.527   7.518 -0.1101 -0.1204  0.1896
  917loPI   C6A14340   8.808  11.125   7.586 -0.0418  0.0767  0.0695
  917loPI   C1B14341   8.493  12.404   6.087  0.1052  0.0185 -0.1778
  917loPI   C2B14342   8.321  12.492   6.533  0.1405 -0.0474  0.2178
  917loPI   C3B14343   8.337  12.311   6.972 -0.0549 -0.1295  0.0382
  917loPI   C4B14344   8.286  12.191   7.415  0.1339  0.1352 -0.3259
  918loPI    C114345   5.821  13.260   5.186  0.1794 -0.3052  0.0067
  918loPI    C214346   5.641  13.160   4.843  0.2049 -0.3545  0.0077
  918loPI    C314347   6.006  13.323   4.836  0.0120  0.0908 -0.0163
  918loPI   PO414348   5.581  13.276   5.322 -0.2513 -0.0109 -0.1235
  918loPI   GL114349   5.575  13.291   5.729 -0.3687  0.2203  0.0570
  918loPI   GL214350   5.573  12.957   5.830 -0.1349 -0.2480 -0.0935
  918loPI   C1A14351   5.629  13.543   6.101  0.1183 -0.1730 -0.1416
  918loPI   C2A14352   5.895  13.550   6.475 -0.0420  0.0433  0.2633
  918loPI   C3A14353   5.895  13.423   6.896 -0.0825 -0.0221 -0.2915
  918loPI   C4A14354   5.815  13.314   7.337  0.0341 -0.0354 -0.0338
  918loPI   C5A14355   5.585  13.123   7.725 -0.0633  0.1705 -0.0096
  918loPI   C6A14356   5.527  13.214   8.165  0.0582 -0.0152 -0.2773
  918loPI   C1B14357   5.434  12.988   6.271 -0.1624 -0.0509  0.3142
  918loPI   C2B14358   5.466  13.249   6.724  0.1851  0.0492 -0.1613
  918loPI   C3B14359   5.407  13.118   7.089  0.2225 -0.1973  0.0729
  918loPI   C4B14360   5.170  12.954   7.504 -0.1428  0.1028 -0.0837
  919loPI    C114361   1.785  16.804   4.912 -0.1537  0.2281 -0.0482
  919loPI    C214362   1.629  17.156   4.804 -0.0853  0.2032 -0.2319
  919loPI    C314363   1.731  16.888   4.525  0.2000  0.1824 -0.1110
  919loPI   PO414364   1.692  16.797   5.166 -0.0656  0.2433 -0.1681
  919loPI   GL114365   1.674  16.734   5.637 -0.0858 -0.0556  0.2375
  919loPI   GL214366   1.796  16.351   5.877 -0.0829  0.4904  0.1573
  919loPI   C1A14367   1.633  16.779   6.135  0.1442  0.0709 -0.0143
  919loPI   C2A14368   1.658  16.744   6.556 -0.1851 -0.0403 -0.1361
  919loPI   C3A14369   1.685  16.749   7.051  0.3012  0.0339  0.3232
  919loPI   C4A14370   1.782  16.659   7.511 -0.3552 -0.1699  0.1595
  919loPI   C5A14371   1.986  17.010   7.852  0.3350  0.1044 -0.0235
  919loPI   C6A14372   2.376  17.053   8.032 -0.4618 -0.0529 -0.0205
  919loPI   C1B14373   1.610  16.294   6.305  0.0796 -0.0415 -0.0156
  919loPI   C2B14374   1.599  16.225   6.795 -0.1986 -0.0090 -0.2193
  919loPI   C3B14375   1.603  16.266   7.264  0.0572 -0.0726  0.1722
  919loPI   C4B14376   1.851  16.194   7.648  0.0876 -0.3651  0.2443
  920loPI    C114377   2.562  14.193   5.305  0.0302 -0.0224  0.1916
  920loPI    C214378   2.806  13.906   5.171 -0.1024 -0.0250 -0.0506
  920loPI    C314379   2.593  14.124   4.912  0.0296  0.3236  0.1274
  920loPI   PO414380   2.706  14.298   5.526 -0.3697  0.0624 -0.0601
  920loPI   GL114381   2.921  14.369   5.951  0.1697  0.0158  0.0644
  920loPI   GL214382   2.694  14.460   6.043  0.4520  0.2483  0.0026
  920loPI   C1A14383   3.145  14.486   6.360 -0.1630  0.1075  0.1798
  920loPI   C2A14384   3.291  14.758   6.583 -0.0907  0.4342  0.1136
  920loPI   C3A14385   3.027  14.923   6.825 -0.1290  0.1213 -0.2712
  920loPI   C4A14386   2.912  14.664   7.147 -0.1161  0.0111 -0.0630
  920loPI   C5A14387   3.169  14.467   7.357 -0.0800  0.1775 -0.0480
  920loPI   C6A14388   3.349  14.593   7.713 -0.2517  0.3261  0.0784
  920loPI   C1B14389   2.515  14.108   6.372 -0.2656 -0.1956  0.0233
  920loPI   C2B14390   2.131  14.015   6.543 -0.1649 -0.0076 -0.1970
  920loPI   C3B14391   1.763  13.842   6.716  0.0631  0.2232 -0.1571
  920loPI   C4B14392   1.630  13.811   7.117 -0.3698  0.0204 -0.1828
  921loPI    C114393   7.496  14.420   5.687  0.2195 -0.0549 -0.0618
  921loPI    C214394   7.278  14.105   5.800  0.1170  0.0237 -0.0390
  921loPI    C314395   7.313  14.195   5.412 -0.0045  0.0911 -0.0348
  921loPI   PO414396   7.519  14.592   5.922 -0.0136  0.3838  0.3813
  921loPI   GL114397   7.412  14.526   6.339  0.2694 -0.0101 -0.4531
  921loPI   GL214398   7.300  14.144   6.326 -0.0556 -0.2104  0.0476
  921loPI   C1A14399   7.268  14.748   6.703  0.0678  0.2548  0.0020
  921loPI   C2A14400   7.207  14.857   7.114 -0.1173  0.2523 -0.0091
  921loPI   C3A14401   7.506  14.731   7.408  0.2051 -0.2320 -0.2882
  921loPI   C4A14402   7.637  14.694   7.846  0.1669  0.1666  0.1178
  921loPI   C5A14403   7.941  14.503   8.239 -0.1515  0.1515  0.0849
  921loPI   C6A14404   8.195  14.136   8.250 -0.2547 -0.4320  0.1118
  921loPI   C1B14405   7.267  14.241   6.795 -0.1951  0.3206 -0.0316
  921loPI   C2B14406   7.192  14.318   7.219 -0.1291  0.3840 -0.1830
  921loPI   C3B14407   7.092  14.546   7.616 -0.2374 -0.3417 -0.0899
  921loPI   C4B14408   6.959  14.494   8.144 -0.0125  0.1866 -0.2673
  922loPI    C114409   1.652  10.412   4.719  0.0061  0.0215  0.0176
  922loPI    C214410   1.866  10.679   4.510 -0.0883 -0.0435 -0.1640
  922loPI    C314411   1.725  10.350   4.330 -0.0658 -0.1626  0.0326
  922loPI   PO414412   1.836  10.360   4.999 -0.1780  0.1231  0.1684
  922loPI   GL114413   1.875  10.411   5.491 -0.2234  0.0009  0.1897
  922loPI   GL214414   1.566  10.389   5.669  0.0302 -0.0975 -0.0437
  922loPI   C1A14415   2.028  10.229   5.933  0.1806  0.2683  0.0606
  922loPI   C2A14416   1.861  10.002   6.235 -0.2881 -0.1278 -0.0177
  922loPI   C3A14417   1.793  10.024   6.681  0.2046  0.1392 -0.0099
  922loPI   C4A14418   1.791  10.198   7.135  0.2984 -0.0754  0.1924
  922loPI   C5A14419   1.574  10.274   7.555 -0.0846  0.0575 -0.1480
  922loPI   C6A14420   1.886  10.310   7.993  0.0434  0.2708  0.0176
  922loPI   C1B14421   1.565  10.412   6.126 -0.2103  0.0351 -0.1837
  922loPI   C2B14422   1.491  10.569   6.508 -0.0639 -0.0535 -0.0931
  922loPI   C3B14423   1.475  10.413   6.827  0.0970 -0.1952 -0.2348
  922loPI   C4B14424   1.305  10.558   7.222  0.3289  0.1410  0.0079
  923loPI    C114425   4.783  16.753   5.345 -0.0913 -0.1644 -0.1450
  923loPI    C214426   4.409  16.829   5.227 -0.0614  0.2754  0.0254
  923loPI    C314427   4.691  16.751   4.955 -0.2245  0.1789 -0.1187
  923loPI   PO414428   4.735  16.708   5.660 -0.2336 -0.3254 -0.1389
  923loPI   GL114429   4.480  16.500   5.983  0.1921 -0.0976  0.0508
  923loPI   GL214430   4.652  16.590   6.247  0.2241  0.2701  0.1180
  923loPI   C1A14431   4.237  16.146   6.084 -0.0591 -0.0412  0.0675
  923loPI   C2A14432   4.091  15.866   6.496  0.3987  0.1966  0.0066
  923loPI   C3A14433   4.208  15.738   6.880  0.1107 -0.0704  0.2323
  923loPI   C4A14434   4.225  15.754   7.383 -0.3277  0.0992  0.1464
  923loPI   C5A14435   4.142  15.353   7.707 -0.0462  0.1170  0.0913
  923loPI   C6A14436   4.081  15.268   8.105 -0.0532 -0.1612 -0.0142
  923loPI   C1B14437   4.729  16.566   6.720 -0.0564  0.0746 -0.1195
  923loPI   C2B14438   4.729  16.587   7.161 -0.2016  0.2321 -0.1209
  923loPI   C3B14439   4.826  16.420   7.554 -0.4065 -0.2606 -0.0196
  923loPI   C4B14440   5.224  16.296   7.773 -0.1142 -0.1485  0.0846
  924loPI    C114441  12.036   1.967   5.652  0.0680  0.0940 -0.1561
  924loPI    C214442  11.682   2.004   5.468 -0.0338  0.0499  0.0285
  924loPI    C314443  11.973   1.787   5.300 -0.0161  0.2701 -0.2325
  924loPI   PO414444  12.037   2.219   5.775 -0.2183 -0.0128 -0.1910
  924loPI   GL114445  12.118   2.416   6.081 -0.1054 -0.1812  0.2425
  924loPI   GL214446  11.952   2.263   6.347 -0.1493 -0.0895  0.0915
  924loPI   C1A14447  12.536   2.494   6.094 -0.2493 -0.0262  0.0329
  924loPI   C2A14448  12.682   2.311   6.321 -0.3014 -0.2614 -0.1685
  924loPI   C3A14449  12.974   2.153   6.520 -0.0189  0.3849 -0.1225
  924loPI   C4A14450  13.059   2.235   6.928 -0.2551  0.0565 -0.4233
  924loPI   C5A14451  12.980   2.025   7.279  0.2492 -0.0011 -0.2753
  924loPI   C6A14452  13.230   2.101   7.534 -0.0349  0.1496  0.3967
  924loPI   C1B14453  11.953   2.129   6.829 -0.0236  0.1542 -0.0267
  924loPI   C2B14454  12.143   2.245   7.113 -0.1564  0.0618  0.0284
  924loPI   C3B14455  12.049   2.190   7.522  0.3844 -0.0223 -0.0493
  924loPI   C4B14456  12.040   1.918   7.995 -0.1293  0.3985  0.0435
  925loPI    C114457   0.405  18.201   5.249 -0.1150  0.0523 -0.1259
  925loPI    C214458   0.175  18.445   5.033 -0.1556  0.1116 -0.0163
  925loPI    C314459   0.570  18.502   5.045 -0.1469  0.0750 -0.1184
  925loPI   PO414460   0.235  18.161   5.507 -0.0820  0.5242  0.0388
  925loPI   GL114461   0.445  18.072   5.844 -0.0698 -0.3448  0.2067
  925loPI   GL214462   0.740  18.009   5.978  0.0520  0.1443 -0.1056
  925loPI   C1A14463   0.310  17.829   6.078 -0.0275  0.0348  0.2312
  925loPI   C2A14464   0.269  17.711   6.494  0.1132 -0.0259  0.0759
  925loPI   C3A14465   0.113  17.406   6.779  0.0734 -0.3033  0.1023
  925loPI   C4A14466   0.163  17.268   7.119 -0.0630 -0.0717  0.0934
  925loPI   C5A14467  -0.011  17.081   7.422 -0.1447 -0.1736  0.0030
  925loPI   C6A14468  -0.238  16.902   7.765  0.0964 -0.1493 -0.1498
  925loPI   C1B14469   0.804  17.745   6.369 -0.0724 -0.1255 -0.1758
  925loPI   C2B14470   0.704  17.664   6.847  0.0275  0.0792 -0.0816
  925loPI   C3B14471   0.663  17.489   7.252  0.0423 -0.1871 -0.2989
  925loPI   C4B14472   0.642  17.126   7.575  0.0955 -0.4173  0.0773
  926loPI    C114473   6.405  16.889   5.460  0.0137  0.0441  0.0302
  926loPI    C214474   6.136  17.102   5.255  0.1632  0.1689 -0.0384
  926loPI    C314475   6.456  16.952   5.069  0.0443 -0.1446  0.0025
  926loPI   PO414476   6.287  16.707   5.585 -0.2399 -0.3338 -0.2897
  926loPI   GL114477   6.161  16.470   6.014 -0.0441 -0.0717  0.2088
  926loPI   GL214478   5.976  16.681   6.009 -0.0508  0.0142  0.0537
  926loPI   C1A14479   6.408  16.708   6.336  0.0917 -0.1896 -0.0062
  926loPI   C2A14480   6.498  16.796   6.763  0.4183 -0.3534 -0.5059
  926loPI   C3A14481   6.575  16.713   7.199 -0.2022  0.2329  0.2135
  926loPI   C4A14482   6.773  16.763   7.663  0.0077  0.0422 -0.0914
  926loPI   C5A14483   6.988  17.131   7.876 -0.0972 -0.0229  0.1418
  926loPI   C6A14484   7.483  17.217   7.916 -0.2692 -0.0511 -0.0510
  926loPI   C1B14485   5.947  16.617   6.427  0.0963  0.0676  0.0922
  926loPI   C2B14486   5.949  16.548   6.867  0.2491  0.1287  0.2263
  926loPI   C3B14487   6.070  16.670   7.265 -0.1426 -0.1097  0.0336
  926loPI   C4B14488   6.276  16.607   7.716  0.0133  0.2464  0.0834
  927loPI    C114489   1.463  12.954   5.288  0.1021  0.0723 -0.0557
  927loPI    C214490   1.073  12.888   5.345  0.0465  0.2355 -0.2374
  927loPI    C314491   1.224  12.885   4.975  0.2715 -0.1104 -0.1476
  927loPI   PO414492   1.545  12.877   5.501  0.1927 -0.2098  0.1164
  927loPI   GL114493   1.345  12.955   5.874 -0.1479 -0.0369 -0.0032
  927loPI   GL214494   1.656  12.877   5.985 -0.0312 -0.1284 -0.2889
  927loPI   C1A14495   1.128  13.135   6.187 -0.1576 -0.1044  0.1177
  927loPI   C2A14496   1.112  13.222   6.585  0.2808 -0.2040  0.1875
  927loPI   C3A14497   1.053  13.111   6.992  0.0264 -0.0783 -0.0982
  927loPI   C4A14498   0.950  13.201   7.412  0.1285 -0.0558  0.0833
  927loPI   C5A14499   0.804  13.279   7.877  0.0333 -0.0579 -0.2811
  927loPI   C6A14500   0.763  13.554   8.283 -0.0938 -0.1886  0.0783
  927loPI   C1B14501   1.424  12.799   6.404  0.0917  0.1082 -0.0460
  927loPI   C2B14502   1.489  12.829   6.826  0.0754  0.1045 -0.1044
  927loPI   C3B14503   1.347  12.837   7.295  0.1774 -0.1070  0.2925
  927loPI   C4B14504   1.283  13.054   7.754 -0.0796 -0.1261  0.3060
  928loPI    C114505   3.822   2.050   5.412 -0.1468 -0.2627  0.0380
  928loPI    C214506   4.031   2.356   5.562 -0.2234 -0.2784  0.1786
  928loPI    C314507   4.221   2.053   5.383 -0.1620 -0.0365 -0.1769
  928loPI   PO414508   3.625   2.084   5.636 -0.1299  0.0583  0.1000
  928loPI   GL114509   3.598   2.277   6.050  0.0080 -0.0376 -0.1222
  928loPI   GL214510   3.891   2.349   6.067  0.0499 -0.1048  0.1114
  928loPI   C1A14511   3.494   2.140   6.462 -0.2333  0.1434  0.1543
  928loPI   C2A14512   3.638   2.026   6.816 -0.0578  0.3712 -0.1443
  928loPI   C3A14513   3.825   2.044   7.271  0.1321 -0.1209 -0.1885
  928loPI   C4A14514   3.986   2.303   7.649  0.0485  0.2163  0.2653
  928loPI   C5A14515   3.864   2.406   7.976  0.4800 -0.0002  0.0263
  928loPI   C6A14516   4.065   2.383   8.329 -0.1143  0.0695 -0.1754
  928loPI   C1B14517   4.002   2.157   6.498  0.1252 -0.1805  0.2682
  928loPI   C2B14518   4.117   2.201   6.897 -0.0606  0.0350  0.0401
  928loPI   C3B14519   3.987   2.486   7.192  0.0523  0.2261 -0.2053
  928loPI   C4B14520   4.010   2.790   7.621  0.0500  0.0635  0.0848
  929loPI    C114521  12.232   7.855   4.799  0.0967  0.0731  0.0249
  929loPI    C214522  12.325   8.234   4.708 -0.0436  0.0859 -0.0677
  929loPI    C314523  12.038   8.044   4.505 -0.0510 -0.0337  0.0530
  929loPI   PO414524  12.232   7.889   5.119 -0.0380 -0.1678  0.0112
  929loPI   GL114525  12.170   7.669   5.488  0.0722 -0.2461  0.0397
  929loPI   GL214526  12.286   7.908   5.711 -0.4193 -0.1850  0.0037
  929loPI   C1A14527  12.184   7.487   5.928  0.1972 -0.4352  0.0839
  929loPI   C2A14528  12.280   7.550   6.324 -0.0954  0.1070  0.0385
  929loPI   C3A14529  12.297   7.531   6.714  0.3357  0.0398  0.1201
  929loPI   C4A14530  12.416   7.472   7.141 -0.0569  0.2472 -0.0264
  929loPI   C5A14531  12.356   7.505   7.618 -0.2754 -0.2229  0.2512
  929loPI   C6A14532  12.187   7.157   7.661 -0.0609 -0.0145  0.1144
  929loPI   C1B14533  12.337   7.980   6.128  0.2418 -0.1400 -0.3142
  929loPI   C2B14534  12.434   8.077   6.568  0.2514  0.0017  0.0675
  929loPI   C3B14535  12.477   7.990   6.967 -0.1410 -0.2517 -0.0033
  929loPI   C4B14536  12.527   7.955   7.381 -0.3867 -0.3823  0.1459
  930loPI    C114537  10.130  14.850   5.026 -0.0723 -0.0609 -0.2560
  930loPI    C214538   9.992  14.477   5.068  0.0166 -0.0693 -0.0247
  930loPI    C314539  10.307  14.549   4.832  0.1535 -0.1787  0.1227
  930loPI   PO414540  10.064  14.938   5.266  0.3747  0.0351  0.1087
  930loPI   GL114541  10.387  15.027   5.624 -0.0004 -0.0154  0.1479
  930loPI   GL214542  10.496  14.818   5.914 -0.0911 -0.0968 -0.0466
  930loPI   C1A14543  10.215  15.262   5.814  0.2884  0.1982  0.1627
  930loPI   C2A14544  10.008  15.395   6.191  0.1041  0.1838  0.3344
  930loPI   C3A14545   9.888  15.353   6.632 -0.0759  0.1362 -0.0770
  930loPI   C4A14546   9.796  15.476   7.141  0.3022  0.2194 -0.3052
  930loPI   C5A14547   9.733  15.708   7.538 -0.1911 -0.2185 -0.0876
  930loPI   C6A14548   9.347  15.785   7.773 -0.1614 -0.2233  0.0190
  930loPI   C1B14549  10.454  15.115   6.272  0.1114  0.0713 -0.0942
  930loPI   C2B14550  10.396  15.165   6.671  0.0574  0.0941 -0.1839
  930loPI   C3B14551  10.164  15.156   7.051 -0.2074 -0.1728  0.1767
  930loPI   C4B14552  10.130  14.877   7.367 -0.2639 -0.2415  0.2745
  931loPI    C114553  17.382   5.118   4.680 -0.1012  0.1780  0.1834
  931loPI    C214554  17.338   5.398   4.398  0.0614  0.1339  0.1128
  931loPI    C314555  17.174   5.036   4.349  0.0899  0.1261  0.0745
  931loPI   PO414556  17.500   5.239   4.859  0.0164  0.1455  0.0611
  931loPI   GL114557  17.388   5.422   5.273  0.0236 -0.0815 -0.0953
  931loPI   GL214558  17.548   5.160   5.371 -0.1155 -0.3035 -0.0578
  931loPI   C1A14559  17.754   5.578   5.599  0.0748 -0.1289  0.0129
  931loPI   C2A14560  17.837   5.597   5.996  0.0988  0.0274  0.0117
  931loPI   C3A14561  17.933   5.576   6.414  0.2454 -0.1681 -0.1477
  931loPI   C4A14562  17.944   5.560   6.791  0.1070  0.1747 -0.0867
  931loPI   C5A14563  18.028   5.661   7.223  0.0462  0.1771  0.0428
  931loPI   C6A14564  17.965   5.754   7.679  0.2819  0.3239 -0.2373
  931loPI   C1B14565  17.406   5.230   5.811  0.1631  0.0714 -0.0467
  931loPI   C2B14566  17.339   5.274   6.216 -0.0740  0.2437  0.2293
  931loPI   C3B14567  17.510   5.432   6.629  0.2905 -0.1791  0.0706
  931loPI   C4B14568  17.600   5.404   7.093  0.1811 -0.0260  0.1789
  932loPI    C114569   7.572  13.411   5.690 -0.2183 -0.0221  0.2579
  932loPI    C214570   7.684  13.785   5.777 -0.3622  0.1167 -0.1339
  932loPI    C314571   7.554  13.695   5.409 -0.2275 -0.3440 -0.0752
  932loPI   PO414572   7.360  13.382   5.829  0.2009 -0.0505  0.0003
  932loPI   GL114573   7.300  13.238   6.213  0.0251 -0.0196 -0.2230
  932loPI   GL214574   7.010  13.071   6.096  0.0753 -0.0108 -0.1866
  932loPI   C1A14575   7.407  13.215   6.676 -0.3404  0.0065  0.0465
  932loPI   C2A14576   7.428  13.349   7.092 -0.0690 -0.1149  0.2683
  932loPI   C3A14577   7.385  13.422   7.454  0.0034  0.0686  0.0358
  932loPI   C4A14578   7.059  13.547   7.677 -0.3634 -0.0147 -0.2854
  932loPI   C5A14579   7.009  13.883   7.945 -0.1736 -0.0861  0.0446
  932loPI   C6A14580   7.144  14.018   8.347  0.0657  0.1063 -0.0239
  932loPI   C1B14581   6.922  12.999   6.554 -0.5270 -0.0067  0.0752
  932loPI   C2B14582   7.086  12.971   6.982  0.1132  0.0365  0.0940
  932loPI   C3B14583   7.093  12.979   7.422 -0.1303 -0.1434 -0.3355
  932loPI   C4B14584   6.846  13.111   7.841  0.1785  0.0156 -0.0418
  933loPI    C114585   5.553   3.192   5.513  0.0634  0.1357  0.1250
  933loPI    C214586   5.918   3.084   5.391  0.0138 -0.0153  0.1071
  933loPI    C314587   5.617   2.822   5.373 -0.0686  0.0695  0.2367
  933loPI   PO414588   5.614   3.274   5.775  0.0817 -0.2346 -0.1186
  933loPI   GL114589   5.656   3.279   6.219  0.4470  0.0271 -0.0953
  933loPI   GL214590   5.504   3.686   6.265 -0.1323 -0.1189 -0.4903
  933loPI   C1A14591   5.839   3.142   6.489 -0.1507 -0.0586  0.1345
  933loPI   C2A14592   5.812   2.875   6.802 -0.1589 -0.1767 -0.1367
  933loPI   C3A14593   5.943   2.511   6.914 -0.0854  0.1637 -0.1588
  933loPI   C4A14594   5.853   2.302   7.282  0.0063  0.1640 -0.0458
  933loPI   C5A14595   5.646   2.273   7.549 -0.4050  0.1378  0.0586
  933loPI   C6A14596   5.249   2.354   7.845  0.1609 -0.1864 -0.4427
  933loPI   C1B14597   5.332   3.911   6.480 -0.0856  0.1970  0.2115
  933loPI   C2B14598   5.171   3.910   6.862  0.0000  0.1142 -0.0527
  933loPI   C3B14599   5.119   3.984   7.335 -0.1528  0.0493 -0.1570
  933loPI   C4B14600   5.207   4.172   7.731  0.0045 -0.2149  0.0117
  934loPI    C114601   8.595   8.627   5.410 -0.0539  0.1077 -0.0641
  934loPI    C214602   8.318   8.862   5.243  0.1975  0.2330 -0.3128
  934loPI    C314603   8.391   8.500   5.089 -0.2098 -0.0297  0.0873
  934loPI   PO414604   8.547   8.655   5.651 -0.1808  0.1219  0.1313
  934loPI   GL114605   8.377   8.732   6.022 -0.3350  0.0719  0.1731
  934loPI   GL214606   8.522   8.918   6.236  0.0226  0.1590  0.3912
  934loPI   C1A14607   8.255   8.431   6.230  0.1130 -0.0009  0.0116
  934loPI   C2A14608   8.064   8.417   6.726 -0.0775  0.0765  0.3473
  934loPI   C3A14609   7.993   8.386   7.217 -0.0712  0.3680 -0.1617
  934loPI   C4A14610   7.762   8.527   7.506  0.1439 -0.2491  0.0964
  934loPI   C5A14611   7.692   8.793   7.831  0.3139 -0.1266  0.2579
  934loPI   C6A14612   7.308   8.999   7.971 -0.1591  0.1375 -0.3660
  934loPI   C1B14613   8.516   9.203   6.548 -0.0176  0.0121  0.0129
  934loPI   C2B14614   8.637   9.221   6.993  0.0270 -0.1477 -0.0996
  934loPI   C3B14615   8.607   8.886   7.231 -0.2414  0.2282 -0.0401
  934loPI   C4B14616   8.430   8.562   7.485 -0.0664  0.2433 -0.1487
  935loPI    C114617  12.572  13.727   5.127 -0.1235  0.3706 -0.1086
  935loPI    C214618  12.271  13.669   4.870 -0.1263  0.1264 -0.0532
  935loPI    C314619  12.649  13.617   4.750 -0.1229  0.1047 -0.0332
  935loPI   PO414620  12.598  13.529   5.392 -0.0790  0.0458 -0.1572
  935loPI   GL114621  12.797  13.483   5.778 -0.1675 -0.1580 -0.0804
  935loPI   GL214622  12.725  13.202   5.845 -0.1253 -0.4188 -0.2215
  935loPI   C1A14623  12.802  13.682   6.179 -0.1240  0.3367 -0.1671
  935loPI   C2A14624  13.076  13.371   6.507 -0.2034 -0.4220  0.0396
  935loPI   C3A14625  13.115  13.307   6.903  0.0364  0.1814 -0.1882
  935loPI   C4A14626  13.087  13.453   7.325 -0.2430 -0.2772  0.0765
  935loPI   C5A14627  13.264  13.851   7.408  0.1051  0.2631  0.1084
  935loPI   C6A14628  13.329  14.323   7.190 -0.0959  0.1024  0.0259
  935loPI   C1B14629  12.617  13.238   6.248  0.1863 -0.2017 -0.2990
  935loPI   C2B14630  12.666  13.244   6.713 -0.0387 -0.1387 -0.0317
  935loPI   C3B14631  12.639  13.168   7.106 -0.0986 -0.2000  0.3668
  935loPI   C4B14632  12.335  12.994   7.396 -0.1399 -0.2973  0.1821
  936loPI    C114633   1.901  12.538   5.149  0.0921  0.0346 -0.2159
  936loPI    C214634   1.886  12.914   5.015  0.1601  0.0319 -0.2317
  936loPI    C314635   1.631  12.641   4.873  0.0440  0.0952 -0.1467
  936loPI   PO414636   1.855  12.459   5.318  0.3100 -0.1268  0.1453
  936loPI   GL114637   1.720  12.395   5.701 -0.2302  0.3241 -0.1097
  936loPI   GL214638   1.425  12.378   5.811 -0.4672 -0.0502  0.0431
  936loPI   C1A14639   1.824  12.275   6.140  0.0434  0.2938 -0.1088
  936loPI   C2A14640   1.754  12.424   6.594 -0.0521  0.0922 -0.0249
  936loPI   C3A14641   1.845  12.475   7.003 -0.0840 -0.0015 -0.0333
  936loPI   C4A14642   2.055  12.451   7.398  0.5067 -0.0876 -0.1004
  936loPI   C5A14643   2.282  12.721   7.732  0.1802 -0.1373 -0.1339
  936loPI   C6A14644   2.080  13.045   7.996  0.0629 -0.1905  0.0055
  936loPI   C1B14645   1.310  12.368   6.143 -0.0878  0.0743  0.1539
  936loPI   C2B14646   1.282  12.325   6.624 -0.0809  0.0950  0.0717
  936loPI   C3B14647   1.365  12.309   7.101  0.0121  0.0723 -0.1182
  936loPI   C4B14648   1.614  12.452   7.510 -0.0424  0.1768  0.1081
  937loPI    C114649  14.728  17.521   5.260  0.0185  0.2259  0.0915
  937loPI    C214650  14.714  17.394   4.881 -0.2000 -0.1108  0.2079
  937loPI    C314651  14.518  17.726   4.988  0.0335  0.1032 -0.0136
  937loPI   PO414652  14.698  17.279   5.503 -0.0751 -0.2726  0.1901
  937loPI   GL114653  14.751  17.278   5.933 -0.0788 -0.0724  0.2945
  937loPI   GL214654  14.590  16.975   6.026  0.1872  0.1103  0.0716
  937loPI   C1A14655  14.985  17.412   6.227 -0.0467 -0.3102 -0.3271
  937loPI   C2A14656  15.010  17.467   6.721 -0.1434  0.1158 -0.3531
  937loPI   C3A14657  15.136  17.489   7.154  0.0735  0.0734  0.0199
  937loPI   C4A14658  15.273  17.512   7.565 -0.1866  0.1083  0.1372
  937loPI   C5A14659  15.289  17.356   7.939 -0.0717 -0.0730  0.0860
  937loPI   C6A14660  14.994  17.262   8.176  0.2794  0.2946  0.0005
  937loPI   C1B14661  14.781  17.011   6.400 -0.1585  0.1670 -0.2754
  937loPI   C2B14662  14.873  16.963   6.833 -0.3000  0.1096 -0.2064
  937loPI   C3B14663  14.936  16.901   7.348 -0.0032 -0.0370 -0.0290
  937loPI   C4B14664  15.217  16.863   7.703 -0.2295  0.1455 -0.2241
  938loPI    C114665   2.271  17.300   5.619  0.0795  0.0548  0.0014
  938loPI    C214666   2.668  17.258   5.650  0.0793  0.1071  0.0770
  938loPI    C314667   2.508  17.407   5.315  0.1100 -0.0915 -0.0275
  938loPI   PO414668   2.159  17.065   5.747 -0.1293  0.1599 -0.1006
  938loPI   GL114669   2.264  16.761   6.025 -0.0568  0.1083 -0.1283
  938loPI   GL214670   2.578  16.892   6.193 -0.0822  0.0865  0.4239
  938loPI   C1A14671   2.148  16.564   6.424 -0.2990 -0.0002 -0.0956
  938loPI   C2A14672   2.183  16.484   6.841 -0.1031  0.1485 -0.0127
  938loPI   C3A14673   2.203  16.575   7.152 -0.0122  0.1642  0.1522
  938loPI   C4A14674   2.243  16.527   7.564 -0.3313 -0.0402 -0.1631
  938loPI   C5A14675   2.193  16.552   7.965 -0.0107 -0.2261 -0.2468
  938loPI   C6A14676   2.505  16.700   8.365  0.0159  0.3958  0.2061
  938loPI   C1B14677   2.510  16.852   6.646  0.1371  0.0372 -0.1833
  938loPI   C2B14678   2.519  16.936   7.033  0.0626  0.2196  0.2324
  938loPI   C3B14679   2.665  16.702   7.322  0.1175 -0.1919 -0.0323
  938loPI   C4B14680   2.691  16.739   7.750  0.2563  0.2793 -0.4210
  939loPI    C114681   8.856   3.092   5.528 -0.1661  0.0786  0.1316
  939loPI    C214682   9.107   3.403   5.506 -0.1088  0.0311  0.1123
  939loPI    C314683   8.818   3.359   5.233 -0.0732  0.0296  0.0745
  939loPI   PO414684   8.883   3.096   5.804  0.1437  0.5557  0.1300
  939loPI   GL114685   8.948   3.305   6.104  0.1911 -0.0041  0.2039
  939loPI   GL214686   9.271   3.472   6.135 -0.3279 -0.0685 -0.0171
  939loPI   C1A14687   9.109   3.283   6.565 -0.0883  0.0840  0.3032
  939loPI   C2A14688   9.046   3.539   6.787  0.1259 -0.0961  0.3084
  939loPI   C3A14689   8.993   3.725   7.077  0.0026 -0.1787 -0.0637
  939loPI   C4A14690   8.667   4.011   7.246  0.1961  0.1756  0.0445
  939loPI   C5A14691   8.530   4.320   7.386  0.1882  0.0425  0.2303
  939loPI   C6A14692   8.525   4.602   7.756 -0.0269 -0.2495 -0.0757
  939loPI   C1B14693   9.516   3.718   6.397 -0.0562  0.2841  0.1390
  939loPI   C2B14694   9.496   3.757   6.781 -0.0892 -0.0344 -0.1728
  939loPI   C3B14695   9.468   3.619   7.163 -0.0613 -0.0109  0.0853
  939loPI   C4B14696   9.336   3.646   7.558 -0.1770  0.0936  0.3587
  940loPI    C114697   2.179   4.431   5.406  0.0623  0.1917 -0.0433
  940loPI    C214698   2.158   4.655   5.075 -0.0770 -0.1438 -0.2675
  940loPI    C314699   2.219   4.261   5.046 -0.0782 -0.1759  0.1097
  940loPI   PO414700   1.940   4.503   5.507  0.0585  0.2734 -0.2567
  940loPI   GL114701   1.557   4.577   5.637 -0.2018  0.0561 -0.1257
  940loPI   GL214702   1.233   4.446   5.624  0.0560  0.1542  0.1465
  940loPI   C1A14703   1.739   4.651   6.065  0.0496 -0.0859 -0.0925
  940loPI   C2A14704   1.617   4.658   6.425  0.0059 -0.0538 -0.3580
  940loPI   C3A14705   1.686   4.772   6.919  0.1558 -0.0527  0.1476
  940loPI   C4A14706   1.576   4.773   7.284 -0.0665  0.2001  0.1424
  940loPI   C5A14707   1.360   4.731   7.682 -0.1659  0.1636  0.3298
  940loPI   C6A14708   1.238   4.422   7.899 -0.1808 -0.1955 -0.4350
  940loPI   C1B14709   1.232   4.623   6.029  0.1388 -0.0979 -0.1425
  940loPI   C2B14710   1.145   4.662   6.451  0.2967  0.2161 -0.0791
  940loPI   C3B14711   1.242   4.610   6.894 -0.4407 -0.0664 -0.1692
  940loPI   C4B14712   1.170   4.405   7.342  0.1345  0.1258  0.4403
  941loPI    C114713   5.548   9.847   5.009 -0.2113 -0.2137  0.0000
  941loPI    C214714   5.554   9.489   4.831  0.1277 -0.1476 -0.1281
  941loPI    C314715   5.467   9.817   4.618  0.0959 -0.1204 -0.0734
  941loPI   PO414716   5.340   9.836   5.148 -0.0702  0.6185 -0.0523
  941loPI   GL114717   5.382  10.006   5.566 -0.0734 -0.0825  0.0261
  941loPI   GL214718   5.296   9.710   5.637 -0.2663  0.1383  0.1883
  941loPI   C1A14719   5.441  10.037   5.972  0.3203  0.0780  0.0308
  941loPI   C2A14720   5.483  10.085   6.372 -0.1311  0.0775  0.0501
  941loPI   C3A14721   5.368  10.150   6.718 -0.0624  0.3132  0.1144
  941loPI   C4A14722   5.205  10.473   7.066 -0.1818  0.1392 -0.1109
  941loPI   C5A14723   5.357  10.817   7.263  0.1787 -0.1366  0.0284
  941loPI   C6A14724   5.182  11.134   7.518  0.3273 -0.0541 -0.2595
  941loPI   C1B14725   5.200   9.632   6.089  0.2539 -0.2182 -0.0767
  941loPI   C2B14726   5.182   9.652   6.490 -0.0452  0.0389  0.2658
  941loPI   C3B14727   5.073   9.693   6.914 -0.0598 -0.0853  0.1378
  941loPI   C4B14728   5.118   9.870   7.195  0.3069  0.3093  0.4670
  942loPI    C114729  17.940   4.465   4.927  0.1699  0.0141  0.1338
  942loPI    C214730  18.273   4.367   4.728 -0.0137 -0.0013 -0.1713
  942loPI    C314731  17.951   4.496   4.528 -0.1846  0.0364  0.1231
  942loPI   PO414732  17.983   4.380   5.120 -0.2310  0.0343 -0.1676
  942loPI   GL114733  18.036   4.253   5.529  0.0350  0.0774 -0.1549
  942loPI   GL214734  17.702   4.457   5.588  0.0102 -0.0659 -0.0936
  942loPI   C1A14735  18.076   4.106   5.941  0.3050 -0.0537 -0.0369
  942loPI   C2A14736  18.079   4.234   6.304  0.2750 -0.0828  0.1728
  942loPI   C3A14737  18.191   4.265   6.727  0.2395 -0.0768 -0.0843
  942loPI   C4A14738  18.293   4.158   7.148 -0.0959 -0.0944  0.2189
  942loPI   C5A14739  18.361   4.195   7.579  0.0831 -0.0423 -0.1976
  942loPI   C6A14740  18.257   3.980   7.897 -0.3497  0.0114 -0.0402
  942loPI   C1B14741  17.717   4.467   5.989  0.1239  0.2410 -0.3970
  942loPI   C2B14742  17.652   4.567   6.419 -0.1624 -0.2220 -0.0256
  942loPI   C3B14743  17.792   4.557   6.892  0.1676  0.3630  0.0690
  942loPI   C4B14744  17.938   4.539   7.332 -0.3458  0.1340  0.2742
  943loPI    C114745   1.028  12.401   4.893 -0.0760 -0.1325 -0.0776
  943loPI    C214746   0.847  12.427   4.537 -0.0662 -0.1938 -0.0872
  943loPI    C314747   1.233  12.527   4.573 -0.1026 -0.0588 -0.0658
  943loPI   PO414748   0.889  12.471   5.081 -0.0491  0.2655  0.1999
  943loPI   GL114749   0.778  12.535   5.475 -0.0068  0.2919  0.3393
  943loPI   GL214750   0.965  12.241   5.561  0.1151 -0.0833 -0.3279
  943loPI   C1A14751   0.922  12.675   5.818 -0.0115  0.2620  0.3055
  943loPI   C2A14752   0.957  12.651   6.237  0.0596 -0.3432 -0.0048
  943loPI   C3A14753   0.885  12.689   6.690 -0.3096  0.0894  0.2268
  943loPI   C4A14754   0.872  12.677   7.159  0.0812  0.1353 -0.2301
  943loPI   C5A14755   1.061  12.579   7.593 -0.3488 -0.0663  0.1250
  943loPI   C6A14756   1.091  12.661   8.069  0.0112 -0.0582 -0.0814
  943loPI   C1B14757   0.934  12.131   5.938  0.1333 -0.1179 -0.2416
  943loPI   C2B14758   0.872  12.109   6.416 -0.2554 -0.3053  0.1669
  943loPI   C3B14759   0.847  12.181   6.896  0.2583 -0.5571  0.3567
  943loPI   C4B14760   0.830  12.198   7.279 -0.1851  0.3051 -0.1130
  944loPI    C114761   2.528  10.956   5.159  0.1972  0.1245  0.1137
  944loPI    C214762   2.507  11.092   4.784 -0.2350 -0.0799  0.0581
  944loPI    C314763   2.849  10.938   4.921 -0.0709  0.0031 -0.2486
  944loPI   PO414764   2.393  11.095   5.292  0.0285 -0.1243 -0.0257
  944loPI   GL114765   2.415  10.964   5.676  0.0114  0.3475 -0.1839
  944loPI   GL214766   2.070  10.888   5.596 -0.0951  0.2659  0.1659
  944loPI   C1A14767   2.687  11.105   6.001  0.0752  0.0421  0.1893
  944loPI   C2A14768   2.585  11.151   6.464  0.1683 -0.2354  0.1708
  944loPI   C3A14769   2.591  11.301   6.793  0.2404  0.0724  0.0732
  944loPI   C4A14770   2.577  11.240   7.263 -0.1261  0.1052  0.1152
  944loPI   C5A14771   2.877  11.229   7.624 -0.1030  0.1202 -0.0332
  944loPI   C6A14772   2.762  11.044   7.970 -0.4394  0.2550 -0.2402
  944loPI   C1B14773   1.838  10.813   5.905 -0.1117  0.1030  0.2919
  944loPI   C2B14774   1.551  10.980   6.253 -0.4952 -0.0213  0.0786
  944loPI   C3B14775   1.598  11.014   6.678 -0.1096  0.1192  0.0287
  944loPI   C4B14776   1.612  11.024   7.113 -0.1088  0.1290  0.1027
  945loPI    C114777   5.011   3.752   5.476  0.1278 -0.1214  0.0383
  945loPI    C214778   5.300   3.533   5.307 -0.1232 -0.2515 -0.2323
  945loPI    C314779   4.917   3.466   5.213 -0.2292  0.0657 -0.0450
  945loPI   PO414780   5.185   4.035   5.542 -0.0396 -0.1263 -0.4294
  945loPI   GL114781   5.299   4.136   6.000 -0.3190 -0.0054  0.1237
  945loPI   GL214782   5.001   3.956   6.036  0.2009  0.2333 -0.1015
  945loPI   C1A14783   5.125   4.396   6.280 -0.2409 -0.1048  0.1647
  945loPI   C2A14784   4.902   4.386   6.611 -0.1570 -0.0165 -0.0200
  945loPI   C3A14785   4.903   4.329   7.010 -0.0390  0.0316 -0.1916
  945loPI   C4A14786   5.083   4.570   7.405  0.4318 -0.1888  0.3311
  945loPI   C5A14787   5.038   4.666   7.818 -0.3029  0.0460 -0.3161
  945loPI   C6A14788   5.252   5.186   8.002  0.3357 -0.0367 -0.1976
  945loPI   C1B14789   4.810   3.950   6.378 -0.2359 -0.3632  0.1040
  945loPI   C2B14790   4.508   3.958   6.775 -0.1615 -0.2270 -0.0344
  945loPI   C3B14791   4.605   3.966   7.230 -0.2434 -0.2323  0.1309
  945loPI   C4B14792   4.733   4.326   7.636 -0.0664  0.1598  0.4479
  946loPI    C114793  16.271   8.221   5.055 -0.1313  0.0965 -0.1483
  946loPI    C214794  16.392   8.216   4.674 -0.1116  0.1602 -0.1429
  946loPI    C314795  16.168   8.519   4.809  0.0610  0.2475 -0.0490
  946loPI   PO414796  16.501   8.088   5.177 -0.0707 -0.1198  0.0251
  946loPI   GL114797  16.717   8.245   5.551 -0.1349  0.1208 -0.0881
  946loPI   GL214798  16.630   7.954   5.612 -0.0832  0.0213 -0.1609
  946loPI   C1A14799  16.743   8.474   5.984 -0.3158 -0.2935 -0.1866
  946loPI   C2A14800  16.688   8.475   6.427 -0.0865 -0.0527 -0.0588
  946loPI   C3A14801  16.693   8.520   6.881 -0.0862 -0.2090 -0.2810
  946loPI   C4A14802  16.701   8.490   7.304 -0.0611 -0.0724 -0.0326
  946loPI   C5A14803  16.821   8.667   7.577 -0.2039 -0.1128  0.0195
  946loPI   C6A14804  16.863   8.592   8.004 -0.0985 -0.0166 -0.0690
  946loPI   C1B14805  16.564   7.866   5.995  0.1945 -0.0733 -0.1011
  946loPI   C2B14806  16.564   7.993   6.502  0.3434 -0.0864  0.1096
  946loPI   C3B14807  16.642   8.032   6.902  0.0317 -0.0686 -0.1867
  946loPI   C4B14808  16.746   7.942   7.398  0.3103  0.1101  0.1744
  947loPI    C114809  10.855   7.355   5.226 -0.0698 -0.1698 -0.0384
  947loPI    C214810  10.623   7.124   4.996 -0.0299 -0.0594 -0.1916
  947loPI    C314811  10.718   7.494   4.877 -0.1245  0.0515  0.0691
  947loPI   PO414812  11.013   7.206   5.399  0.1036  0.2692  0.0034
  947loPI   GL114813  11.188   6.873   5.620 -0.0628  0.2154  0.1489
  947loPI   GL214814  10.913   6.798   5.676  0.0151 -0.2396  0.1759
  947loPI   C1A14815  11.184   7.132   6.041 -0.0848  0.2299 -0.0846
  947loPI   C2A14816  11.274   7.210   6.414  0.1132  0.0240 -0.0922
  947loPI   C3A14817  11.425   7.214   6.818 -0.1074 -0.2035 -0.1739
  947loPI   C4A14818  11.448   7.054   7.229  0.1227 -0.2832 -0.0799
  947loPI   C5A14819  11.343   6.730   7.482 -0.0278  0.0293 -0.0743
  947loPI   C6A14820  11.729   6.454   7.617 -0.5673  0.1208 -0.2942
  947loPI   C1B14821  10.769   6.952   6.022  0.1600 -0.0936 -0.1052
  947loPI   C2B14822  10.799   7.055   6.441  0.2926  0.2410 -0.0318
  947loPI   C3B14823  10.908   7.085   6.829 -0.0493 -0.1964  0.1418
  947loPI   C4B14824  10.904   7.006   7.251 -0.2003  0.2371 -0.1022
  948loPI    C114825  16.351   6.719   4.949 -0.1237 -0.1435  0.1356
  948loPI    C214826  16.290   6.435   4.674 -0.0611 -0.0846  0.0604
  948loPI    C314827  16.358   6.813   4.560  0.0561 -0.0771  0.1535
  948loPI   PO414828  16.247   6.504   5.152 -0.2374 -0.0429 -0.1635
  948loPI   GL114829  16.315   6.340   5.542  0.0574 -0.1235 -0.1562
  948loPI   GL214830  16.638   6.440   5.600 -0.1425  0.0377  0.0493
  948loPI   C1A14831  16.194   6.514   5.919 -0.3432  0.1770  0.0806
  948loPI   C2A14832  16.259   6.484   6.323 -0.1530  0.1915  0.0234
  948loPI   C3A14833  16.427   6.417   6.771  0.3647 -0.1703 -0.0338
  948loPI   C4A14834  16.451   6.521   7.222  0.0963  0.1389  0.5507
  948loPI   C5A14835  16.545   6.922   7.618 -0.1135  0.0048  0.3852
  948loPI   C6A14836  16.403   7.020   8.045 -0.1492  0.3511 -0.4834
  948loPI   C1B14837  16.734   6.592   6.005  0.0059 -0.1078 -0.0313
  948loPI   C2B14838  16.746   6.723   6.492  0.0303  0.0369 -0.1449
  948loPI   C3B14839  16.891   6.645   6.849  0.3612  0.2930 -0.1647
  948loPI   C4B14840  17.039   6.729   7.289 -0.2960  0.0934  0.0646
  949loPI    C114841  17.278  10.773   4.998 -0.0924  0.0859  0.1561
  949loPI    C214842  17.499  10.631   4.697  0.1535  0.0729  0.3393
  949loPI    C314843  17.108  10.701   4.643  0.0515 -0.5414  0.2036
  949loPI   PO414844  17.353  10.664   5.199 -0.2047  0.1116  0.0006
  949loPI   GL114845  17.472  10.765   5.570 -0.2456  0.3587  0.3052
  949loPI   GL214846  17.728  10.508   5.505  0.0756 -0.0411 -0.0349
  949loPI   C1A14847  17.544  10.719   5.951  0.3880 -0.1357  0.1033
  949loPI   C2A14848  17.533  10.660   6.413 -0.0260 -0.2823 -0.2633
  949loPI   C3A14849  17.606  10.655   6.810  0.1899 -0.0340  0.0940
  949loPI   C4A14850  17.477  10.656   7.258  0.2300 -0.4121 -0.0169
  949loPI   C5A14851  17.179  10.888   7.625 -0.0668  0.0072 -0.1150
  949loPI   C6A14852  17.149  10.972   8.040 -0.3054  0.2388 -0.3006
  949loPI   C1B14853  17.542  10.198   5.722  0.0695  0.0860  0.3071
  949loPI   C2B14854  17.483  10.175   6.156 -0.0379 -0.0323  0.0093
  949loPI   C3B14855  17.522  10.122   6.569  0.2048  0.0793 -0.3137
  949loPI   C4B14856  17.414  10.181   6.996  0.0541  0.0586  0.0115
  950loPI    C114857   7.081   9.817   5.123  0.0350 -0.1338 -0.0027
  950loPI    C214858   7.155   9.993   4.772  0.0518 -0.1268  0.0043
  950loPI    C314859   6.787   9.861   4.856 -0.0408  0.2043  0.1324
  950loPI   PO414860   7.302  10.016   5.298 -0.3737 -0.2582  0.0894
  950loPI   GL114861   7.468  10.381   5.500 -0.1043  0.1220  0.2109
  950loPI   GL214862   7.268  10.299   5.686 -0.2171 -0.1286 -0.1782
  950loPI   C1A14863   7.604  10.527   5.919  0.2275  0.2248  0.0572
  950loPI   C2A14864   7.423  10.764   6.254  0.0957 -0.2354  0.1581
  950loPI   C3A14865   7.190  10.701   6.684 -0.1592 -0.1183 -0.1149
  950loPI   C4A14866   7.177  10.573   7.025 -0.0946  0.2321 -0.0730
  950loPI   C5A14867   7.201  10.457   7.407 -0.0738  0.1336 -0.1023
  950loPI   C6A14868   7.471  10.220   7.585  0.1796 -0.1132 -0.1872
  950loPI   C1B14869   7.319  10.241   6.117  0.1144 -0.0758  0.1816
  950loPI   C2B14870   7.254   9.955   6.429  0.0978  0.0247 -0.2378
  950loPI   C3B14871   7.338   9.670   6.813  0.2821 -0.0989 -0.1213
  950loPI   C4B14872   7.329   9.740   7.353  0.2822  0.3659 -0.1093
  951loPI    C114873   8.548  17.784   5.185  0.0622  0.1757 -0.0740
  951loPI    C214874   8.175  17.829   5.321  0.0106 -0.1372 -0.1067
  951loPI    C314875   8.240  17.773   4.930  0.0910 -0.0948 -0.0995
  951loPI   PO414876   8.687  17.603   5.362 -0.1913 -0.2206  0.3446
  951loPI   GL114877   8.614  17.559   5.716  0.2746  0.0558 -0.0982
  951loPI   GL214878   8.363  17.771   5.777  0.0936  0.1138 -0.0243
  951loPI   C1A14879   8.766  17.418   6.013 -0.0041 -0.3953 -0.2488
  951loPI   C2A14880   8.735  17.214   6.382 -0.0432  0.2632  0.1278
  951loPI   C3A14881   8.783  17.104   6.790 -0.0788 -0.0427  0.3718
  951loPI   C4A14882   8.967  17.023   7.181 -0.0074  0.1567 -0.3709
  951loPI   C5A14883   9.195  16.862   7.511  0.3068 -0.1480 -0.0700
  951loPI   C6A14884   9.542  16.691   7.586 -0.2231  0.1262  0.1295
  951loPI   C1B14885   8.317  17.609   6.174 -0.0400  0.0643  0.0452
  951loPI   C2B14886   8.411  17.585   6.645  0.1850 -0.1490  0.0441
  951loPI   C3B14887   8.423  17.364   7.017  0.0576  0.2505  0.1320
  951loPI   C4B14888   8.596  17.293   7.380  0.2297 -0.0327  0.2041
  952loPI    C114889  16.388  15.900   5.014 -0.1460  0.0965  0.1689
  952loPI    C214890  16.303  15.526   4.901  0.0602  0.0140  0.2809
  952loPI    C314891  16.110  15.835   4.735  0.1258 -0.1222 -0.0565
  952loPI   PO414892  16.577  15.812   5.258  0.1394 -0.5599  0.1656
  952loPI   GL114893  16.660  15.935   5.557  0.0512  0.2520 -0.2767
  952loPI   GL214894  16.315  15.788   5.717 -0.0041 -0.0827 -0.2167
  952loPI   C1A14895  16.817  16.018   5.960  0.3248  0.2049 -0.3223
  952loPI   C2A14896  16.888  15.975   6.411 -0.0729 -0.1438  0.2184
  952loPI   C3A14897  16.809  16.053   6.925 -0.2033 -0.2312 -0.2125
  952loPI   C4A14898  17.046  16.262   7.413 -0.3933  0.1996  0.3814
  952loPI   C5A14899  16.873  16.368   7.896  0.0800 -0.1792  0.1864
  952loPI   C6A14900  16.469  16.599   8.035  0.0838 -0.1552 -0.0633
  952loPI   C1B14901  16.285  15.911   6.135  0.0322  0.0089 -0.0346
  952loPI   C2B14902  16.439  15.871   6.587  0.2015  0.2892  0.2464
  952loPI   C3B14903  16.626  15.635   6.997 -0.0643  0.1052  0.2476
  952loPI   C4B14904  16.973  15.353   7.140 -0.1968 -0.1699  0.0758
  953loPI    C114905  11.427   1.719   6.113  0.1289 -0.0025 -0.1281
  953loPI    C214906  11.696   1.612   5.836  0.0185 -0.1602 -0.1760
  953loPI    C314907  11.811   1.826   6.154  0.1973 -0.2115 -0.2047
  953loPI   PO414908  11.281   1.964   6.036 -0.2529  0.2208  0.4923
  953loPI   GL114909  10.961   2.253   6.259 -0.0425  0.0739  0.2855
  953loPI   GL214910  11.121   2.534   6.248 -0.0234 -0.1491  0.3537
  953loPI   C1A14911  11.013   2.044   6.681 -0.2491 -0.1048 -0.1793
  953loPI   C2A14912  10.948   2.223   7.098  0.2569 -0.2909 -0.2311
  953loPI   C3A14913  11.067   2.393   7.463  0.4404  0.1431  0.1234
  953loPI   C4A14914  11.146   2.570   7.939 -0.0908  0.0585  0.0803
  953loPI   C5A14915  11.329   2.861   8.095 -0.0036 -0.2731  0.0146
  953loPI   C6A14916  11.233   3.276   8.128 -0.1871 -0.2220 -0.1228
  953loPI   C1B14917  11.180   2.549   6.675  0.1815  0.2306  0.1920
  953loPI   C2B14918  11.269   2.742   7.072 -0.0662 -0.0198 -0.0375
  953loPI   C3B14919  11.213   2.905   7.526  0.1242 -0.0672  0.1659
  953loPI   C4B14920  10.927   3.043   7.785  0.1006  0.1992  0.1150
  954loPI    C114921  13.317   9.847   4.930 -0.0334  0.1800  0.0162
  954loPI    C214922  13.095  10.096   5.151 -0.1203  0.1430 -0.0291
  954loPI    C314923  13.346  10.242   4.877 -0.1484  0.1822 -0.0340
  954loPI   PO414924  13.333   9.655   5.129 -0.0500  0.0020  0.0028
  954loPI   GL114925  13.290   9.694   5.511  0.0259  0.0912 -0.1219
  954loPI   GL214926  13.073   9.629   5.748 -0.4174  0.1144  0.0776
  954loPI   C1A14927  13.534   9.829   5.916  0.1188  0.3830 -0.2880
  954loPI   C2A14928  13.721   9.728   6.249 -0.0637 -0.0768  0.0355
  954loPI   C3A14929  14.049   9.580   6.617 -0.0896  0.0276 -0.2553
  954loPI   C4A14930  14.145   9.457   7.011 -0.3680  0.0238 -0.0813
  954loPI   C5A14931  14.130   9.504   7.427  0.0973  0.2457 -0.0242
  954loPI   C6A14932  13.762   9.592   7.634 -0.1570  0.1465  0.1224
  954loPI   C1B14933  13.163   9.633   6.210 -0.0419  0.0979 -0.1010
  954loPI   C2B14934  13.166   9.603   6.754 -0.0319 -0.5234 -0.0199
  954loPI   C3B14935  13.211   9.477   7.251  0.0250 -0.0786 -0.2285
  954loPI   C4B14936  13.326   9.382   7.704  0.0195 -0.1488  0.0054
  955loPI    C114937   7.782   3.654   5.136 -0.0724  0.3111 -0.1043
  955loPI    C214938   7.449   3.716   4.924 -0.1652 -0.2079 -0.1224
  955loPI    C314939   7.791   3.628   4.737 -0.1153 -0.0991 -0.0828
  955loPI   PO414940   7.648   3.583   5.482 -0.1500 -0.0008  0.1403
  955loPI   GL114941   7.485   3.822   5.767 -0.0967  0.2242  0.3248
  955loPI   GL214942   7.378   4.115   5.916  0.2045 -0.0374  0.0818
  955loPI   C1A14943   7.409   3.774   6.212  0.0195 -0.0119 -0.0148
  955loPI   C2A14944   7.523   3.740   6.588 -0.5330 -0.2325 -0.2179
  955loPI   C3A14945   7.345   4.022   6.824 -0.1113 -0.0398 -0.2461
  955loPI   C4A14946   7.171   3.884   7.274  0.2503  0.2491 -0.0179
  955loPI   C5A14947   6.977   3.794   7.691  0.2980  0.0762  0.0822
  955loPI   C6A14948   6.952   3.622   8.084 -0.0489  0.0425  0.0322
  955loPI   C1B14949   7.555   4.210   6.385  0.3184 -0.0763 -0.1931
  955loPI   C2B14950   7.527   4.535   6.597  0.1173  0.0058  0.2187
  955loPI   C3B14951   7.802   4.675   6.805  0.0527  0.0565  0.0745
  955loPI   C4B14952   8.156   4.552   6.954  0.1561  0.2350 -0.1147
  956loPI    C114953   8.191  17.259   5.037 -0.1833  0.3070  0.0156
  956loPI    C214954   7.795  17.215   5.068 -0.1574 -0.0516 -0.1109
  956loPI    C314955   7.952  17.387   4.742 -0.2134  0.2204  0.0022
  956loPI   PO414956   8.245  17.340   5.369 -0.0629  0.1728  0.1506
  956loPI   GL114957   8.316  17.160   5.758 -0.1469  0.2765  0.1101
  956loPI   GL214958   8.025  17.329   5.816  0.1274  0.1438  0.1991
  956loPI   C1A14959   8.283  16.914   6.109 -0.0381 -0.0324 -0.0798
  956loPI   C2A14960   8.276  16.992   6.568  0.0642 -0.1395  0.0428
  956loPI   C3A14961   8.242  16.864   6.986  0.0247 -0.1992 -0.0447
  956loPI   C4A14962   8.358  16.826   7.424  0.0971  0.2404 -0.1777
  956loPI   C5A14963   8.299  17.195   7.754  0.0020  0.2414  0.1453
  956loPI   C6A14964   7.974  17.272   8.097 -0.1813  0.3269 -0.0433
  956loPI   C1B14965   7.925  17.295   6.188  0.1248 -0.0265  0.2861
  956loPI   C2B14966   7.936  17.391   6.587  0.4468 -0.0351  0.1371
  956loPI   C3B14967   7.958  17.302   6.914  0.0265 -0.1788  0.2944
  956loPI   C4B14968   8.008  17.239   7.310 -0.0145 -0.1958 -0.3326
  957loPI    C114969   0.836   5.116   5.120  0.0366 -0.0301 -0.0148
  957loPI    C214970   0.539   4.984   4.888 -0.0882 -0.0842  0.1739
  957loPI    C314971   0.879   4.776   4.914  0.0510  0.0866 -0.2071
  957loPI   PO414972   0.752   5.149   5.293 -0.2075 -0.2492  0.0823
  957loPI   GL114973   0.516   4.871   5.536  0.0347 -0.0932 -0.0908
  957loPI   GL214974   0.709   4.698   5.390  0.3045  0.4098 -0.0461
  957loPI   C1A14975   0.345   4.770   5.936 -0.4671  0.3995  0.0980
  957loPI   C2A14976   0.244   4.866   6.375 -0.0942 -0.1227 -0.0990
  957loPI   C3A14977   0.346   4.943   6.769  0.0577  0.0015  0.2008
  957loPI   C4A14978   0.360   4.987   7.226 -0.1071  0.2454 -0.1474
  957loPI   C5A14979   0.427   5.158   7.577 -0.3102  0.2367  0.2276
  957loPI   C6A14980   0.354   5.574   7.821  0.0947 -0.0127 -0.1008
  957loPI   C1B14981   0.790   4.496   5.769 -0.3034 -0.0279  0.0846
  957loPI   C2B14982   0.708   4.513   6.211  0.1982  0.2382  0.1961
  957loPI   C3B14983   0.671   4.587   6.687 -0.0964  0.2560  0.1431
  957loPI   C4B14984   0.798   4.549   7.069  0.1453 -0.2099  0.0163
  958loPI    C114985   2.716   2.789   5.152 -0.3998 -0.0894 -0.0227
  958loPI    C214986   2.955   2.471   5.197 -0.2172  0.0594  0.0762
  958loPI    C314987   2.832   2.580   4.832  0.0011  0.0783  0.0070
  958loPI   PO414988   2.554   2.822   5.409  0.1782  0.0332 -0.0451
  958loPI   GL114989   2.353   2.756   5.861  0.3528  0.1846  0.1476
  958loPI   GL214990   2.213   2.515   5.859  0.0265  0.3144 -0.1719
  958loPI   C1A14991   2.496   2.866   6.278  0.0028 -0.0175 -0.2790
  958loPI   C2A14992   2.653   3.022   6.705  0.0990 -0.0824  0.0401
  958loPI   C3A14993   2.557   3.069   7.081 -0.0707  0.1073 -0.0162
  958loPI   C4A14994   2.534   3.255   7.562  0.1656  0.1034 -0.0722
  958loPI   C5A14995   2.214   3.292   7.954 -0.1390 -0.1825 -0.0362
  958loPI   C6A14996   1.805   3.059   8.003 -0.0577  0.0125  0.0802
  958loPI   C1B14997   2.285   2.430   6.310 -0.0828  0.1858 -0.0565
  958loPI   C2B14998   2.502   2.568   6.769 -0.0423  0.0410  0.0448
  958loPI   C3B14999   2.528   2.652   7.270 -0.0575  0.0085 -0.3350
  958loPI   C4B15000   2.598   2.798   7.680 -0.0906 -0.4729  0.0781
  959loPI    C115001   3.373  16.511   5.572 -0.1872  0.0212  0.0651
  959loPI    C215002   3.237  16.735   5.270 -0.0663 -0.0348 -0.0312
  959loPI    C315003   3.000  16.460   5.437 -0.0427 -0.2008 -0.2642
  959loPI   PO415004   3.518  16.692   5.664  0.2077 -0.1369 -0.1613
  959loPI   GL115005   3.786  16.878   5.972 -0.2332  0.1207  0.0545
  959loPI   GL215006   3.937  16.628   6.150  0.1950  0.1556  0.3125
  959loPI   C1A15007   3.820  17.041   6.445  0.1437 -0.0764 -0.2590
  959loPI   C2A15008   3.972  17.178   6.876  0.2460 -0.1474 -0.4949
  959loPI   C3A15009   3.873  17.017   7.282  0.1821  0.0999 -0.1280
  959loPI   C4A15010   3.631  17.033   7.677  0.1255 -0.2325  0.3582
  959loPI   C5A15011   3.400  16.789   8.060 -0.0629  0.1344  0.1439
  959loPI   C6A15012   3.395  16.417   8.311  0.2304 -0.0882 -0.0261
  959loPI   C1B15013   3.970  16.366   6.509  0.0998 -0.0140  0.0655
  959loPI   C2B15014   4.024  16.347   6.885  0.0023 -0.2707 -0.0065
  959loPI   C3B15015   4.034  16.470   7.291 -0.0830  0.4387  0.2939
  959loPI   C4B15016   3.978  16.655   7.702 -0.0230  0.0983 -0.2912
  960loPI    C115017   2.904  10.422   4.800 -0.0146  0.0927  0.0634
  960loPI    C215018   2.594  10.197   4.687 -0.0401  0.1846 -0.0522
  960loPI    C315019   2.959  10.121   4.543 -0.0438  0.2000 -0.0698
  960loPI   PO415020   2.849  10.468   5.129 -0.0375 -0.2840  0.3749
  960loPI   GL115021   2.531  10.214   5.408 -0.0494 -0.1535 -0.2029
  960loPI   GL215022   2.440  10.508   5.511  0.0846  0.0764 -0.2349
  960loPI   C1A15023   2.527  10.135   5.846  0.1443 -0.1242 -0.1607
  960loPI   C2A15024   2.532  10.236   6.239  0.0011 -0.0873  0.2086
  960loPI   C3A15025   2.347  10.206   6.626 -0.0820 -0.0134  0.0524
  960loPI   C4A15026   2.274  10.308   7.045  0.1122  0.0969  0.0846
  960loPI   C5A15027   2.111  10.284   7.497  0.2331 -0.0826 -0.0267
  960loPI   C6A15028   2.347  10.056   7.845 -0.0499  0.1380 -0.0588
  960loPI   C1B15029   2.297  10.668   6.036 -0.0692  0.1394  0.1023
  960loPI   C2B15030   1.993  10.574   6.421  0.2616  0.3884 -0.1771
  960loPI   C3B15031   1.939  10.663   6.853  0.0382 -0.2073 -0.0966
  960loPI   C4B15032   1.889  10.671   7.325 -0.2209  0.0041  0.0240
  961loPI    C115033   5.047  16.173   5.093 -0.0553  0.0258 -0.0351
  961loPI    C215034   5.172  16.548   5.035 -0.0919  0.0395 -0.0257
  961loPI    C315035   5.424  16.243   4.982 -0.0437  0.0693  0.0312
  961loPI   PO415036   4.829  16.218   5.326  0.1810  0.2067 -0.1209
  961loPI   GL115037   4.810  16.194   5.774  0.1901  0.1253  0.1266
  961loPI   GL215038   5.065  16.342   6.060  0.0615  0.1338  0.1205
  961loPI   C1A15039   4.693  15.989   6.177  0.1679 -0.2352  0.1183
  961loPI   C2A15040   4.576  16.077   6.566 -0.2037 -0.1402  0.1992
  961loPI   C3A15041   4.501  16.090   6.991 -0.1646 -0.2862  0.0661
  961loPI   C4A15042   4.433  16.201   7.436  0.0735  0.2444 -0.1279
  961loPI   C5A15043   4.199  16.197   7.900  0.2786  0.0328  0.1905
  961loPI   C6A15044   3.918  16.300   8.219 -0.2844  0.0562 -0.0311
  961loPI   C1B15045   5.030  16.250   6.472  0.0628 -0.0391  0.2417
  961loPI   C2B15046   5.092  16.273   6.870 -0.1452 -0.0910 -0.3228
  961loPI   C3B15047   5.047  16.103   7.284  0.3642  0.3413 -0.1964
  961loPI   C4B15048   5.180  15.660   7.363 -0.0887  0.1527 -0.0309
  962loPI    C115049  17.205  10.221   4.701 -0.1553 -0.1195 -0.0318
  962loPI    C215050  17.561  10.095   4.572 -0.0442 -0.0638  0.2157
  962loPI    C315051  17.320  10.296   4.325  0.1811  0.0757  0.1057
  962loPI   PO415052  17.230  10.242   4.910 -0.2138 -0.1860  0.0261
  962loPI   GL115053  17.116  10.267   5.386 -0.0842  0.1158  0.0760
  962loPI   GL215054  17.136   9.949   5.372  0.0420 -0.1608 -0.0614
  962loPI   C1A15055  17.081  10.440   5.785 -0.1088  0.2449 -0.1030
  962loPI   C2A15056  17.098  10.423   6.223 -0.2318  0.0937 -0.2657
  962loPI   C3A15057  17.148  10.427   6.593 -0.2856 -0.1042 -0.2155
  962loPI   C4A15058  17.059  10.504   7.009  0.1347  0.0264  0.1458
  962loPI   C5A15059  17.013  10.482   7.451  0.1095 -0.0593  0.0769
  962loPI   C6A15060  16.934  10.089   7.706  0.0286 -0.1210 -0.1815
  962loPI   C1B15061  17.159   9.880   5.837  0.0263  0.3674 -0.2310
  962loPI   C2B15062  17.041   9.953   6.259  0.0294 -0.1191  0.1672
  962loPI   C3B15063  17.035   9.930   6.710  0.1043  0.0134 -0.3096
  962loPI   C4B15064  17.009   9.988   7.162 -0.0467  0.0654 -0.0779
  963loPI    C115065   4.773   1.505   5.184 -0.1076  0.2905 -0.0706
  963loPI    C215066   4.887   1.781   4.918  0.2455 -0.0306 -0.2622
  963loPI    C315067   5.053   1.418   4.913  0.0503 -0.1345  0.2196
  963loPI   PO415068   4.573   1.726   5.340 -0.1012  0.0807  0.0569
  963loPI   GL115069   4.377   1.576   5.803  0.2081  0.0479 -0.1338
  963loPI   GL215070   4.046   1.868   5.846  0.2381 -0.3438  0.2720
  963loPI   C1A15071   4.288   1.763   6.256 -0.1855  0.0498  0.0534
  963loPI   C2A15072   4.265   1.755   6.744  0.3171  0.1739  0.2302
  963loPI   C3A15073   4.247   1.785   7.157  0.2129 -0.1189 -0.1752
  963loPI   C4A15074   4.259   1.830   7.645  0.1324 -0.1799 -0.2957
  963loPI   C5A15075   4.258   1.871   8.083 -0.1192 -0.0964  0.2130
  963loPI   C6A15076   4.452   2.103   8.397 -0.0919 -0.1921 -0.0602
  963loPI   C1B15077   3.768   1.764   6.167 -0.4349 -0.1038 -0.1396
  963loPI   C2B15078   3.771   1.651   6.536  0.2360  0.1350 -0.0668
  963loPI   C3B15079   3.767   1.571   7.001  0.1112 -0.1427 -0.1350
  963loPI   C4B15080   3.832   1.526   7.337 -0.2506 -0.1569 -0.0313
  964loPI    C115081   8.552  14.131   5.288 -0.1020  0.1775  0.0018
  964loPI    C215082   8.246  14.374   5.202 -0.1184  0.2266  0.1953
  964loPI    C315083   8.303  14.041   4.988 -0.3170  0.2088  0.1684
  964loPI   PO415084   8.493  14.051   5.533 -0.4476  0.1029 -0.3472
  964loPI   GL115085   8.169  13.958   5.766  0.1303  0.0650  0.1788
  964loPI   GL215086   8.188  13.823   6.031 -0.0893 -0.0218  0.0521
  964loPI   C1A15087   8.366  14.165   6.247  0.3127 -0.0809 -0.2148
  964loPI   C2A15088   8.349  13.995   6.616 -0.1025  0.0932 -0.3515
  964loPI   C3A15089   8.382  13.601   6.895 -0.3031  0.1395 -0.4845
  964loPI   C4A15090   8.349  13.444   7.282  0.3609 -0.4349  0.3446
  964loPI   C5A15091   8.602  13.516   7.703 -0.2302 -0.1138  0.0601
  964loPI   C6A15092   8.490  13.326   8.091 -0.1294 -0.0352  0.1896
  964loPI   C1B15093   8.377  13.497   6.406 -0.1077 -0.0204  0.1551
  964loPI   C2B15094   8.354  13.030   6.591 -0.1273  0.1638 -0.1427
  964loPI   C3B15095   8.185  12.785   6.915  0.1864 -0.2433 -0.1468
  964loPI   C4B15096   8.129  12.773   7.306  0.2261 -0.0845  0.1762
  965loPI    C115097  10.750   5.830   4.943  0.0829 -0.3628  0.0266
  965loPI    C215098  10.672   5.459   4.814 -0.1699 -0.2372 -0.1909
  965loPI    C315099  10.404   5.751   4.759  0.0819  0.0085 -0.1396
  965loPI   PO415100  10.888   5.850   5.178 -0.1350  0.1411 -0.1043
  965loPI   GL115101  11.078   5.873   5.639  0.4433  0.0750  0.1067
  965loPI   GL215102  10.843   5.898   5.666 -0.2342 -0.0295  0.1793
  965loPI   C1A15103  11.140   5.728   6.043  0.1172  0.0509  0.0540
  965loPI   C2A15104  11.089   5.770   6.500 -0.1489  0.4584 -0.0592
  965loPI   C3A15105  11.020   5.718   6.998  0.3072  0.0046  0.0578
  965loPI   C4A15106  11.103   5.824   7.419 -0.1631  0.1329 -0.1220
  965loPI   C5A15107  10.999   5.877   7.879  0.0229  0.0130  0.3218
  965loPI   C6A15108  11.207   5.870   8.234  0.0594 -0.3821 -0.1477
  965loPI   C1B15109  10.894   6.304   5.779  0.4986 -0.1178 -0.3981
  965loPI   C2B15110  11.104   6.568   6.089  0.0557 -0.1413 -0.0493
  965loPI   C3B15111  11.122   6.680   6.514 -0.0304 -0.1880 -0.1651
  965loPI   C4B15112  11.268   6.669   6.865  0.2081 -0.0247  0.1558
  966loPI    C115113   0.468   2.815   4.966 -0.2059  0.1386 -0.0056
  966loPI    C215114   0.518   3.065   4.657 -0.0707  0.1032 -0.0132
  966loPI    C315115   0.515   2.669   4.597 -0.0667  0.0968  0.0279
  966loPI   PO415116   0.599   3.009   5.147  0.4250 -0.0713 -0.1554
  966loPI   GL115117   0.579   3.025   5.612 -0.2064 -0.1772 -0.5174
  966loPI   GL215118   0.297   3.001   5.907 -0.0399 -0.3205  0.1317
  966loPI   C1A15119   0.824   3.112   6.007  0.2823 -0.1121  0.2557
  966loPI   C2A15120   0.833   3.121   6.452  0.1449 -0.0885  0.1321
  966loPI   C3A15121   0.829   3.112   6.830 -0.0716 -0.0388  0.0172
  966loPI   C4A15122   1.102   2.903   7.089 -0.2571 -0.0677  0.3614
  966loPI   C5A15123   1.369   2.615   7.255 -0.0229 -0.3685 -0.0340
  966loPI   C6A15124   1.670   2.495   7.206 -0.1421 -0.1147  0.1808
  966loPI   C1B15125   0.293   2.947   6.319  0.2156  0.1026  0.0293
  966loPI   C2B15126   0.372   3.014   6.760 -0.3056 -0.3087 -0.0827
  966loPI   C3B15127   0.395   2.953   7.125 -0.0416 -0.3083 -0.2274
  966loPI   C4B15128   0.597   3.044   7.403  0.0783 -0.1433  0.1964
  967loPI    C115129   0.018  12.473   4.855  0.0028 -0.4615  0.1475
  967loPI    C215130  -0.204  12.194   4.675 -0.2597  0.0036 -0.2735
  967loPI    C315131   0.186  12.224   4.591 -0.2305 -0.2279 -0.2290
  967loPI   PO415132  -0.104  12.421   5.127 -0.0288 -0.1642  0.0974
  967loPI   GL115133  -0.055  12.314   5.428 -0.2573  0.2138 -0.2615
  967loPI   GL215134  -0.234  12.412   5.694 -0.2192 -0.4623  0.0868
  967loPI   C1A15135   0.290  12.480   5.774 -0.1263 -0.2935 -0.2010
  967loPI   C2A15136   0.454  12.570   6.187  0.1401 -0.2990 -0.3536
  967loPI   C3A15137   0.461  12.458   6.643  0.3022  0.1072 -0.0436
  967loPI   C4A15138   0.400  12.515   7.088 -0.0398  0.2743 -0.0142
  967loPI   C5A15139   0.468  12.469   7.471 -0.1007  0.0440 -0.2790
  967loPI   C6A15140   0.645  12.210   7.835  0.0956  0.1492  0.1049
  967loPI   C1B15141  -0.091  12.273   6.001 -0.1161 -0.1928 -0.0358
  967loPI   C2B15142   0.073  12.322   6.411  0.2193 -0.2472  0.1109
  967loPI   C3B15143  -0.029  12.381   6.838  0.4177 -0.0897  0.1776
  967loPI   C4B15144  -0.103  12.343   7.248 -0.0086  0.1139 -0.1662
  968loPI    C115145   0.029  16.205   5.213 -0.1067 -0.1817 -0.0413
  968loPI    C215146   0.111  16.183   4.822  0.0556 -0.0505 -0.0157
  968loPI    C315147  -0.233  16.345   4.945  0.1446  0.2026 -0.0937
  968loPI   PO415148   0.052  15.964   5.329 -0.0067  0.2526 -0.2460
  968loPI   GL115149   0.065  15.846   5.796  0.0356  0.0422  0.0970
  968loPI   GL215150  -0.172  15.596   6.013  0.0055 -0.0103  0.0491
  968loPI   C1A15151  -0.120  16.034   6.109 -0.0997 -0.2964 -0.0735
  968loPI   C2A15152  -0.169  15.944   6.618  0.1694 -0.3901 -0.1479
  968loPI   C3A15153  -0.080  15.698   6.926  0.2075 -0.2224 -0.1731
  968loPI   C4A15154  -0.129  15.553   7.263  0.0703  0.1836  0.3222
  968loPI   C5A15155  -0.097  15.798   7.644 -0.1719 -0.3128  0.0222
  968loPI   C6A15156  -0.434  16.073   7.815 -0.0873  0.0327  0.2028
  968loPI   C1B15157  -0.358  15.545   6.397  0.1557  0.4747 -0.0637
  968loPI   C2B15158  -0.589  15.643   6.839 -0.0709 -0.0567  0.1016
  968loPI   C3B15159  -0.664  15.794   7.178 -0.1608  0.1932  0.1572
  968loPI   C4B15160  -0.859  16.058   7.572 -0.1448 -0.1910  0.1526
  969loPI    C115161   8.353   9.411   4.946  0.0948  0.0989 -0.0016
  969loPI    C215162   8.506   9.184   4.654  0.0286  0.0725 -0.0160
  969loPI    C315163   8.113   9.257   4.666  0.0056 -0.0746  0.1679
  969loPI   PO415164   8.401   9.334   5.119  0.0455  0.0465 -0.0771
  969loPI   GL115165   8.571   9.175   5.437  0.0038 -0.3350  0.0289
  969loPI   GL215166   8.801   9.038   5.814 -0.1392 -0.1015 -0.2171
  969loPI   C1A15167   8.372   9.302   5.766  0.3479 -0.0375 -0.1400
  969loPI   C2A15168   8.180   9.235   6.172 -0.0907  0.3506 -0.2806
  969loPI   C3A15169   8.036   9.467   6.631 -0.1874  0.2004 -0.0562
  969loPI   C4A15170   8.138   9.387   7.024 -0.2539 -0.1448  0.0781
  969loPI   C5A15171   8.308   9.318   7.441  0.0493 -0.1733  0.1496
  969loPI   C6A15172   8.533   9.091   7.646  0.0236 -0.2193  0.1582
  969loPI   C1B15173   9.023   9.230   6.228  0.0275  0.0564 -0.1172
  969loPI   C2B15174   9.122   9.283   6.712 -0.0836  0.0222 -0.0045
  969loPI   C3B15175   9.153   9.226   7.168 -0.3634  0.1443  0.1347
  969loPI   C4B15176   8.921   9.321   7.495  0.0393 -0.1925 -0.1164
  970loPI    C115177  14.729  18.329   5.074 -0.1651 -0.3543  0.0978
  970loPI    C215178  14.707  18.120   4.733  0.0415 -0.0306 -0.1191
  970loPI    C315179  14.487  18.451   4.779 -0.0695 -0.1340  0.1090
  970loPI   PO415180  14.727  18.117   5.248 -0.3246  0.1105 -0.3490
  970loPI   GL115181  14.835  17.893   5.604  0.1410 -0.0775 -0.1953
  970loPI   GL215182  14.876  18.205   5.754 -0.1130 -0.0176 -0.3358
  970loPI   C1A15183  14.665  17.775   5.986 -0.0256  0.6346  0.0461
  970loPI   C2A15184  14.746  17.832   6.413 -0.0790  0.1741  0.0332
  970loPI   C3A15185  14.698  17.826   6.848 -0.4779 -0.2763 -0.0425
  970loPI   C4A15186  14.774  17.820   7.275 -0.2307  0.0475 -0.0853
  970loPI   C5A15187  14.902  17.809   7.674 -0.0541  0.0557  0.0216
  970loPI   C6A15188  14.719  17.727   7.987  0.0482  0.2979 -0.1904
  970loPI   C1B15189  14.842  18.214   6.182  0.1748 -0.1211 -0.0436
  970loPI   C2B15190  14.832  18.270   6.593 -0.2237 -0.1104 -0.2352
  970loPI   C3B15191  14.832  18.240   7.060  0.1264 -0.2780 -0.0544
  970loPI   C4B15192  14.969  18.321   7.470 -0.0957 -0.3196  0.1601
  971loPI    C115193  10.961   0.951   5.676  0.0451 -0.1223  0.1232
  971loPI    C215194  11.110   0.803   5.336  0.2634  0.0396  0.1459
  971loPI    C315195  11.054   1.197   5.375 -0.0551 -0.0069  0.1856
  971loPI   PO415196  11.053   0.877   5.894  0.1926  0.1262  0.0170
  971loPI   GL115197  10.974   1.023   6.280  0.2287  0.0054  0.0697
  971loPI   GL215198  11.207   1.279   6.282 -0.2064  0.4020 -0.3153
  971loPI   C1A15199  11.435   0.831   6.490  0.1124 -0.2838 -0.0327
  971loPI   C2A15200  11.710   0.803   6.852 -0.0997  0.4629 -0.0235
  971loPI   C3A15201  11.834   0.551   7.205  0.1611  0.1876 -0.2412
  971loPI   C4A15202  11.862   0.469   7.620  0.2023 -0.0624  0.1660
  971loPI   C5A15203  11.830   0.653   8.032  0.1141  0.0516 -0.2932
  971loPI   C6A15204  11.752   1.100   8.248 -0.2185 -0.1021  0.2166
  971loPI   C1B15205  11.066   1.168   6.740 -0.0401 -0.3641 -0.2938
  971loPI   C2B15206  11.075   1.090   7.190  0.2208 -0.0838 -0.1497
  971loPI   C3B15207  10.986   1.031   7.673  0.3537 -0.0392 -0.3650
  971loPI   C4B15208  10.810   1.178   8.083 -0.1233 -0.0976 -0.1017
  972loPI    C115209  11.941   7.051   4.989  0.0564 -0.1045  0.1803
  972loPI    C215210  11.642   6.812   4.872  0.0556  0.0142 -0.0661
  972loPI    C315211  11.978   6.654   5.020 -0.0169 -0.1316 -0.0555
  972loPI   PO415212  11.888   7.376   5.201  0.0391 -0.1030 -0.2783
  972loPI   GL115213  11.641   7.543   5.534 -0.1964  0.1949 -0.3040
  972loPI   GL215214  11.471   7.338   5.706  0.2237 -0.1947  0.0240
  972loPI   C1A15215  11.823   7.808   5.851  0.0310 -0.0296 -0.0589
  972loPI   C2A15216  11.856   7.809   6.206 -0.1518 -0.5028  0.1524
  972loPI   C3A15217  11.989   7.865   6.558 -0.2047 -0.0955  0.3030
  972loPI   C4A15218  12.023   7.835   7.015  0.0771  0.0594  0.0347
  972loPI   C5A15219  11.974   7.827   7.501  0.0647 -0.2421 -0.0144
  972loPI   C6A15220  11.814   7.493   7.821 -0.2400  0.0157  0.1288
  972loPI   C1B15221  11.668   7.261   6.097  0.0256 -0.4528  0.0763
  972loPI   C2B15222  11.763   7.398   6.519  0.1146 -0.0525  0.0395
  972loPI   C3B15223  11.854   7.375   6.946  0.1287 -0.0957  0.0379
  972loPI   C4B15224  11.872   7.333   7.354 -0.0806 -0.1914 -0.2033
  973loPI    C115225   8.058  16.848   5.457  0.1445  0.0484  0.0103
  973loPI    C215226   8.006  16.452   5.439 -0.0101  0.0763 -0.1950
  973loPI    C315227   8.141  16.650   5.119  0.0137  0.1976 -0.1105
  973loPI   PO415228   7.774  16.979   5.519 -0.0389 -0.0925 -0.0607
  973loPI   GL115229   7.702  16.816   5.897 -0.2645  0.1421  0.3375
  973loPI   GL215230   7.977  16.636   5.904 -0.0124  0.0197  0.2609
  973loPI   C1A15231   7.802  16.826   6.353 -0.2839 -0.0313  0.0130
  973loPI   C2A15232   8.023  16.560   6.589  0.1111  0.0069  0.3412
  973loPI   C3A15233   8.166  16.427   6.836  0.2558  0.1007  0.2502
  973loPI   C4A15234   8.133  16.367   7.299 -0.1060 -0.0791  0.0919
  973loPI   C5A15235   8.043  16.526   7.765 -0.1318 -0.0766  0.0138
  973loPI   C6A15236   8.284  16.868   8.104  0.3693  0.5775  0.0892
  973loPI   C1B15237   8.266  16.417   6.190 -0.2186 -0.1551  0.1762
  973loPI   C2B15238   8.520  16.137   6.386  0.0474 -0.0865 -0.0954
  973loPI   C3B15239   8.556  16.040   6.803 -0.1697 -0.0975  0.2778
  973loPI   C4B15240   8.424  15.920   7.199  0.1961 -0.2519  0.0564
  974loPI    C115241   6.765   9.351   5.123 -0.1656  0.0756 -0.0632
  974loPI    C215242   6.451   9.371   4.876 -0.1012 -0.1728 -0.1682
  974loPI    C315243   6.798   9.220   4.746  0.0856  0.1658 -0.0741
  974loPI   PO415244   6.679   9.557   5.393  0.0131 -0.0494  0.0698
  974loPI   GL115245   6.644   9.454   5.779 -0.2287 -0.1586  0.0515
  974loPI   GL215246   6.749   9.196   6.042  0.1972  0.1340 -0.2747
  974loPI   C1A15247   6.746   9.697   6.142 -0.0752  0.0432  0.2646
  974loPI   C2A15248   6.810   9.802   6.620  0.0731 -0.1007  0.0029
  974loPI   C3A15249   6.606   9.714   7.036  0.0293 -0.1275 -0.0191
  974loPI   C4A15250   6.531   9.741   7.479  0.0453  0.0683  0.0796
  974loPI   C5A15251   6.511  10.171   7.815  0.0711 -0.2205 -0.0271
  974loPI   C6A15252   6.486  10.342   8.223  0.2185 -0.0234 -0.0588
  974loPI   C1B15253   6.540   9.279   6.410  0.0759 -0.2019  0.1191
  974loPI   C2B15254   6.349   9.336   6.826  0.0567  0.0207 -0.1332
  974loPI   C3B15255   6.275   9.369   7.281  0.3097  0.0048 -0.1231
  974loPI   C4B15256   6.394   9.297   7.701 -0.0004 -0.2214 -0.4646
  975loPI    C115257   1.922   7.213   4.849 -0.0662 -0.0551 -0.1271
  975loPI    C215258   1.927   7.377   4.484  0.0314 -0.1364 -0.1630
  975loPI    C315259   1.664   7.089   4.570 -0.1137  0.0097 -0.1120
  975loPI   PO415260   2.013   7.372   5.003 -0.1036 -0.2872  0.2859
  975loPI   GL115261   2.129   7.346   5.400 -0.1131 -0.0135  0.1136
  975loPI   GL215262   1.884   7.142   5.436 -0.1422  0.0378  0.1581
  975loPI   C1A15263   2.256   7.202   5.777 -0.2358  0.0832  0.0295
  975loPI   C2A15264   2.334   7.359   6.252 -0.0731 -0.0883 -0.0932
  975loPI   C3A15265   2.266   7.563   6.552 -0.1414 -0.1052 -0.1285
  975loPI   C4A15266   2.131   7.537   6.979 -0.0886  0.0998  0.3999
  975loPI   C5A15267   2.127   7.519   7.454 -0.1301  0.0960 -0.2989
  975loPI   C6A15268   2.465   7.615   7.759 -0.0399  0.1717  0.1173
  975loPI   C1B15269   1.792   7.251   5.763  0.0242 -0.0034  0.0865
  975loPI   C2B15270   1.808   7.209   6.249 -0.0551 -0.2708  0.0252
  975loPI   C3B15271   1.937   7.159   6.670  0.1499  0.1679  0.0166
  975loPI   C4B15272   1.866   7.166   7.168 -0.1279  0.0500  0.1658
  976loPI    C115273  16.791  16.510   5.341  0.0027  0.0210  0.0610
  976loPI    C215274  16.784  16.223   5.062 -0.0164  0.0621  0.0189
  976loPI    C315275  17.080  16.234   5.331  0.0870  0.1134 -0.0962
  976loPI   PO415276  16.611  16.728   5.214  0.2843 -0.1407 -0.0402
  976loPI   GL115277  16.396  16.844   5.613 -0.1134 -0.1811  0.1035
  976loPI   GL215278  16.432  17.151   5.646 -0.1702  0.0687  0.2456
  976loPI   C1A15279  16.752  16.819   5.857 -0.1588 -0.0286  0.0449
  976loPI   C2A15280  16.711  16.862   6.333 -0.0792 -0.0637  0.0238
  976loPI   C3A15281  16.932  17.029   6.744  0.1677  0.1563 -0.1697
  976loPI   C4A15282  16.963  17.107   7.146  0.2410 -0.1271 -0.1534
  976loPI   C5A15283  17.024  17.269   7.528  0.0911  0.1638  0.3413
  976loPI   C6A15284  17.269  17.674   7.627 -0.2752  0.0087 -0.0182
  976loPI   C1B15285  16.359  17.160   6.139  0.2189 -0.1217  0.1665
  976loPI   C2B15286  16.441  17.224   6.550 -0.1522  0.0826 -0.0109
  976loPI   C3B15287  16.545  17.321   6.932  0.2174  0.1603  0.2190
  976loPI   C4B15288  16.539  17.427   7.418 -0.2851  0.1786 -0.0341
  977loPI    C115289   4.013  16.795   5.541  0.0722  0.0732  0.0093
  977loPI    C215290   3.921  16.437   5.694 -0.1755  0.2349  0.2479
  977loPI    C315291   3.902  16.496   5.299 -0.1108 -0.0201  0.2051
  977loPI   PO415292   4.255  16.842   5.725  0.0101  0.2211 -0.0452
  977loPI   GL115293   4.559  17.107   6.058 -0.2174 -0.0021 -0.2558
  977loPI   GL215294   4.296  16.935   6.196 -0.1762  0.1546  0.0302
  977loPI   C1A15295   4.724  17.111   6.507 -0.2731  0.1299  0.0985
  977loPI   C2A15296   4.774  17.074   6.938  0.2533 -0.1673  0.2738
  977loPI   C3A15297   4.795  17.073   7.367  0.2983  0.1992 -0.0602
  977loPI   C4A15298   4.835  16.860   7.709  0.0452  0.1751 -0.1095
  977loPI   C5A15299   4.561  17.027   8.162  0.1838  0.0660  0.0998
  977loPI   C6A15300   4.163  17.164   8.421 -0.1957  0.0993 -0.2287
  977loPI   C1B15301   4.266  16.811   6.586  0.3112 -0.4233 -0.0349
  977loPI   C2B15302   4.268  16.858   7.029  0.1097  0.0523  0.2106
  977loPI   C3B15303   4.376  16.887   7.475  0.0447 -0.0867  0.2331
  977loPI   C4B15304   4.075  17.107   7.784  0.5292 -0.0468  0.1299
  978loPI    C115305  12.100   8.857   5.239  0.1943  0.0764  0.0884
  978loPI    C215306  11.974   8.938   4.869 -0.0290 -0.1774  0.1051
  978loPI    C315307  12.328   8.761   4.925  0.2291  0.3015  0.0436
  978loPI   PO415308  11.965   9.034   5.382  0.1720 -0.2005 -0.3123
  978loPI   GL115309  12.081   9.289   5.763  0.1145  0.1414  0.1228
  978loPI   GL215310  12.359   9.064   5.761 -0.1397 -0.0886  0.1658
  978loPI   C1A15311  11.788   9.211   6.127  0.2206  0.0660 -0.1459
  978loPI   C2A15312  11.647   8.871   6.395 -0.0103 -0.0351  0.3319
  978loPI   C3A15313  11.710   8.662   6.761 -0.1505  0.1441  0.1632
  978loPI   C4A15314  11.731   8.691   7.197  0.0481 -0.4109 -0.0165
  978loPI   C5A15315  12.025   8.726   7.459  0.0584 -0.0108  0.0396
  978loPI   C6A15316  12.229   8.995   7.765 -0.0446 -0.0206  0.1578
  978loPI   C1B15317  12.525   8.992   6.212 -0.0145  0.2764  0.1117
  978loPI   C2B15318  12.645   8.990   6.597  0.2739  0.3780  0.1428
  978loPI   C3B15319  12.705   9.072   6.990  0.2039  0.0143  0.1755
  978loPI   C4B15320  12.551   8.867   7.397  0.3453  0.3169 -0.2059
  979loPI    C115321   1.041  13.908   5.257 -0.1753  0.1915  0.1213
  979loPI    C215322   1.159  14.253   5.093 -0.1358  0.1618  0.0872
  979loPI    C315323   0.840  14.061   4.947  0.0037  0.0461 -0.0687
  979loPI   PO415324   1.261  13.875   5.532  0.0090 -0.4835  0.2202
  979loPI   GL115325   1.453  14.085   5.896 -0.1639  0.3532  0.2106
  979loPI   GL215326   1.294  13.735   5.980  0.1004  0.1032 -0.1639
  979loPI   C1A15327   1.317  14.180   6.290  0.2222  0.2049 -0.1215
  979loPI   C2A15328   1.261  14.210   6.757 -0.0727  0.0993  0.1309
  979loPI   C3A15329   1.251  14.094   7.142 -0.2347 -0.0450  0.0105
  979loPI   C4A15330   1.406  14.085   7.446 -0.1066 -0.2051 -0.1285
  979loPI   C5A15331   1.519  13.913   7.811  0.1689 -0.0470  0.0014
  979loPI   C6A15332   1.261  13.605   8.049  0.4509 -0.1398 -0.3579
  979loPI   C1B15333   1.221  13.673   6.341  0.0084  0.0339  0.0075
  979loPI   C2B15334   1.265  13.702   6.732 -0.0036 -0.0209  0.2916
  979loPI   C3B15335   1.102  13.630   7.100 -0.0265 -0.0355 -0.0270
  979loPI   C4B15336   1.091  13.659   7.590  0.2495 -0.2514 -0.0204
  980loPI    C115337   7.560   1.548   5.426  0.0638  0.0369 -0.0656
  980loPI    C215338   7.452   1.220   5.224  0.1376  0.0243 -0.0853
  980loPI    C315339   7.375   1.582   5.074 -0.2876  0.0228  0.1136
  980loPI   PO415340   7.431   1.543   5.701  0.0328  0.1079  0.0740
  980loPI   GL115341   7.452   1.408   6.159 -0.1970 -0.1900  0.1342
  980loPI   GL215342   7.824   1.545   6.084 -0.1992  0.2174 -0.1048
  980loPI   C1A15343   7.517   1.437   6.617  0.1438  0.0940 -0.0252
  980loPI   C2A15344   7.438   1.163   6.977 -0.0550  0.1470  0.2042
  980loPI   C3A15345   7.571   1.075   7.373  0.1790  0.1197 -0.2469
  980loPI   C4A15346   7.452   0.980   7.769 -0.0976  0.0607  0.1853
  980loPI   C5A15347   7.173   0.894   8.069 -0.2686  0.1048 -0.0803
  980loPI   C6A15348   6.935   1.413   8.046 -0.2543 -0.1334 -0.1222
  980loPI   C1B15349   8.044   1.796   6.378  0.3313  0.0922  0.0474
  980loPI   C2B15350   7.948   1.792   6.732  0.1073  0.2385 -0.0676
  980loPI   C3B15351   8.030   1.771   7.132 -0.0714  0.1695  0.3294
  980loPI   C4B15352   8.176   1.776   7.589 -0.0094 -0.2326 -0.3311
  981loPI    C115353   9.115   2.491   5.484 -0.0315 -0.0669  0.1863
  981loPI    C215354   8.881   2.171   5.534 -0.0622 -0.0742  0.0048
  981loPI    C315355   9.076   2.224   5.189 -0.0123  0.0736  0.0548
  981loPI   PO415356   9.104   2.638   5.674  0.0605 -0.1047 -0.2423
  981loPI   GL115357   9.175   2.828   6.121 -0.0916 -0.1523  0.0815
  981loPI   GL215358   9.346   2.576   6.212  0.2854 -0.1947 -0.0840
  981loPI   C1A15359   9.509   3.081   6.275 -0.0142 -0.0114 -0.2581
  981loPI   C2A15360   9.628   2.906   6.662  0.0082 -0.0266 -0.0151
  981loPI   C3A15361   9.555   3.069   7.003  0.0416  0.0608  0.0737
  981loPI   C4A15362   9.594   3.239   7.488 -0.0567  0.2182  0.0435
  981loPI   C5A15363   9.425   3.023   7.942  0.2808  0.1344  0.2926
  981loPI   C6A15364   8.970   3.037   8.173  0.1656 -0.1107  0.0358
  981loPI   C1B15365   9.201   2.676   6.637  0.3543  0.1118  0.0234
  981loPI   C2B15366   9.238   2.618   7.021  0.0227  0.0097  0.0416
  981loPI   C3B15367   9.275   2.843   7.374  0.2402 -0.1055 -0.1764
  981loPI   C4B15368   9.125   3.288   7.306 -0.1096 -0.1753 -0.0602
  982loPI    C115369  11.119   3.516   5.567 -0.1368 -0.1982 -0.0356
  982loPI    C215370  11.323   3.704   5.279  0.0673 -0.1505  0.1381
  982loPI    C315371  11.046   3.432   5.182 -0.0409  0.0431 -0.1080
  982loPI   PO415372  11.220   3.681   5.783  0.1141  0.2115 -0.3391
  982loPI   GL115373  11.412   3.680   6.188 -0.2694  0.2616  0.3671
  982loPI   GL215374  11.474   3.973   6.149  0.2977  0.0547  0.3998
  982loPI   C1A15375  11.076   3.709   6.540  0.1459  0.0413  0.1538
  982loPI   C2A15376  10.745   3.708   6.802  0.2572 -0.1563 -0.1437
  982loPI   C3A15377  10.477   3.355   6.974 -0.3684 -0.1694  0.2624
  982loPI   C4A15378  10.055   3.117   7.206 -0.3038  0.1597 -0.0385
  982loPI   C5A15379   9.890   2.874   7.479 -0.2190  0.2755 -0.0700
  982loPI   C6A15380   9.926   2.565   7.660 -0.0683 -0.0164  0.0880
  982loPI   C1B15381  11.421   4.114   6.595 -0.2877 -0.4215 -0.0212
  982loPI   C2B15382  11.224   4.395   6.950  0.1441 -0.2583  0.0731
  982loPI   C3B15383  11.184   4.459   7.427  0.2985  0.1333  0.0171
  982loPI   C4B15384  10.957   4.503   7.798  0.1501 -0.1700  0.1146
  983loPI    C115385  12.973   8.186   4.855 -0.0635 -0.1123  0.0389
  983loPI    C215386  13.084   7.955   4.547 -0.0814 -0.0484 -0.0157
  983loPI    C315387  12.725   7.905   4.717 -0.0990 -0.0377 -0.0499
  983loPI   PO415388  13.160   8.055   5.125  0.1892  0.0964 -0.1177
  983loPI   GL115389  13.112   8.190   5.460 -0.2440 -0.0687 -0.0754
  983loPI   GL215390  12.808   8.231   5.565 -0.0929  0.0310  0.1580
  983loPI   C1A15391  13.343   8.391   5.811  0.3899 -0.1242  0.0610
  983loPI   C2A15392  13.393   8.316   6.273  0.2489  0.2888 -0.0268
  983loPI   C3A15393  13.505   8.327   6.714 -0.2065  0.1811  0.0631
  983loPI   C4A15394  13.448   8.358   7.118  0.0703  0.3420 -0.0342
  983loPI   C5A15395  13.361   8.328   7.628 -0.0275  0.3153  0.1051
  983loPI   C6A15396  13.084   8.629   7.833  0.1662  0.0986 -0.0446
  983loPI   C1B15397  12.749   8.171   5.917 -0.0544  0.1349 -0.1693
  983loPI   C2B15398  12.853   8.200   6.308  0.0348  0.0489  0.2067
  983loPI   C3B15399  12.911   8.100   6.775 -0.0659 -0.2572  0.0666
  983loPI   C4B15400  12.985   8.078   7.172 -0.1975  0.0207  0.1437
  984loPI    C115401  16.254  11.273   5.154  0.0278 -0.0584 -0.0685
  984loPI    C215402  16.480  11.402   4.850 -0.1975 -0.0723 -0.2443
  984loPI    C315403  16.127  11.575   4.925  0.1048  0.3186  0.3691
  984loPI   PO415404  16.526  11.237   5.328  0.0254 -0.2222 -0.2564
  984loPI   GL115405  16.637  11.165   5.707 -0.4162  0.0736  0.1108
  984loPI   GL215406  16.955  11.362   5.708  0.2006 -0.2001 -0.1881
  984loPI   C1A15407  16.832  11.345   6.175  0.1103 -0.2464  0.0725
  984loPI   C2A15408  16.833  11.397   6.710  0.0052 -0.0165 -0.2058
  984loPI   C3A15409  16.736  11.321   7.088 -0.2141 -0.0822 -0.2671
  984loPI   C4A15410  16.696  11.334   7.576  0.1485  0.1416 -0.1454
  984loPI   C5A15411  16.680  11.323   8.041 -0.2145  0.0310 -0.0167
  984loPI   C6A15412  16.931  11.142   8.435  0.1099  0.5197  0.0190
  984loPI   C1B15413  17.120  11.036   5.939  0.1704  0.0472 -0.0083
  984loPI   C2B15414  17.250  11.051   6.295  0.0281  0.1593 -0.2975
  984loPI   C3B15415  17.194  11.000   6.637  0.0134 -0.0960  0.0537
  984loPI   C4B15416  17.101  10.980   7.112  0.2295 -0.0666  0.2447
  985loPI    C115417   5.332   7.547   4.993 -0.0067 -0.3244 -0.1209
  985loPI    C215418   5.706   7.408   5.024  0.0320 -0.1479  0.2548
  985loPI    C315419   5.555   7.497   4.665  0.4224 -0.0264  0.1163
  985loPI   PO415420   5.312   7.554   5.312  0.0418 -0.0501 -0.2251
  985loPI   GL115421   5.469   7.755   5.698 -0.0257  0.1658  0.2320
  985loPI   GL215422   5.674   8.047   5.722  0.4747 -0.0898 -0.0982
  985loPI   C1A15423   5.561   7.504   6.014  0.0154 -0.2784 -0.1430
  985loPI   C2A15424   5.824   7.453   6.385 -0.2362 -0.0273  0.1672
  985loPI   C3A15425   5.811   7.225   6.716  0.1576  0.1909  0.1565
  985loPI   C4A15426   5.960   7.306   7.068 -0.0841 -0.0761  0.3323
  985loPI   C5A15427   5.985   7.496   7.432  0.0224 -0.1902  0.2044
  985loPI   C6A15428   5.718   7.432   7.852  0.0269 -0.2281  0.3510
  985loPI   C1B15429   5.674   7.950   6.177  0.1524  0.2064 -0.3673
  985loPI   C2B15430   5.503   7.770   6.621  0.0212 -0.2799 -0.2856
  985loPI   C3B15431   5.372   7.936   7.082  0.0591  0.0521 -0.1052
  985loPI   C4B15432   5.246   7.820   7.431  0.1681 -0.1108 -0.0394
  986loPI    C115433   4.061  16.093   5.061  0.0817  0.0265  0.2554
  986loPI    C215434   4.311  16.401   5.013 -0.0457  0.0871 -0.0453
  986loPI    C315435   3.959  16.399   4.824 -0.1532 -0.1287  0.1526
  986loPI   PO415436   4.124  16.001   5.363 -0.0270  0.2009 -0.1211
  986loPI   GL115437   4.026  15.785   5.778  0.2372  0.0551  0.1824
  986loPI   GL215438   3.821  15.884   5.992  0.3832 -0.1110 -0.1603
  986loPI   C1A15439   4.034  15.483   6.117  0.0588 -0.2198  0.2575
  986loPI   C2A15440   3.949  15.394   6.605  0.1263 -0.1990 -0.0452
  986loPI   C3A15441   3.895  15.439   7.071 -0.0613 -0.0519  0.2790
  986loPI   C4A15442   3.779  15.537   7.517 -0.4070  0.0572  0.2221
  986loPI   C5A15443   3.591  15.456   7.901  0.0208 -0.1829 -0.2352
  986loPI   C6A15444   3.586  15.453   8.274  0.1391  0.1634  0.1505
  986loPI   C1B15445   3.548  15.712   6.359  0.0737 -0.0126 -0.2455
  986loPI   C2B15446   3.597  15.765   6.744 -0.1048 -0.0414  0.2154
  986loPI   C3B15447   3.836  16.000   7.136 -0.0347 -0.0362  0.3283
  986loPI   C4B15448   3.740  16.137   7.675 -0.1083 -0.0675 -0.1975
  987loPI    C115449   3.696  17.174   5.566 -0.1065 -0.0639 -0.2057
  987loPI    C215450   3.483  17.441   5.358  0.0842  0.1199 -0.1686
  987loPI    C315451   3.602  17.101   5.184 -0.1462  0.0636 -0.2208
  987loPI   PO415452   3.835  17.311   5.702 -0.0753  0.0635  0.2619
  987loPI   GL115453   4.026  17.410   6.133 -0.2547  0.1726  0.0321
  987loPI   GL215454   3.860  17.527   6.248  0.3033 -0.0214  0.0691
  987loPI   C1A15455   4.343  17.392   6.414  0.1104  0.2935 -0.2434
  987loPI   C2A15456   4.392  17.366   6.778 -0.1407  0.2495 -0.3705
  987loPI   C3A15457   4.355  17.364   7.239  0.1832  0.2598 -0.0356
  987loPI   C4A15458   4.505  17.299   7.718  0.0204  0.0428 -0.0800
  987loPI   C5A15459   4.658  17.537   8.103 -0.0175  0.3748  0.1241
  987loPI   C6A15460   5.027  17.726   8.343  0.0083  0.2034 -0.2439
  987loPI   C1B15461   3.925  17.624   6.676 -0.2202  0.2455 -0.0366
  987loPI   C2B15462   3.856  17.550   7.148 -0.4821 -0.0574 -0.0144
  987loPI   C3B15463   4.083  17.593   7.552  0.3218 -0.0093  0.0167
  987loPI   C4B15464   4.174  17.567   7.983  0.0662  0.0756  0.3430
  988loPI    C115465   7.083   1.052   5.463  0.2281  0.1120 -0.1786
  988loPI    C215466   6.964   1.326   5.197  0.1167  0.1640 -0.0762
  988loPI    C315467   7.020   0.947   5.082 -0.2187  0.1223 -0.1130
  988loPI   PO415468   7.009   1.133   5.664 -0.2111 -0.1321  0.0377
  988loPI   GL115469   6.707   0.935   5.878  0.0454 -0.1309  0.0237
  988loPI   GL215470   6.713   0.637   5.826 -0.0733  0.0785 -0.1650
  988loPI   C1A15471   6.650   1.235   6.229  0.1304 -0.1972 -0.0441
  988loPI   C2A15472   6.605   1.227   6.749  0.0474  0.0875  0.1702
  988loPI   C3A15473   6.545   1.331   7.169 -0.0454 -0.0761 -0.1856
  988loPI   C4A15474   6.637   1.610   7.619  0.2254  0.2689  0.0901
  988loPI   C5A15475   7.023   1.820   7.822  0.3136 -0.0648  0.0310
  988loPI   C6A15476   7.357   2.059   7.887  0.1677  0.0925 -0.0393
  988loPI   C1B15477   6.801   0.482   6.222 -0.3549 -0.0465 -0.2507
  988loPI   C2B15478   6.820   0.453   6.756 -0.3450 -0.0258  0.1274
  988loPI   C3B15479   6.841   0.508   7.184  0.0568 -0.3606 -0.1886
  988loPI   C4B15480   6.830   0.602   7.597  0.3621  0.3727  0.3296
  989loPI    C115481   3.100   3.768   5.437 -0.0904  0.2815  0.0673
  989loPI    C215482   3.221   3.428   5.264 -0.1919  0.1589  0.2339
  989loPI    C315483   3.478   3.644   5.480 -0.2426 -0.0579  0.5178
  989loPI   PO415484   2.879   3.727   5.564 -0.0511 -0.3024 -0.0330
  989loPI   GL115485   2.554   3.545   5.832  0.0638 -0.0442  0.1403
  989loPI   GL215486   2.468   3.246   5.850  0.2045 -0.1711  0.1095
  989loPI   C1A15487   2.768   3.372   6.316  0.0119  0.0704  0.2402
  989loPI   C2A15488   2.826   3.566   6.670  0.2637  0.0482 -0.2239
  989loPI   C3A15489   2.517   3.613   7.068  0.1102 -0.4008  0.0803
  989loPI   C4A15490   2.275   3.672   7.517  0.2347  0.2600  0.1756
  989loPI   C5A15491   2.019   4.043   7.785  0.1189  0.0106 -0.3689
  989loPI   C6A15492   2.276   4.208   8.181  0.0132 -0.0490 -0.0041
  989loPI   C1B15493   2.225   3.356   6.201  0.0410  0.1211  0.0313
  989loPI   C2B15494   2.309   3.408   6.684  0.1722  0.1789  0.0139
  989loPI   C3B15495   2.113   3.365   7.184 -0.0167  0.2611  0.0100
  989loPI   C4B15496   1.849   3.369   7.566  0.1975  0.1234 -0.0788
  990loPI    C115497  18.199   5.648   4.704  0.1960  0.1512  0.1705
  990loPI    C215498  18.550   5.825   4.629  0.0627  0.2678 -0.1973
  990loPI    C315499  18.217   5.955   4.449 -0.1079 -0.0871 -0.1478
  990loPI   PO415500  18.320   5.367   4.680  0.1472  0.0226 -0.1201
  990loPI   GL115501  18.350   5.230   5.075 -0.0759  0.0216 -0.0899
  990loPI   GL215502  18.525   5.112   5.261  0.0953 -0.1775 -0.1869
  990loPI   C1A15503  18.234   5.529   5.495  0.0226  0.0297 -0.0952
  990loPI   C2A15504  18.297   5.634   5.918 -0.1174  0.0954  0.0563
  990loPI   C3A15505  18.433   5.697   6.285  0.2495 -0.1542  0.1779
  990loPI   C4A15506  18.402   5.760   6.725  0.1876 -0.1617 -0.0248
  990loPI   C5A15507  18.522   5.726   7.164 -0.0256  0.2872  0.0436
  990loPI   C6A15508  18.418   5.848   7.568 -0.0191 -0.0915 -0.0288
  990loPI   C1B15509  18.457   5.103   5.752 -0.3291 -0.0373  0.4585
  990loPI   C2B15510  18.328   5.235   6.205 -0.3884  0.2665 -0.0069
  990loPI   C3B15511  18.321   5.206   6.638 -0.0041 -0.0248 -0.0752
  990loPI   C4B15512  18.393   5.297   6.923 -0.0469 -0.1460  0.2601
  991loPI    C115513   6.945  14.616   5.227  0.0518  0.2217  0.1291
  991loPI    C215514   6.832  14.237   5.168 -0.0080  0.2848 -0.1795
  991loPI    C315515   7.082  14.414   4.911  0.0910  0.4278  0.0122
  991loPI   PO415516   7.080  14.612   5.534 -0.0295 -0.1335  0.1978
  991loPI   GL115517   7.001  14.664   5.888  0.1620 -0.0665 -0.2768
  991loPI   GL215518   6.923  14.359   6.126 -0.2907 -0.0598 -0.3150
  991loPI   C1A15519   6.991  14.938   6.365  0.3591  0.1115 -0.1253
  991loPI   C2A15520   6.839  15.050   6.729  0.0552 -0.1491 -0.1101
  991loPI   C3A15521   6.962  15.298   7.115 -0.2253 -0.0178 -0.1440
  991loPI   C4A15522   7.098  15.075   7.541 -0.2074  0.2932  0.1168
  991loPI   C5A15523   7.105  14.875   7.933  0.0625 -0.2087 -0.2786
  991loPI   C6A15524   7.147  14.968   8.319  0.0744 -0.1678  0.1159
  991loPI   C1B15525   6.880  14.447   6.540  0.0399  0.2048 -0.3794
  991loPI   C2B15526   6.785  14.551   6.985  0.1143  0.0305 -0.0838
  991loPI   C3B15527   6.722  14.796   7.297 -0.0875 -0.2347 -0.2736
  991loPI   C4B15528   6.604  14.421   7.615 -0.0729 -0.0973 -0.1318
  992loPI    C115529   8.298   5.204   5.297 -0.1890  0.0738 -0.0772
  992loPI    C215530   8.559   5.377   5.047  0.0805 -0.1030  0.0759
  992loPI    C315531   8.292   5.114   4.907  0.0514  0.0007 -0.0658
  992loPI   PO415532   8.388   5.026   5.481 -0.1721 -0.2523  0.2862
  992loPI   GL115533   8.413   4.794   5.832  0.0270  0.3135 -0.1708
  992loPI   GL215534   8.034   4.898   5.827  0.1176 -0.0037  0.0679
  992loPI   C1A15535   8.275   4.760   6.273 -0.0497  0.1078 -0.0814
  992loPI   C2A15536   8.296   4.961   6.631 -0.0044  0.2487 -0.3031
  992loPI   C3A15537   8.151   5.063   7.024 -0.2142  0.1336  0.1977
  992loPI   C4A15538   8.063   5.268   7.448 -0.2839 -0.2782 -0.3100
  992loPI   C5A15539   7.839   5.372   7.874  0.3452 -0.1092 -0.2520
  992loPI   C6A15540   7.779   5.664   8.223 -0.0928 -0.0525 -0.1871
  992loPI   C1B15541   7.670   5.091   5.918 -0.2759  0.0992 -0.4928
  992loPI   C2B15542   7.514   5.508   6.166 -0.1688 -0.4769 -0.1090
  992loPI   C3B15543   7.711   5.602   6.531  0.0124 -0.2759  0.0846
  992loPI   C4B15544   7.830   5.644   6.992 -0.0024  0.2166  0.3691
  993loPI    C115545  12.250  16.726   5.637 -0.2295 -0.3302  0.2895
  993loPI    C215546  12.076  16.784   5.992 -0.2111 -0.1760  0.2744
  993loPI    C315547  12.449  16.912   5.930 -0.1411 -0.3813  0.2624
  993loPI   PO415548  12.225  16.475   5.600 -0.0922 -0.0357 -0.0918
  993loPI   GL115549  12.150  16.268   6.040 -0.1767 -0.1034 -0.0763
  993loPI   GL215550  11.805  16.237   6.062  0.0098  0.1234  0.2564
  993loPI   C1A15551  12.173  16.096   6.369 -0.0632 -0.1522 -0.3112
  993loPI   C2A15552  12.531  15.758   6.594 -0.0274  0.1963  0.3735
  993loPI   C3A15553  12.929  15.817   6.839 -0.0876  0.0093  0.1963
  993loPI   C4A15554  13.157  15.622   7.177 -0.2428  0.3094 -0.2215
  993loPI   C5A15555  13.333  15.407   7.569  0.3023 -0.0318 -0.0370
  993loPI   C6A15556  13.403  15.002   7.885  0.2018 -0.2179 -0.1217
  993loPI   C1B15557  11.865  16.497   6.404 -0.1378  0.0257  0.2476
  993loPI   C2B15558  12.289  16.623   6.435 -0.1825 -0.0169  0.0449
  993loPI   C3B15559  12.580  16.651   6.759 -0.0541  0.0936  0.3146
  993loPI   C4B15560  12.931  16.393   6.818  0.3181  0.0491  0.0654
  994loPI    C115561  15.491   3.743   5.339 -0.1064 -0.1612 -0.0998
  994loPI    C215562  15.629   4.010   5.076  0.1464 -0.1682  0.0217
  994loPI    C315563  15.236   3.980   5.143  0.1247  0.3053  0.1455
  994loPI   PO415564  15.685   3.513   5.251  0.1175  0.1205  0.1956
  994loPI   GL115565  15.675   3.248   5.598 -0.0271  0.1836 -0.0349
  994loPI   GL215566  15.394   3.363   5.592  0.2181  0.0120  0.0085
  994loPI   C1A15567  15.901   3.080   5.906 -0.0658  0.1428 -0.3559
  994loPI   C2A15568  15.970   3.082   6.407  0.1854  0.3444 -0.3158
  994loPI   C3A15569  16.033   3.012   6.753  0.3553  0.2524 -0.0264
  994loPI   C4A15570  16.092   3.153   7.111  0.2498  0.0745 -0.0577
  994loPI   C5A15571  15.894   3.414   7.292  0.1219  0.1004 -0.1695
  994loPI   C6A15572  15.878   3.617   7.653 -0.2093 -0.2905 -0.4592
  994loPI   C1B15573  15.103   3.294   5.956 -0.1578 -0.2338 -0.0663
  994loPI   C2B15574  15.058   3.280   6.357 -0.0230 -0.0104  0.0643
  994loPI   C3B15575  15.095   3.135   6.742 -0.1589  0.3958 -0.0293
  994loPI   C4B15576  15.216   3.253   7.087  0.3285  0.1004  0.1122
  995loPI    C115577   2.401   5.099   5.231  0.1002 -0.0954 -0.0896
  995loPI    C215578   2.352   5.413   4.988  0.1179  0.1002  0.1561
  995loPI    C315579   2.295   5.042   4.849  0.1433  0.2078 -0.1492
  995loPI   PO415580   2.634   5.168   5.381  0.0523 -0.1026  0.0907
  995loPI   GL115581   2.807   5.045   5.701 -0.2042 -0.3439  0.0288
  995loPI   GL215582   2.766   4.806   5.909  0.2940  0.1895  0.0052
  995loPI   C1A15583   2.884   5.348   6.031  0.0139  0.0599 -0.1112
  995loPI   C2A15584   3.010   5.521   6.418 -0.0221  0.0329  0.0796
  995loPI   C3A15585   2.963   5.593   6.851  0.1368 -0.0357  0.3524
  995loPI   C4A15586   3.063   5.853   7.214 -0.0834 -0.3342 -0.0404
  995loPI   C5A15587   3.077   5.846   7.689  0.0502  0.2332 -0.0679
  995loPI   C6A15588   3.175   5.940   8.085 -0.2101  0.1354  0.0656
  995loPI   C1B15589   2.772   4.882   6.285  0.2199  0.2116  0.0359
  995loPI   C2B15590   2.755   5.133   6.685 -0.1728 -0.0804 -0.2963
  995loPI   C3B15591   2.754   5.182   7.037  0.0285 -0.1599  0.2158
  995loPI   C4B15592   2.763   5.459   7.329 -0.1287  0.1182 -0.1531
  996loPI    C115593   4.704  14.363   5.351 -0.2092 -0.0677 -0.0051
  996loPI    C215594   4.933  14.541   5.075  0.0649 -0.0311  0.2407
  996loPI    C315595   4.699  14.233   4.973  0.1096  0.0268 -0.0447
  996loPI   PO415596   4.915  14.351   5.556  0.4261  0.1619 -0.0720
  996loPI   GL115597   4.912  14.398   6.012  0.2236 -0.0953  0.0022
  996loPI   GL215598   4.776  14.685   6.101 -0.1023 -0.0918 -0.0487
  996loPI   C1A15599   5.061  14.346   6.357  0.1528 -0.2070  0.1180
  996loPI   C2A15600   4.915  14.356   6.847 -0.1294  0.1682  0.3032
  996loPI   C3A15601   4.941  14.348   7.191  0.0619 -0.0695  0.2045
  996loPI   C4A15602   4.718  14.368   7.579 -0.1668  0.0453  0.2160
  996loPI   C5A15603   4.240  14.293   7.700 -0.0593 -0.2235  0.0340
  996loPI   C6A15604   3.873  14.591   7.647 -0.2437  0.0111 -0.0803
  996loPI   C1B15605   4.781  14.740   6.464 -0.0115 -0.0325 -0.0484
  996loPI   C2B15606   4.774  14.840   6.882  0.1334  0.2980  0.1493
  996loPI   C3B15607   4.521  14.762   7.129 -0.0917  0.2085  0.1146
  996loPI   C4B15608   4.390  14.791   7.563  0.0673 -0.2675  0.1783
  997loPI    C115609   2.087   0.562   5.152 -0.0696  0.1571 -0.1972
  997loPI    C215610   1.871   0.444   4.837  0.0042 -0.0987 -0.1542
  997loPI    C315611   2.254   0.549   4.788 -0.0520  0.0943 -0.1871
  997loPI   PO415612   1.925   0.488   5.412 -0.3362 -0.0310 -0.0598
  997loPI   GL115613   1.988   0.233   5.820  0.0849  0.0160  0.1453
  997loPI   GL215614   1.778   0.577   5.911  0.1688 -0.0010 -0.1604
  997loPI   C1A15615   2.027   0.195   6.231  0.2685 -0.2399 -0.1619
  997loPI   C2A15616   1.978   0.147   6.749 -0.3390  0.0388 -0.1314
  997loPI   C3A15617   1.683   0.233   7.078 -0.0511 -0.4177  0.0695
  997loPI   C4A15618   1.605   0.430   7.435 -0.2722  0.0157  0.0233
  997loPI   C5A15619   1.680   0.506   7.843  0.1282 -0.0883  0.1683
  997loPI   C6A15620   1.790   0.416   8.213 -0.2599 -0.0400  0.2064
  997loPI   C1B15621   1.735   0.599   6.413 -0.1007  0.0910  0.1256
  997loPI   C2B15622   1.886   0.674   6.797 -0.1980 -0.0353  0.0381
  997loPI   C3B15623   2.099   0.510   7.253  0.2489  0.2440  0.0099
  997loPI   C4B15624   2.450   0.751   7.372  0.1528 -0.1168  0.1489
  998loPI    C115625  14.872   9.669   5.211 -0.1487  0.0143 -0.0595
  998loPI    C215626  14.640   9.835   4.930 -0.0268 -0.0215 -0.1819
  998loPI    C315627  14.910   9.557   4.828 -0.0495 -0.1052 -0.0153
  998loPI   PO415628  14.965   9.860   5.346 -0.0285 -0.0166 -0.0265
  998loPI   GL115629  15.007  10.293   5.551 -0.3160  0.3265 -0.1988
  998loPI   GL215630  14.861  10.550   5.552 -0.0627  0.1576  0.1042
  998loPI   C1A15631  15.242  10.297   5.937 -0.0091  0.1528 -0.1143
  998loPI   C2A15632  15.291  10.375   6.263  0.1352 -0.0989  0.0141
  998loPI   C3A15633  15.281  10.413   6.684 -0.2426 -0.0919 -0.0783
  998loPI   C4A15634  15.221  10.414   7.054  0.1055 -0.1620  0.0787
  998loPI   C5A15635  15.257  10.373   7.515 -0.1650 -0.1458  0.2497
  998loPI   C6A15636  14.955  10.400   7.764 -0.1178  0.0010 -0.1915
  998loPI   C1B15637  14.835  10.678   5.979 -0.0669  0.2520 -0.0510
  998loPI   C2B15638  14.896  10.747   6.418  0.0151  0.2687 -0.2506
  998loPI   C3B15639  14.840  10.700   6.868 -0.2957 -0.0007  0.0374
  998loPI   C4B15640  14.819  10.690   7.252 -0.0197 -0.1282 -0.0141
  999loPI    C115641  10.280  17.378   5.678 -0.1515  0.1362  0.1668
  999loPI    C215642  10.114  17.741   5.649 -0.1763  0.1085 -0.0514
  999loPI    C315643  10.502  17.690   5.563 -0.2413  0.0326 -0.3099
  999loPI   PO415644  10.090  17.280   5.932  0.1477 -0.0984 -0.0596
  999loPI   GL115645  10.049  16.936   6.323  0.0349  0.1822  0.0877
  999loPI   GL215646  10.196  16.618   6.140  0.1794  0.4829 -0.4912
  999loPI   C1A15647  10.290  17.111   6.684  0.1271 -0.2867  0.0963
  999loPI   C2A15648  10.215  17.371   7.045 -0.1504 -0.0641 -0.4213
  999loPI   C3A15649  10.033  17.469   7.428 -0.2417 -0.0318  0.0507
  999loPI   C4A15650  10.104  17.399   7.844  0.0992  0.2110 -0.1734
  999loPI   C5A15651  10.291  17.641   8.169  0.0955  0.0612 -0.0264
  999loPI   C6A15652  10.582  17.591   8.505 -0.0745 -0.1672  0.0538
  999loPI   C1B15653  10.147  16.503   6.611 -0.0809  0.2484 -0.1844
  999loPI   C2B15654  10.062  16.418   7.039 -0.0718 -0.1571 -0.1945
  999loPI   C3B15655   9.987  16.459   7.496 -0.0557  0.1379  0.0459
  999loPI   C4B15656   9.633  16.174   7.720  0.1801 -0.2945 -0.0727
 1000loPI    C115657   1.911  13.337   5.194 -0.0639 -0.0396  0.0413
 1000loPI    C215658   1.926  13.483   4.822 -0.1903 -0.3840 -0.1031
 1000loPI    C315659   1.576  13.369   4.979 -0.1480 -0.1740  0.1505
 1000loPI   PO415660   2.000  13.487   5.336 -0.1564  0.0261  0.1882
 1000loPI   GL115661   2.099  13.349   5.806 -0.3090 -0.1934 -0.2022
 1000loPI   GL215662   2.444  13.302   5.553 -0.1138 -0.0603  0.1028
 1000loPI   C1A15663   2.131  13.133   6.084  0.0021  0.2371 -0.1889
 1000loPI   C2A15664   1.888  12.967   6.470 -0.0505  0.4525  0.1774
 1000loPI   C3A15665   1.982  12.985   6.816 -0.1736 -0.0553  0.2772
 1000loPI   C4A15666   2.050  12.969   7.214  0.3095 -0.0463 -0.1622
 1000loPI   C5A15667   1.784  13.001   7.597  0.0288  0.0856 -0.0789
 1000loPI   C6A15668   1.641  12.733   7.899 -0.0255  0.0047 -0.2542
 1000loPI   C1B15669   2.577  12.990   5.831 -0.0465  0.0815 -0.1697
 1000loPI   C2B15670   2.613  12.945   6.273  0.3903  0.1249 -0.0545
 1000loPI   C3B15671   2.401  13.077   6.517 -0.1575 -0.2850 -0.1405
 1000loPI   C4B15672   2.491  13.235   6.887  0.1085 -0.0802  0.0137
 1001loPI    C115673   3.812   6.897   5.018  0.0085 -0.1031  0.1875
 1001loPI    C215674   3.530   7.177   5.066  0.1105 -0.0067  0.2302
 1001loPI    C315675   3.721   7.144   4.716  0.2134  0.0857  0.2771
 1001loPI   PO415676   3.995   6.964   5.105  0.2010  0.0659  0.0860
 1001loPI   GL115677   4.143   6.776   5.369 -0.4292 -0.0113  0.0295
 1001loPI   GL215678   3.944   6.945   5.593  0.0127 -0.1932 -0.0014
 1001loPI   C1A15679   4.409   6.645   5.827  0.2474 -0.0812  0.1877
 1001loPI   C2A15680   4.536   6.694   6.242  0.1564 -0.0335  0.3348
 1001loPI   C3A15681   4.575   6.719   6.629  0.0855  0.2248  0.0244
 1001loPI   C4A15682   4.632   6.596   7.127  0.1679  0.1540  0.1415
 1001loPI   C5A15683   4.777   6.717   7.484 -0.3735  0.0602 -0.2364
 1001loPI   C6A15684   4.885   6.866   7.856  0.2455  0.1312  0.0282
 1001loPI   C1B15685   3.995   6.790   6.076 -0.2106  0.1890 -0.0553
 1001loPI   C2B15686   4.024   6.561   6.528 -0.0993 -0.0505  0.1038
 1001loPI   C3B15687   4.151   6.718   7.021  0.1424 -0.1597 -0.0324
 1001loPI   C4B15688   4.259   6.663   7.471  0.1549 -0.2508 -0.0258
 1002loPI    C115689   1.206   5.654   5.029 -0.0550  0.0625 -0.0500
 1002loPI    C215690   1.148   5.772   4.651  0.0481 -0.0731 -0.1089
 1002loPI    C315691   1.499   5.615   4.760  0.1617  0.3378  0.1399
 1002loPI   PO415692   0.915   5.588   5.113  0.1381  0.1600 -0.0381
 1002loPI   GL115693   0.827   5.646   5.579 -0.2574  0.0854  0.2610
 1002loPI   GL215694   0.948   5.393   5.779  0.1995  0.1553 -0.2749
 1002loPI   C1A15695   0.526   5.902   5.807  0.1153  0.0857 -0.0911
 1002loPI   C2A15696   0.504   5.863   6.273  0.1005 -0.0002  0.0056
 1002loPI   C3A15697   0.578   5.865   6.637  0.6464 -0.1782  0.0096
 1002loPI   C4A15698   0.490   6.005   6.934 -0.1321  0.2362  0.1431
 1002loPI   C5A15699   0.446   6.074   7.375 -0.0340  0.0238  0.2327
 1002loPI   C6A15700   0.712   5.826   7.636 -0.2095  0.2465  0.0768
 1002loPI   C1B15701   0.867   5.493   6.115 -0.2523  0.0159 -0.1689
 1002loPI   C2B15702   0.885   5.468   6.512 -0.1026  0.0579 -0.0517
 1002loPI   C3B15703   1.042   5.522   6.845  0.0825 -0.1857  0.0799
 1002loPI   C4B15704   1.029   5.728   7.260 -0.3152  0.0252  0.1773
 1003loPI    C115705   4.272   3.804   5.354 -0.2385  0.0591  0.0280
 1003loPI    C215706   4.417   3.516   5.118 -0.1740 -0.1221  0.2846
 1003loPI    C315707   4.592   3.876   5.125 -0.1099 -0.1497  0.1389
 1003loPI   PO415708   4.192   3.655   5.524 -0.2839 -0.0117  0.0934
 1003loPI   GL115709   4.357   3.708   6.007 -0.1359  0.1570 -0.1494
 1003loPI   GL215710   4.450   3.854   6.135 -0.0600  0.0806  0.0327
 1003loPI   C1A15711   4.579   3.522   6.415 -0.0816 -0.0816 -0.0959
 1003loPI   C2A15712   4.724   3.508   6.886  0.1367  0.0952 -0.0194
 1003loPI   C3A15713   4.679   3.374   7.266  0.0371 -0.2770 -0.1616
 1003loPI   C4A15714   4.966   3.303   7.600 -0.1813  0.0956  0.0049
 1003loPI   C5A15715   4.931   3.121   7.980 -0.3628 -0.1845 -0.3186
 1003loPI   C6A15716   5.193   2.756   8.177  0.3704 -0.1111  0.0018
 1003loPI   C1B15717   4.128   4.005   6.414  0.2389  0.1994 -0.4334
 1003loPI   C2B15718   3.894   3.980   6.843 -0.1931  0.1952 -0.1645
 1003loPI   C3B15719   3.890   3.882   7.246  0.1658 -0.2450 -0.2946
 1003loPI   C4B15720   3.923   3.773   7.687 -0.2849  0.2367  0.1287
 1004loPI    C115721   4.608   0.795   5.181 -0.1403  0.0101  0.0015
 1004loPI    C215722   4.419   0.761   5.532 -0.0589 -0.0629  0.0385
 1004loPI    C315723   4.553   0.434   5.345  0.2263  0.0038  0.1201
 1004loPI   PO415724   4.785   0.990   5.239  0.0461  0.1456  0.1113
 1004loPI   GL115725   4.774   1.109   5.645 -0.1175  0.2213 -0.2108
 1004loPI   GL215726   4.507   1.094   5.883 -0.0294 -0.0252  0.0546
 1004loPI   C1A15727   4.945   1.108   6.111 -0.0441 -0.0438 -0.0670
 1004loPI   C2A15728   5.141   1.301   6.501  0.0227 -0.0423  0.1175
 1004loPI   C3A15729   5.110   1.218   6.918 -0.2145 -0.0132  0.1430
 1004loPI   C4A15730   5.082   1.115   7.382  0.1096 -0.0487 -0.1106
 1004loPI   C5A15731   5.082   1.062   7.806  0.1059  0.0905  0.0613
 1004loPI   C6A15732   4.989   1.336   8.164 -0.1448 -0.2536 -0.0154
 1004loPI   C1B15733   4.456   1.008   6.354 -0.1109  0.1968  0.0673
 1004loPI   C2B15734   4.563   1.044   6.785 -0.1871  0.0479 -0.0307
 1004loPI   C3B15735   4.595   0.986   7.220 -0.1794 -0.1775  0.3125
 1004loPI   C4B15736   4.638   0.917   7.638 -0.0793 -0.0286  0.0676
 1005loPI    C115737   9.544   7.164   5.344  0.0023  0.0306 -0.2114
 1005loPI    C215738   9.644   7.020   4.984  0.0026 -0.1859 -0.1267
 1005loPI    C315739   9.260   7.032   5.095  0.0232 -0.3675 -0.0325
 1005loPI   PO415740   9.711   7.037   5.554  0.2774 -0.3125  0.1427
 1005loPI   GL115741   9.487   6.892   6.000  0.0295 -0.1048  0.0177
 1005loPI   GL215742   9.415   7.185   5.873 -0.1517 -0.0858 -0.2486
 1005loPI   C1A15743   9.526   6.905   6.387  0.0561  0.0756 -0.0820
 1005loPI   C2A15744   9.460   7.070   6.719  0.1935  0.0794  0.0433
 1005loPI   C3A15745   9.465   7.044   7.155 -0.0201  0.2675 -0.0844
 1005loPI   C4A15746   9.451   7.157   7.587  0.0221 -0.0837  0.1198
 1005loPI   C5A15747   9.328   7.480   7.994 -0.1507  0.0352 -0.0615
 1005loPI   C6A15748   9.016   7.747   8.080  0.2398 -0.1916 -0.0098
 1005loPI   C1B15749   9.261   7.302   6.280  0.1103  0.0080 -0.1263
 1005loPI   C2B15750   9.052   7.418   6.712 -0.3025 -0.0301  0.0120
 1005loPI   C3B15751   9.146   7.476   7.196  0.2588  0.1172 -0.2157
 1005loPI   C4B15752   9.193   7.686   7.580 -0.1915  0.0191  0.0216
 1006loPI    C115753   7.847  15.369   5.544 -0.0451 -0.0986  0.1739
 1006loPI    C215754   7.772  15.353   5.151 -0.2327 -0.3060  0.2160
 1006loPI    C315755   8.149  15.383   5.282 -0.1895  0.1012  0.0150
 1006loPI   PO415756   7.582  15.391   5.662  0.0698  0.1231 -0.1730
 1006loPI   GL115757   7.350  15.373   5.990 -0.1063 -0.1296 -0.1651
 1006loPI   GL215758   7.340  15.066   6.006  0.0015 -0.1059 -0.0463
 1006loPI   C1A15759   7.153  15.396   6.370 -0.3221  0.0907 -0.0141
 1006loPI   C2A15760   7.293  15.275   6.760  0.0183  0.1152  0.3043
 1006loPI   C3A15761   7.593  15.245   7.064  0.1134 -0.0919  0.1235
 1006loPI   C4A15762   7.775  15.217   7.374  0.0070 -0.0292  0.0198
 1006loPI   C5A15763   7.588  15.140   7.784 -0.5248 -0.2898 -0.1004
 1006loPI   C6A15764   7.606  15.126   8.150 -0.4446  0.1189  0.1808
 1006loPI   C1B15765   7.579  15.128   6.375 -0.3609  0.0056 -0.0551
 1006loPI   C2B15766   7.840  15.460   6.593 -0.0225 -0.2107  0.0042
 1006loPI   C3B15767   8.036  15.585   7.091  0.0573 -0.3100  0.0068
 1006loPI   C4B15768   8.055  15.705   7.478 -0.1506  0.0240  0.3480
 1007loPI    C115769   5.728   3.592   5.144  0.0482  0.0395 -0.2127
 1007loPI    C215770   5.602   3.971   5.179  0.2742  0.1094 -0.1419
 1007loPI    C315771   5.523   3.763   4.846 -0.2244  0.0751 -0.0094
 1007loPI   PO415772   6.009   3.634   5.339 -0.2878  0.0722  0.4672
 1007loPI   GL115773   6.098   3.509   5.796  0.0771 -0.0455  0.0893
 1007loPI   GL215774   5.990   3.600   5.980  0.0399  0.0061 -0.1563
 1007loPI   C1A15775   6.270   3.251   6.166 -0.0284 -0.1776 -0.1170
 1007loPI   C2A15776   6.321   3.159   6.582 -0.1673 -0.1012  0.1816
 1007loPI   C3A15777   6.202   3.131   7.071  0.1007  0.0288 -0.2673
 1007loPI   C4A15778   6.182   2.812   7.381  0.0318 -0.0835  0.2124
 1007loPI   C5A15779   5.827   2.713   7.622 -0.1780 -0.1723 -0.0567
 1007loPI   C6A15780   5.642   2.706   7.983 -0.0669 -0.0135  0.2183
 1007loPI   C1B15781   6.064   3.606   6.480  0.0650 -0.1256  0.0546
 1007loPI   C2B15782   6.207   3.738   6.859  0.0303 -0.1864  0.1954
 1007loPI   C3B15783   6.054   4.078   7.049 -0.0057  0.0342  0.0614
 1007loPI   C4B15784   6.097   4.334   7.343  0.0401  0.2043 -0.2932
 1008loPI    C115785   9.737   3.104   5.531  0.0180  0.1611 -0.1410
 1008loPI    C215786   9.411   3.116   5.762  0.2201  0.0931  0.1530
 1008loPI    C315787   9.381   3.006   5.379 -0.0995  0.0761  0.1809
 1008loPI   PO415788   9.912   3.010   5.725  0.2302  0.0471  0.1990
 1008loPI   GL115789   9.988   3.091   6.168  0.0919  0.2532 -0.3393
 1008loPI   GL215790   9.939   2.790   6.312 -0.2390 -0.0792  0.0338
 1008loPI   C1A15791   9.859   3.354   6.498  0.0373  0.1100 -0.1462
 1008loPI   C2A15792   9.956   3.548   6.935 -0.1926 -0.0859 -0.2549
 1008loPI   C3A15793   9.885   3.692   7.417  0.0295 -0.1820  0.1775
 1008loPI   C4A15794   9.945   3.962   7.758  0.0675  0.0536 -0.0747
 1008loPI   C5A15795   9.923   4.422   7.835  0.2110  0.1565 -0.0236
 1008loPI   C6A15796  10.113   4.755   8.096 -0.1059  0.1666  0.1405
 1008loPI   C1B15797  10.169   2.563   6.428  0.0544  0.1205  0.0433
 1008loPI   C2B15798  10.307   2.395   6.831 -0.2627  0.1867  0.0386
 1008loPI   C3B15799  10.414   2.342   7.286 -0.1516  0.0111 -0.0798
 1008loPI   C4B15800  10.318   2.162   7.654  0.1228  0.0927  0.0149
 1009loPI    C115801   5.024  12.351   4.937  0.1577  0.1254 -0.2216
 1009loPI    C215802   4.892  12.706   4.809 -0.1517  0.0843 -0.0264
 1009loPI    C315803   4.634  12.407   4.868  0.0814 -0.1138  0.0034
 1009loPI   PO415804   5.163  12.365   5.197  0.0134  0.0603 -0.0404
 1009loPI   GL115805   5.058  12.284   5.669  0.0201 -0.0285 -0.0791
 1009loPI   GL215806   5.356  12.476   5.645  0.1081 -0.0582 -0.1918
 1009loPI   C1A15807   4.791  12.435   6.024  0.0147 -0.0152 -0.1618
 1009loPI   C2A15808   4.603  12.199   6.341 -0.2923  0.1331 -0.2176
 1009loPI   C3A15809   4.484  12.070   6.755  0.0755 -0.1848 -0.2268
 1009loPI   C4A15810   4.461  12.044   7.183  0.1445 -0.1101 -0.2638
 1009loPI   C5A15811   4.063  12.037   7.379 -0.2147  0.0899 -0.1983
 1009loPI   C6A15812   3.830  11.892   7.745 -0.1165  0.1950  0.3234
 1009loPI   C1B15813   5.689  12.525   5.956 -0.0942  0.0892  0.3465
 1009loPI   C2B15814   6.012  12.590   6.153  0.0975 -0.1173  0.0942
 1009loPI   C3B15815   6.247  12.652   6.502  0.0406 -0.1918 -0.0558
 1009loPI   C4B15816   6.263  12.551   6.872 -0.0440  0.0723 -0.1781
 1010loPI    C115817   7.957   4.527   5.162 -0.2965 -0.3102 -0.0959
 1010loPI    C215818   7.880   4.881   5.332  0.1460 -0.3935  0.2977
 1010loPI    C315819   7.666   4.760   5.017 -0.1127  0.1525  0.2525
 1010loPI   PO415820   8.074   4.493   5.510 -0.4559 -0.0045  0.0008
 1010loPI   GL115821   7.782   4.357   5.959 -0.1715 -0.0276 -0.1003
 1010loPI   GL215822   7.879   4.131   5.904 -0.4243  0.4899 -0.1208
 1010loPI   C1A15823   7.774   4.755   6.241 -0.1140  0.1748  0.2240
 1010loPI   C2A15824   7.843   5.070   6.408 -0.0365  0.1508  0.1325
 1010loPI   C3A15825   7.704   5.217   6.817  0.2697 -0.1593 -0.0682
 1010loPI   C4A15826   7.602   5.327   7.222 -0.0610  0.4992  0.1499
 1010loPI   C5A15827   7.208   5.265   7.423 -0.1780  0.2772  0.0056
 1010loPI   C6A15828   6.762   5.163   7.465  0.0072 -0.2255 -0.1926
 1010loPI   C1B15829   8.015   3.924   6.254 -0.1201  0.1275 -0.3743
 1010loPI   C2B15830   8.081   3.603   6.549  0.2515 -0.0975  0.1826
 1010loPI   C3B15831   8.052   3.609   7.035  0.0121 -0.3595  0.1163
 1010loPI   C4B15832   7.879   3.558   7.499  0.1908  0.0650 -0.1188
 1011loPI    C115833   3.510   3.091   5.703 -0.2024  0.2776 -0.1442
 1011loPI    C215834   3.798   3.365   5.659  0.2499 -0.1709 -0.0712
 1011loPI    C315835   3.714   3.113   5.360  0.0595 -0.1645 -0.0248
 1011loPI   PO415836   3.210   3.260   5.778 -0.0609 -0.0386 -0.0926
 1011loPI   GL115837   3.175   3.586   5.936  0.0413 -0.0154  0.4091
 1011loPI   GL215838   3.172   3.844   6.065 -0.1787 -0.3238  0.0038
 1011loPI   C1A15839   3.261   3.545   6.416 -0.0095 -0.0148 -0.0438
 1011loPI   C2A15840   3.514   3.649   6.684  0.2827 -0.0166 -0.1119
 1011loPI   C3A15841   3.429   3.787   7.084 -0.0594 -0.0357 -0.1700
 1011loPI   C4A15842   3.535   4.031   7.504 -0.1706 -0.1656 -0.4665
 1011loPI   C5A15843   3.324   4.371   7.853 -0.0911  0.2601  0.3089
 1011loPI   C6A15844   3.473   4.535   8.159 -0.0064  0.1734  0.1079
 1011loPI   C1B15845   2.985   3.981   6.418 -0.1028  0.0432 -0.0715
 1011loPI   C2B15846   3.000   3.988   6.821  0.1685 -0.2136  0.1883
 1011loPI   C3B15847   2.935   3.910   7.063 -0.0411 -0.0048  0.1887
 1011loPI   C4B15848   2.706   3.932   7.418 -0.1792 -0.1636  0.1259
 1012loPI    C115849  12.715  16.677   5.431  0.1011 -0.2267 -0.1071
 1012loPI    C215850  12.632  16.976   5.179 -0.2642 -0.0950  0.1601
 1012loPI    C315851  12.675  16.604   5.040  0.3794  0.0980 -0.2014
 1012loPI   PO415852  12.869  16.752   5.593 -0.1385  0.0508 -0.0964
 1012loPI   GL115853  12.986  16.976   5.994  0.1145 -0.1264 -0.0577
 1012loPI   GL215854  12.850  17.225   6.119  0.0036 -0.0170 -0.0112
 1012loPI   C1A15855  12.762  16.641   6.202  0.0641  0.1102  0.0120
 1012loPI   C2A15856  12.659  16.203   6.454 -0.2203  0.2205 -0.0146
 1012loPI   C3A15857  12.399  16.216   6.793 -0.1327 -0.1819 -0.5101
 1012loPI   C4A15858  12.626  16.189   7.150 -0.0271  0.1648  0.0018
 1012loPI   C5A15859  12.966  16.060   7.381 -0.0564 -0.0505  0.2254
 1012loPI   C6A15860  13.303  15.918   7.547 -0.1187 -0.2024 -0.2809
 1012loPI   C1B15861  12.926  17.033   6.515 -0.0044 -0.0092  0.1063
 1012loPI   C2B15862  12.975  16.887   6.969  0.1385  0.3277  0.1349
 1012loPI   C3B15863  12.903  16.590   7.277  0.0668  0.1657  0.0944
 1012loPI   C4B15864  12.651  16.458   7.533  0.2452 -0.2116 -0.1826
 1013loPI    C115865  10.846  12.625   5.262 -0.2307 -0.0387  0.0728
 1013loPI    C215866  11.106  12.926   5.312 -0.1585 -0.0926  0.0229
 1013loPI    C315867  11.082  12.738   4.959 -0.0998 -0.2416  0.0973
 1013loPI   PO415868  10.633  12.710   5.433 -0.0057 -0.0760  0.2558
 1013loPI   GL115869  10.471  12.635   5.711 -0.0388  0.0134  0.1441
 1013loPI   GL215870  10.201  12.728   5.812  0.0656 -0.1575  0.0703
 1013loPI   C1A15871  10.633  12.656   6.236  0.2171  0.3541 -0.1833
 1013loPI   C2A15872  10.620  12.644   6.662  0.2334  0.1492  0.0717
 1013loPI   C3A15873  10.526  12.719   7.112 -0.4966  0.0650 -0.2803
 1013loPI   C4A15874  10.675  12.958   7.412 -0.2801 -0.2165 -0.2090
 1013loPI   C5A15875  10.763  12.897   7.813  0.1517 -0.1916  0.2069
 1013loPI   C6A15876  11.010  12.941   8.203  0.3513 -0.0855  0.0298
 1013loPI   C1B15877   9.809  12.693   6.065  0.0268 -0.1530  0.1513
 1013loPI   C2B15878   9.723  12.684   6.463 -0.2152 -0.1289  0.1091
 1013loPI   C3B15879   9.649  12.796   6.953  0.0590  0.0708  0.1142
 1013loPI   C4B15880   9.812  12.876   7.317  0.0521  0.3208  0.2540
 1014loPI    C115881  11.267   3.072   5.495 -0.2155  0.0938  0.1422
 1014loPI    C215882  11.270   2.798   5.787 -0.0763  0.0476  0.0981
 1014loPI    C315883  10.929   2.984   5.690 -0.1703 -0.1052  0.1324
 1014loPI   PO415884  11.537   3.152   5.635  0.0936 -0.2403 -0.2676
 1014loPI   GL115885  11.444   3.237   5.989 -0.0398  0.0016  0.1562
 1014loPI   GL215886  11.114   3.284   6.108 -0.1691  0.1173  0.2496
 1014loPI   C1A15887  11.709   3.194   6.388 -0.0650  0.1375  0.0769
 1014loPI   C2A15888  11.927   3.265   6.755  0.1983 -0.0023  0.2171
 1014loPI   C3A15889  11.937   3.143   7.196 -0.2428 -0.1711 -0.1855
 1014loPI   C4A15890  11.857   3.129   7.582 -0.3701 -0.0257 -0.1837
 1014loPI   C5A15891  11.630   3.348   7.824 -0.0419 -0.2912 -0.1434
 1014loPI   C6A15892  11.726   3.287   8.285  0.1165 -0.0306  0.1771
 1014loPI   C1B15893  11.243   3.022   6.424  0.1568  0.2885 -0.1564
 1014loPI   C2B15894  11.474   3.087   6.801  0.1494  0.1674  0.1380
 1014loPI   C3B15895  11.432   3.291   7.134  0.0285 -0.1119 -0.1489
 1014loPI   C4B15896  11.223   3.420   7.523  0.0866 -0.0203  0.0637
 1015loPI    C115897   5.205  17.493   5.175  0.0080  0.0386 -0.0217
 1015loPI    C215898   4.935  17.644   4.922 -0.1626 -0.1900  0.0215
 1015loPI    C315899   5.243  17.431   4.782  0.0245  0.1100 -0.0316
 1015loPI   PO415900   5.110  17.526   5.412 -0.1293 -0.1559  0.1911
 1015loPI   GL115901   5.300  17.385   5.754 -0.0392  0.1993  0.0620
 1015loPI   GL215902   5.533  17.433   5.930  0.0427  0.0063  0.0715
 1015loPI   C1A15903   5.159  17.311   6.270 -0.2932 -0.2124 -0.1474
 1015loPI   C2A15904   5.281  17.266   6.660  0.0430 -0.0388  0.1593
 1015loPI   C3A15905   5.236  17.228   7.095 -0.2310  0.0506  0.1559
 1015loPI   C4A15906   5.263  17.264   7.542  0.1809  0.0458  0.2620
 1015loPI   C5A15907   5.479  17.147   8.028  0.0273  0.1279  0.0132
 1015loPI   C6A15908   5.507  17.183   8.469  0.2059  0.1039  0.0175
 1015loPI   C1B15909   5.624  17.431   6.396  0.2192 -0.3259 -0.0450
 1015loPI   C2B15910   5.713  17.418   6.891  0.2390  0.4043 -0.1264
 1015loPI   C3B15911   5.735  17.495   7.262  0.1711 -0.2310  0.1098
 1015loPI   C4B15912   5.714  17.498   7.792 -0.4035  0.1277 -0.0039
 1016loPI    C115913   3.094   0.705   5.113  0.4237  0.1389  0.1246
 1016loPI    C215914   2.933   1.049   5.238 -0.0111 -0.0032 -0.0230
 1016loPI    C315915   3.102   1.027   4.876 -0.0634  0.0315 -0.0497
 1016loPI   PO415916   3.233   0.651   5.240  0.0676 -0.1965  0.1978
 1016loPI   GL115917   3.218   0.675   5.653  0.0617 -0.0769  0.0953
 1016loPI   GL215918   3.166   0.329   5.861  0.1182 -0.1609 -0.1975
 1016loPI   C1A15919   3.208   0.778   6.034  0.2688  0.0291 -0.0077
 1016loPI   C2A15920   3.344   0.820   6.535 -0.0099  0.2018 -0.1700
 1016loPI   C3A15921   3.297   0.842   6.901 -0.2409  0.1586 -0.0744
 1016loPI   C4A15922   3.351   0.873   7.362  0.3819  0.2601 -0.2756
 1016loPI   C5A15923   3.384   0.933   7.712 -0.1540 -0.0678 -0.0499
 1016loPI   C6A15924   3.605   0.632   7.887 -0.3125  0.3078  0.0018
 1016loPI   C1B15925   3.169   0.371   6.299  0.1354  0.1880 -0.1942
 1016loPI   C2B15926   3.106   0.294   6.708  0.0137 -0.1150 -0.1694
 1016loPI   C3B15927   2.909   0.060   6.989  0.0251 -0.0333  0.2267
 1016loPI   C4B15928   2.675  -0.273   6.983  0.0720 -0.0396 -0.3417
 1017loPI    C115929   2.733   2.066   5.518  0.0402  0.0213 -0.3191
 1017loPI    C215930   2.690   2.424   5.690  0.1696 -0.1492  0.0803
 1017loPI    C315931   2.456   2.321   5.382  0.0096  0.2065  0.0773
 1017loPI   PO415932   3.010   1.969   5.441  0.0473 -0.2338  0.2494
 1017loPI   GL115933   3.218   1.832   5.767 -0.0884 -0.3788 -0.2212
 1017loPI   GL215934   3.223   1.576   5.967 -0.0435  0.1577 -0.0870
 1017loPI   C1A15935   3.099   2.058   6.173 -0.0187  0.2664  0.2946
 1017loPI   C2A15936   3.107   2.084   6.712 -0.2430  0.1446  0.1222
 1017loPI   C3A15937   3.281   1.943   7.091 -0.2805 -0.2492 -0.0382
 1017loPI   C4A15938   3.271   1.981   7.520  0.1146 -0.1270 -0.3664
 1017loPI   C5A15939   3.363   2.156   7.962  0.0261 -0.0064 -0.0906
 1017loPI   C6A15940   3.525   2.228   8.478 -0.1879  0.2124  0.0651
 1017loPI   C1B15941   3.292   1.607   6.384  0.2957  0.0729  0.0266
 1017loPI   C2B15942   3.269   1.523   6.835 -0.1563  0.2591  0.1231
 1017loPI   C3B15943   3.360   1.298   7.120  0.1031  0.2854  0.2126
 1017loPI   C4B15944   3.411   1.456   7.572  0.0338  0.0921  0.0077
 1018loPI    C115945   7.839  12.997   5.668  0.0192  0.0430  0.0460
 1018loPI    C215946   7.599  12.918   5.978 -0.0276  0.1913  0.0485
 1018loPI    C315947   7.452  12.919   5.606  0.0526 -0.0992  0.0135
 1018loPI   PO415948   8.077  12.808   5.712  0.0442  0.1347  0.0411
 1018loPI   GL115949   8.095  12.698   6.137 -0.0338  0.0863  0.0780
 1018loPI   GL215950   8.067  13.045   6.188  0.0622  0.1395  0.1299
 1018loPI   C1A15951   7.775  12.501   6.218  0.0950  0.1825 -0.1128
 1018loPI   C2A15952   7.859  12.476   6.647  0.0182  0.3217 -0.1978
 1018loPI   C3A15953   7.736  12.438   7.143 -0.1359  0.1622  0.0252
 1018loPI   C4A15954   7.803  12.395   7.537 -0.2377 -0.1589  0.0061
 1018loPI   C5A15955   7.794  12.343   7.911 -0.1226  0.2710 -0.3297
 1018loPI   C6A15956   7.600  12.527   8.277 -0.3117 -0.0677  0.1880
 1018loPI   C1B15957   7.785  12.924   6.500  0.1907  0.1975 -0.3536
 1018loPI   C2B15958   7.635  12.907   6.991  0.1931 -0.2710 -0.0122
 1018loPI   C3B15959   7.606  12.839   7.422  0.1430  0.1442 -0.2016
 1018loPI   C4B15960   7.788  12.877   7.824  0.2166  0.0718  0.0155
 1019loPI    C115961  10.761  17.258   5.669  0.2015  0.0318 -0.0216
 1019loPI    C215962  10.953  17.062   5.377  0.1496 -0.1147  0.0417
 1019loPI    C315963  10.622  17.271   5.294  0.0202 -0.3220  0.0285
 1019loPI   PO415964  10.918  17.443   5.793 -0.0395 -0.1216  0.0491
 1019loPI   GL115965  10.990  17.480   6.241  0.0667 -0.1452 -0.1295
 1019loPI   GL215966  11.322  17.430   6.144  0.1526  0.1707  0.0493
 1019loPI   C1A15967  11.105  17.699   6.547  0.0839 -0.2359  0.0937
 1019loPI   C2A15968  11.005  17.903   6.922 -0.1058  0.2704  0.1353
 1019loPI   C3A15969  11.127  18.236   7.263  0.3187  0.3277  0.2165
 1019loPI   C4A15970  11.159  18.298   7.718 -0.0807 -0.1758 -0.3803
 1019loPI   C5A15971  10.914  18.407   7.978 -0.0449 -0.0198  0.0984
 1019loPI   C6A15972  10.573  18.621   8.143  0.2395  0.0917  0.0296
 1019loPI   C1B15973  11.390  17.274   6.592 -0.1836 -0.1770 -0.1675
 1019loPI   C2B15974  11.160  17.357   6.970  0.1233  0.0521 -0.2349
 1019loPI   C3B15975  11.084  17.207   7.404 -0.1076 -0.1319  0.1715
 1019loPI   C4B15976  11.126  17.407   7.810  0.0222 -0.0488  0.0362
 1020loPI    C115977  12.033  12.910   4.873 -0.3898 -0.0794  0.2402
 1020loPI    C215978  11.929  13.290   4.801 -0.0044 -0.0476 -0.1970
 1020loPI    C315979  11.692  12.991   4.680 -0.1253  0.0440 -0.1884
 1020loPI   PO415980  12.088  12.931   5.192 -0.1435 -0.1867  0.1184
 1020loPI   GL115981  11.843  12.687   5.585 -0.0499  0.4841 -0.0326
 1020loPI   GL215982  11.498  12.791   5.696 -0.1158 -0.0967  0.0574
 1020loPI   C1A15983  11.974  12.708   5.945 -0.1852  0.2962  0.0471
 1020loPI   C2A15984  11.994  12.538   6.294  0.4005  0.0610  0.0664
 1020loPI   C3A15985  11.955  12.520   6.713 -0.3637 -0.3881 -0.1612
 1020loPI   C4A15986  11.918  12.558   7.069 -0.2535 -0.0875 -0.2878
 1020loPI   C5A15987  11.932  12.763   7.477  0.3565 -0.6202 -0.1863
 1020loPI   C6A15988  11.825  13.079   7.607  0.0621  0.0912 -0.0786
 1020loPI   C1B15989  11.485  12.550   6.076  0.2903 -0.2368 -0.1839
 1020loPI   C2B15990  11.471  12.298   6.452 -0.0033  0.0280  0.0926
 1020loPI   C3B15991  11.447  12.411   6.884  0.1035 -0.0396 -0.2619
 1020loPI   C4B15992  11.434  12.319   7.368 -0.3922  0.0651  0.0117
 1021loPI    C115993  10.775  11.451   4.762 -0.0716  0.0912  0.0730
 1021loPI    C215994  10.631  11.267   4.437  0.2922 -0.0019 -0.0393
 1021loPI    C315995  10.759  11.646   4.413  0.0786  0.0778  0.0581
 1021loPI   PO415996  10.623  11.318   5.005  0.2584 -0.0503  0.1880
 1021loPI   GL115997  10.411  11.305   5.396  0.1601  0.0382  0.0265
 1021loPI   GL215998  10.655  11.470   5.577 -0.1101  0.2213  0.1253
 1021loPI   C1A15999  10.336  11.066   5.811 -0.1124 -0.2531 -0.2437
 1021loPI   C2A16000  10.358  11.105   6.275  0.3052  0.0554  0.0264
 1021loPI   C3A16001  10.454  11.175   6.750 -0.0540 -0.0415 -0.0726
 1021loPI   C4A16002  10.539  10.974   7.221 -0.0760  0.0018  0.1296
 1021loPI   C5A16003  10.403  10.820   7.623  0.2562  0.2144 -0.1344
 1021loPI   C6A16004  10.415  10.796   7.986  0.0098 -0.0820  0.1680
 1021loPI   C1B16005  10.336  11.597   5.893  0.2978  0.1851 -0.0171
 1021loPI   C2B16006  10.377  11.662   6.271  0.0218  0.1635  0.1110
 1021loPI   C3B16007  10.413  11.650   6.764 -0.3085 -0.0421  0.0958
 1021loPI   C4B16008  10.551  11.508   7.223  0.1089  0.0845  0.1234
 1022loPI    C116009   0.246   3.294   5.339  0.1416  0.0547 -0.1042
 1022loPI    C216010   0.120   2.916   5.300  0.1943  0.0220  0.0388
 1022loPI    C316011   0.083   3.172   4.994 -0.1631 -0.0028  0.0569
 1022loPI   PO416012   0.243   3.381   5.539 -0.0336 -0.0308 -0.2231
 1022loPI   GL116013   0.437   3.518   5.854 -0.0505  0.0631 -0.0569
 1022loPI   GL216014   0.513   3.891   5.862 -0.1457 -0.0862  0.0099
 1022loPI   C1A16015   0.399   3.424   6.213 -0.2188 -0.3003  0.3063
 1022loPI   C2A16016   0.495   3.485   6.655 -0.0047 -0.1326  0.2414
 1022loPI   C3A16017   0.563   3.505   7.052  0.4328 -0.0263  0.1332
 1022loPI   C4A16018   0.743   3.577   7.534  0.2002 -0.0036 -0.3209
 1022loPI   C5A16019   0.698   3.561   7.956 -0.0720  0.0535  0.0478
 1022loPI   C6A16020   0.924   3.268   8.283  0.1932 -0.2118  0.0613
 1022loPI   C1B16021   0.551   4.030   6.393  0.0712  0.2224  0.2300
 1022loPI   C2B16022   0.638   3.986   6.722 -0.2460 -0.3349 -0.2529
 1022loPI   C3B16023   0.665   4.067   7.166 -0.0443  0.0669  0.1880
 1022loPI   C4B16024   0.671   4.333   7.535 -0.1416  0.1073 -0.3041
 1023loPI    C116025  17.960   6.570   4.839  0.3347  0.0427 -0.2104
 1023loPI    C216026  17.655   6.762   4.664 -0.1519 -0.2295  0.3038
 1023loPI    C316027  18.002   6.952   4.727 -0.3188  0.1900  0.0023
 1023loPI   PO416028  17.792   6.476   5.142  0.0104 -0.2405 -0.0985
 1023loPI   GL116029  17.921   6.522   5.591  0.1688 -0.2561 -0.0418
 1023loPI   GL216030  17.549   6.553   5.568 -0.1470 -0.4684  0.1125
 1023loPI   C1A16031  18.171   6.523   5.939 -0.1522  0.0134 -0.0052
 1023loPI   C2A16032  18.204   6.497   6.355  0.2400 -0.1219  0.2579
 1023loPI   C3A16033  18.141   6.674   6.761  0.3149  0.0953 -0.2100
 1023loPI   C4A16034  18.225   6.791   7.196 -0.1687 -0.0032  0.0690
 1023loPI   C5A16035  18.130   6.708   7.775 -0.0675  0.1023 -0.0039
 1023loPI   C6A16036  17.733   6.848   8.017  0.1470 -0.0725 -0.2901
 1023loPI   C1B16037  17.640   6.423   6.055  0.1640  0.1404 -0.1105
 1023loPI   C2B16038  17.720   6.450   6.459  0.0499 -0.0269  0.1538
 1023loPI   C3B16039  17.780   6.393   6.944  0.0791  0.2188  0.0790
 1023loPI   C4B16040  17.861   6.430   7.371 -0.1565  0.1438  0.0226
 1024loPI    C116041  16.719   9.258   4.453 -0.0067 -0.3436  0.0006
 1024loPI    C216042  16.711   9.105   4.084 -0.1435  0.0522 -0.1655
 1024loPI    C316043  16.369   9.168   4.281 -0.0869  0.1092 -0.0851
 1024loPI   PO416044  16.794   9.498   4.622  0.1051  0.0182  0.1198
 1024loPI   GL116045  16.923   9.518   5.182  0.0563 -0.0879 -0.2129
 1024loPI   GL216046  17.201   9.425   5.265 -0.1631 -0.0043 -0.3332
 1024loPI   C1A16047  16.744   9.687   5.545  0.1323 -0.3295  0.2575
 1024loPI   C2A16048  16.508   9.775   5.949  0.0290 -0.0553 -0.2989
 1024loPI   C3A16049  16.499   9.872   6.390  0.2778  0.0933 -0.0730
 1024loPI   C4A16050  16.493   9.733   6.833 -0.3261 -0.1189 -0.0290
 1024loPI   C5A16051  16.468   9.763   7.217  0.1501  0.0314  0.1390
 1024loPI   C6A16052  16.473   9.854   7.673  0.0360 -0.0993  0.1603
 1024loPI   C1B16053  17.073   9.398   5.688 -0.3346  0.0426  0.0992
 1024loPI   C2B16054  16.931   9.508   6.104 -0.0064  0.0995 -0.1268
 1024loPI   C3B16055  16.936   9.451   6.572 -0.0515  0.0406  0.2877
 1024loPI   C4B16056  16.889   9.479   7.087  0.2951 -0.4046  0.0160
 1025loPI    C116057  14.108   9.712   4.878  0.0731 -0.0627  0.2067
 1025loPI    C216058  14.352   9.567   4.596 -0.0320 -0.0643  0.1156
 1025loPI    C316059  14.249   9.953   4.591 -0.2187 -0.1147  0.0158
 1025loPI   PO416060  14.201   9.640   5.163  0.3802  0.3149  0.2420
 1025loPI   GL116061  14.271   9.622   5.496  0.0488  0.0946 -0.0314
 1025loPI   GL216062  13.928   9.639   5.550  0.1084  0.0759 -0.3069
 1025loPI   C1A16063  14.264   9.826   5.856  0.2121  0.0287  0.0031
 1025loPI   C2A16064  14.347   9.986   6.333  0.1533  0.1114 -0.1603
 1025loPI   C3A16065  14.199  10.047   6.771  0.0695 -0.3360 -0.1440
 1025loPI   C4A16066  14.239  10.014   7.236  0.3915  0.2717  0.0067
 1025loPI   C5A16067  14.393  10.027   7.629  0.0279  0.1367  0.0748
 1025loPI   C6A16068  14.705   9.958   7.974  0.0965  0.1800 -0.0902
 1025loPI   C1B16069  13.949   9.414   5.954  0.0279  0.0635 -0.2331
 1025loPI   C2B16070  13.987   9.083   6.298  0.2125 -0.1132 -0.1810
 1025loPI   C3B16071  14.071   9.020   6.742  0.0777 -0.0083 -0.1802
 1025loPI   C4B16072  14.075   8.980   7.165  0.0157  0.0626 -0.0898
 1026loPI    C116073  17.105  12.092   5.063 -0.1050  0.2691 -0.0251
 1026loPI    C216074  17.336  12.397   4.944  0.1557  0.0171 -0.1779
 1026loPI    C316075  17.137  12.179   4.674  0.1155 -0.0623 -0.0849
 1026loPI   PO416076  16.870  12.230   5.167 -0.0175  0.0002  0.1354
 1026loPI   GL116077  16.624  12.425   5.568  0.1957 -0.1214  0.1350
 1026loPI   GL216078  16.748  12.698   5.716 -0.3199 -0.0697  0.1351
 1026loPI   C1A16079  16.311  12.470   5.943 -0.0991 -0.4295  0.2606
 1026loPI   C2A16080  16.170  12.471   6.307  0.1097  0.1717 -0.1423
 1026loPI   C3A16081  16.132  12.412   6.691 -0.3030  0.0552 -0.3027
 1026loPI   C4A16082  16.138  12.522   7.124 -0.0642  0.2562  0.2520
 1026loPI   C5A16083  16.195  12.575   7.570 -0.0399 -0.3729  0.0687
 1026loPI   C6A16084  16.102  12.389   8.015  0.0594  0.3960  0.0526
 1026loPI   C1B16085  16.697  12.702   6.159 -0.1850 -0.0036 -0.1251
 1026loPI   C2B16086  17.004  12.815   6.507 -0.2714  0.3393 -0.1221
 1026loPI   C3B16087  17.120  12.756   6.916 -0.1040  0.2753 -0.1312
 1026loPI   C4B16088  17.034  12.818   7.301 -0.2004  0.0213 -0.3148
 1027loPI    C116089  15.429   8.784   4.941  0.0296 -0.0990 -0.3166
 1027loPI    C216090  15.701   9.064   5.031 -0.0422 -0.1330  0.0212
 1027loPI    C316091  15.772   8.802   4.737  0.2774 -0.1233  0.0868
 1027loPI   PO416092  15.425   8.710   5.320 -0.1558 -0.2051 -0.0052
 1027loPI   GL116093  15.678   8.716   5.659  0.0546 -0.4035  0.0294
 1027loPI   GL216094  15.875   8.586   5.888 -0.1042  0.1063 -0.3451
 1027loPI   C1A16095  15.442   8.907   6.036 -0.1214 -0.3780  0.0202
 1027loPI   C2A16096  15.415   9.036   6.463  0.1900 -0.2610 -0.1871
 1027loPI   C3A16097  15.386   9.068   6.843  0.1164  0.0420 -0.2543
 1027loPI   C4A16098  15.446   9.047   7.279  0.2102 -0.2652 -0.0487
 1027loPI   C5A16099  15.356   9.055   7.773  0.1216 -0.0159 -0.1935
 1027loPI   C6A16100  15.096   8.884   8.089  0.0816 -0.2724  0.0596
 1027loPI   C1B16101  15.783   8.588   6.299  0.1792  0.3899  0.2737
 1027loPI   C2B16102  15.736   8.626   6.700  0.1319  0.2752 -0.1576
 1027loPI   C3B16103  15.844   8.663   7.110 -0.1833  0.0390 -0.2552
 1027loPI   C4B16104  15.826   8.785   7.513 -0.0066 -0.0174  0.0583
 1028loPI    C116105   7.963   6.566   5.033 -0.2249 -0.0195  0.0663
 1028loPI    C216106   8.027   6.885   4.800 -0.0155  0.0375  0.1998
 1028loPI    C316107   7.804   6.581   4.666  0.2524 -0.0120 -0.1464
 1028loPI   PO416108   7.966   6.688   5.309 -0.3074  0.0067  0.1695
 1028loPI   GL116109   8.103   6.570   5.728 -0.1316  0.1357 -0.1275
 1028loPI   GL216110   8.433   6.670   5.991 -0.1793 -0.1482  0.1416
 1028loPI   C1A16111   7.959   6.816   6.095  0.1138 -0.0040  0.1181
 1028loPI   C2A16112   8.122   6.948   6.451 -0.1357 -0.0246 -0.0815
 1028loPI   C3A16113   8.153   7.023   6.935 -0.2854  0.1641 -0.0839
 1028loPI   C4A16114   8.166   7.233   7.257  0.0092  0.1378 -0.1627
 1028loPI   C5A16115   8.096   7.557   7.493  0.0854 -0.2534 -0.2980
 1028loPI   C6A16116   8.230   7.555   7.807 -0.1572  0.1442 -0.0743
 1028loPI   C1B16117   8.562   6.684   6.442 -0.4252 -0.1278 -0.0474
 1028loPI   C2B16118   8.534   6.675   6.900 -0.0220  0.1977  0.1227
 1028loPI   C3B16119   8.418   6.786   7.333  0.2054  0.0589 -0.1941
 1028loPI   C4B16120   8.484   7.117   7.624 -0.0898 -0.1535  0.1126
 1029loPI    C116121  14.163  16.211   5.318  0.2248  0.1656 -0.1554
 1029loPI    C216122  14.083  16.553   5.127 -0.1165  0.1439 -0.0587
 1029loPI    C316123  14.170  16.223   4.918  0.0559  0.2492 -0.1567
 1029loPI   PO416124  14.376  16.228   5.584  0.0328 -0.1619  0.5601
 1029loPI   GL116125  14.562  16.455   5.883  0.3816  0.1333 -0.1809
 1029loPI   GL216126  14.726  16.155   5.959  0.1768 -0.0014  0.0333
 1029loPI   C1A16127  14.607  16.506   6.318 -0.3474  0.1100  0.0307
 1029loPI   C2A16128  14.724  16.485   6.691 -0.2092 -0.0957 -0.0700
 1029loPI   C3A16129  14.838  16.481   7.070  0.0186 -0.2038 -0.1380
 1029loPI   C4A16130  14.820  16.435   7.504  0.1911 -0.2425 -0.0975
 1029loPI   C5A16131  14.974  16.415   7.855 -0.3652 -0.0233  0.1345
 1029loPI   C6A16132  15.478  16.385   8.003 -0.0599  0.2193 -0.1207
 1029loPI   C1B16133  15.019  16.095   6.313  0.0520 -0.0464 -0.0969
 1029loPI   C2B16134  15.055  16.094   6.779  0.1754  0.2761 -0.1487
 1029loPI   C3B16135  15.134  16.070   7.215 -0.3101 -0.0966 -0.5721
 1029loPI   C4B16136  15.326  16.259   7.557 -0.3002  0.0547 -0.2428
 1030loPI    C116137  14.487   2.711   5.082  0.0112  0.1633  0.0859
 1030loPI    C216138  14.328   2.355   5.171  0.0792  0.1129  0.0068
 1030loPI    C316139  14.192   2.562   4.857 -0.0898  0.2436  0.1636
 1030loPI   PO416140  14.513   2.838   5.332  0.1266 -0.2207 -0.0644
 1030loPI   GL116141  14.583   2.623   5.765 -0.2305  0.0408  0.0095
 1030loPI   GL216142  14.281   2.821   5.820 -0.2629  0.1093 -0.0596
 1030loPI   C1A16143  14.498   2.512   6.180 -0.4022  0.2257  0.0586
 1030loPI   C2A16144  14.479   2.576   6.653  0.1986 -0.1093  0.0966
 1030loPI   C3A16145  14.514   2.574   7.164  0.2283 -0.0144  0.1241
 1030loPI   C4A16146  14.491   2.503   7.683  0.1016  0.1040  0.1857
 1030loPI   C5A16147  14.438   2.851   7.989  0.0660  0.0584 -0.2041
 1030loPI   C6A16148  14.029   3.031   7.973  0.2704 -0.1084 -0.2865
 1030loPI   C1B16149  14.114   2.880   6.276 -0.0882 -0.0696  0.2304
 1030loPI   C2B16150  14.124   2.938   6.669 -0.0402 -0.0300 -0.0570
 1030loPI   C3B16151  14.171   2.898   7.127 -0.0132  0.0557 -0.1608
 1030loPI   C4B16152  14.135   2.840   7.535 -0.2770 -0.2296  0.1638
 1031loPI    C116153  10.546  16.555   5.688 -0.0607 -0.0200  0.1218
 1031loPI    C216154  10.204  16.455   5.507  0.0994  0.2173 -0.3257
 1031loPI    C316155  10.538  16.250   5.430  0.1162  0.1539 -0.0927
 1031loPI   PO416156  10.596  16.783   5.706 -0.0200  0.1210  0.3049
 1031loPI   GL116157  10.625  16.995   6.048 -0.1962  0.2163  0.0827
 1031loPI   GL216158  10.505  17.213   6.247  0.1204 -0.2072 -0.3067
 1031loPI   C1A16159  10.570  16.751   6.482  0.0916  0.1248  0.0026
 1031loPI   C2A16160  10.557  16.685   6.860 -0.0920  0.0121  0.2306
 1031loPI   C3A16161  10.400  16.687   7.250 -0.0200 -0.0651  0.0689
 1031loPI   C4A16162  10.374  16.618   7.762 -0.1344  0.2182 -0.3368
 1031loPI   C5A16163  10.298  16.892   8.074  0.0584 -0.1941 -0.2629
 1031loPI   C6A16164  10.599  17.042   8.264  0.0153 -0.0860 -0.1303
 1031loPI   C1B16165  10.786  17.241   6.630  0.2940  0.1120 -0.1202
 1031loPI   C2B16166  10.649  17.104   7.071  0.0623  0.1315 -0.0065
 1031loPI   C3B16167  10.536  17.157   7.488 -0.1064  0.0476  0.2715
 1031loPI   C4B16168  10.656  17.334   7.885 -0.1162  0.0974 -0.1031
 1032loPI    C116169   3.069  11.994   5.023 -0.1850  0.1317 -0.1508
 1032loPI    C216170   3.344  12.129   5.281 -0.2976 -0.0996  0.0946
 1032loPI    C316171   3.365  12.231   4.895  0.2184 -0.2324  0.0808
 1032loPI   PO416172   2.822  12.027   5.069  0.1950 -0.3805 -0.2577
 1032loPI   GL116173   2.500  12.020   5.470 -0.0017 -0.3793  0.1285
 1032loPI   GL216174   2.171  12.137   5.588 -0.2558 -0.2869  0.2493
 1032loPI   C1A16175   2.614  11.815   5.886 -0.0114  0.1700  0.2631
 1032loPI   C2A16176   2.609  11.576   6.205 -0.0301 -0.1672 -0.2808
 1032loPI   C3A16177   2.249  11.496   6.429  0.0110 -0.3162  0.0061
 1032loPI   C4A16178   2.203  11.595   6.839 -0.0448  0.1638 -0.2744
 1032loPI   C5A16179   2.120  11.627   7.222  0.2158  0.1637  0.2218
 1032loPI   C6A16180   2.333  11.546   7.602 -0.0100  0.0208  0.3875
 1032loPI   C1B16181   2.263  12.172   6.018 -0.1870  0.2536  0.2680
 1032loPI   C2B16182   2.316  11.974   6.266 -0.2395 -0.2270  0.3072
 1032loPI   C3B16183   2.220  12.114   6.535  0.0027 -0.1525  0.1278
 1032loPI   C4B16184   2.257  12.132   6.962 -0.0645  0.1420  0.0042
 1033loPI    C116185   5.949   6.866   5.042 -0.0271 -0.0297  0.0469
 1033loPI    C216186   6.342   6.936   5.058 -0.0442  0.0593  0.0780
 1033loPI    C316187   6.208   6.570   4.970  0.0460  0.0048  0.1652
 1033loPI   PO416188   5.870   6.932   5.329  0.2746  0.4721  0.1073
 1033loPI   GL116189   5.610   6.752   5.636 -0.0232  0.1219  0.0488
 1033loPI   GL216190   5.534   7.010   5.792  0.1973 -0.0099  0.4103
 1033loPI   C1A16191   5.556   6.612   6.148  0.0658 -0.0749  0.0747
 1033loPI   C2A16192   5.561   6.744   6.574 -0.1482  0.1158 -0.0905
 1033loPI   C3A16193   5.583   6.894   7.047 -0.1191 -0.0008 -0.1890
 1033loPI   C4A16194   5.919   6.916   7.401  0.1001  0.0207 -0.1748
 1033loPI   C5A16195   6.323   7.101   7.338  0.0203  0.0716 -0.0640
 1033loPI   C6A16196   6.757   7.156   7.359  0.2928 -0.3283  0.0710
 1033loPI   C1B16197   5.303   7.056   6.224  0.0197  0.0208  0.0082
 1033loPI   C2B16198   5.313   7.227   6.611  0.2458  0.1766 -0.0324
 1033loPI   C3B16199   5.395   7.429   7.032 -0.0527  0.2811  0.0160
 1033loPI   C4B16200   5.516   7.374   7.365  0.0612 -0.1981  0.1518
 1034loPI    C116201   6.858   3.905   5.437  0.1180  0.1551 -0.1583
 1034loPI    C216202   6.733   3.532   5.365  0.2100  0.0902  0.0128
 1034loPI    C316203   6.985   3.710   5.111  0.0239  0.1042 -0.1649
 1034loPI   PO416204   6.969   3.906   5.711  0.2499  0.0580  0.0447
 1034loPI   GL116205   6.763   4.068   6.061  0.3075 -0.0949 -0.1240
 1034loPI   GL216206   6.867   4.435   5.991  0.1717 -0.0801  0.4074
 1034loPI   C1A16207   7.047   4.194   6.392 -0.0442 -0.1299 -0.0611
 1034loPI   C2A16208   6.857   3.973   6.739 -0.0834  0.1682  0.1665
 1034loPI   C3A16209   6.686   3.817   7.068 -0.4903 -0.1281 -0.0288
 1034loPI   C4A16210   6.420   3.937   7.439 -0.0407  0.0294 -0.0356
 1034loPI   C5A16211   6.047   3.855   7.626  0.0708 -0.0749 -0.0466
 1034loPI   C6A16212   5.989   3.707   8.014  0.1715 -0.0857 -0.1888
 1034loPI   C1B16213   6.773   4.864   6.106  0.0083 -0.1973  0.0819
 1034loPI   C2B16214   6.853   5.093   6.507  0.0872  0.1438  0.0892
 1034loPI   C3B16215   6.818   5.334   6.950  0.1839  0.0505 -0.1898
 1034loPI   C4B16216   6.945   5.616   7.239 -0.1646  0.1137  0.0898
 1035loPI    C116217   1.224   7.046   4.720  0.2265  0.4573 -0.0161
 1035loPI    C216218   1.143   7.403   4.560 -0.2315  0.3073 -0.1340
 1035loPI    C316219   1.162   7.080   4.326 -0.0600  0.2153  0.0050
 1035loPI   PO416220   1.101   7.052   4.978 -0.1464 -0.0395  0.1007
 1035loPI   GL116221   0.851   6.956   5.402  0.1322 -0.1620  0.0302
 1035loPI   GL216222   0.484   7.195   5.533  0.0547  0.0169  0.4168
 1035loPI   C1A16223   0.794   6.873   5.825 -0.1822 -0.2888 -0.3269
 1035loPI   C2A16224   0.724   6.899   6.264  0.0438 -0.0413  0.0019
 1035loPI   C3A16225   0.804   6.915   6.677  0.0239  0.0769  0.0479
 1035loPI   C4A16226   0.849   6.981   7.182 -0.1195  0.0869 -0.1314
 1035loPI   C5A16227   0.877   6.955   7.602 -0.0676 -0.2302  0.0496
 1035loPI   C6A16228   0.789   7.231   7.992 -0.1478 -0.2021  0.0640
 1035loPI   C1B16229   0.365   7.200   5.878  0.1819 -0.2020 -0.2128
 1035loPI   C2B16230   0.384   7.298   6.247  0.0856 -0.1814 -0.1067
 1035loPI   C3B16231   0.408   7.250   6.683 -0.1081  0.0044  0.2491
 1035loPI   C4B16232   0.528   7.416   7.099  0.2444  0.1094  0.2536
 1036loPI    C116233  13.864   7.745   5.107  0.1884  0.2514 -0.1025
 1036loPI    C216234  13.799   7.602   4.739 -0.0362  0.0096  0.0277
 1036loPI    C316235  13.544   7.865   4.898 -0.0831 -0.0852  0.1100
 1036loPI   PO416236  13.982   7.507   5.203 -0.0837  0.2172 -0.2553
 1036loPI   GL116237  13.905   7.384   5.500 -0.2644  0.0427  0.0378
 1036loPI   GL216238  14.029   7.216   5.656  0.1114 -0.0473  0.0435
 1036loPI   C1A16239  13.651   7.572   5.818 -0.0983 -0.1473 -0.1403
 1036loPI   C2A16240  13.591   7.523   6.287 -0.1454 -0.3277 -0.1446
 1036loPI   C3A16241  13.767   7.495   6.713  0.1084  0.0552  0.0124
 1036loPI   C4A16242  13.787   7.546   7.128  0.0452 -0.0921  0.3080
 1036loPI   C5A16243  13.828   7.504   7.543  0.1770  0.1306 -0.1511
 1036loPI   C6A16244  13.810   7.656   8.015  0.0762  0.0207 -0.3540
 1036loPI   C1B16245  14.044   7.235   6.116 -0.1057  0.0993  0.1157
 1036loPI   C2B16246  14.073   7.164   6.494  0.2845 -0.0504 -0.0877
 1036loPI   C3B16247  14.108   7.193   6.956 -0.0546 -0.1460  0.1556
 1036loPI   C4B16248  14.190   7.218   7.358 -0.0558  0.2803 -0.0927
 1037loPI    C116249  10.780  10.281   4.961 -0.1837 -0.1127 -0.1012
 1037loPI    C216250  11.173  10.333   5.016 -0.2359  0.0486  0.1291
 1037loPI    C316251  11.012  10.396   4.656 -0.0619  0.0511  0.0509
 1037loPI   PO416252  10.630  10.329   5.121  0.0425  0.0373  0.1027
 1037loPI   GL116253  10.821  10.132   5.471  0.1768 -0.0405 -0.5285
 1037loPI   GL216254  11.018  10.412   5.547 -0.0318  0.1535 -0.2145
 1037loPI   C1A16255  10.912  10.036   5.895  0.0436 -0.0758 -0.1846
 1037loPI   C2A16256  11.020   9.942   6.348  0.1313  0.3879 -0.1280
 1037loPI   C3A16257  11.101   9.920   6.729  0.0524  0.1256 -0.1429
 1037loPI   C4A16258  11.060   9.890   7.098 -0.2698  0.1523  0.0596
 1037loPI   C5A16259  11.074   9.740   7.529  0.1016 -0.0252  0.1357
 1037loPI   C6A16260  11.074   9.650   7.962 -0.1108 -0.1595  0.2311
 1037loPI   C1B16261  11.070  10.504   5.968 -0.0111  0.2988 -0.1970
 1037loPI   C2B16262  11.124  10.506   6.375  0.1020 -0.0359  0.1128
 1037loPI   C3B16263  11.244  10.477   6.799  0.1428  0.0034  0.1962
 1037loPI   C4B16264  11.174  10.375   7.262  0.0411  0.2312 -0.1209
 1038loPI    C116265   9.372   7.627   5.179  0.0755 -0.0439  0.0150
 1038loPI    C216266   9.579   7.864   4.932  0.0685 -0.1004 -0.0454
 1038loPI    C316267   9.200   7.954   5.027  0.0523 -0.1097 -0.1013
 1038loPI   PO416268   9.464   7.682   5.402  0.0417  0.3352 -0.2105
 1038loPI   GL116269   9.319   7.714   5.717  0.2679 -0.1384 -0.1097
 1038loPI   GL216270   9.063   7.661   5.914 -0.0944  0.3247 -0.0582
 1038loPI   C1A16271   9.496   7.842   6.149 -0.4551  0.0784 -0.1750
 1038loPI   C2A16272   9.601   7.613   6.513  0.3721  0.1821  0.2108
 1038loPI   C3A16273   9.586   7.558   6.915  0.0696 -0.1128 -0.1913
 1038loPI   C4A16274   9.628   7.708   7.283 -0.1766  0.4002 -0.0595
 1038loPI   C5A16275   9.683   7.627   7.714 -0.2918 -0.0386  0.0073
 1038loPI   C6A16276   9.965   7.724   7.988 -0.2265 -0.1004 -0.3239
 1038loPI   C1B16277   9.073   7.871   6.339 -0.1606  0.2067 -0.1437
 1038loPI   C2B16278   9.281   7.933   6.731 -0.1120  0.0941 -0.2086
 1038loPI   C3B16279   9.291   7.989   7.145 -0.1745  0.1702 -0.4062
 1038loPI   C4B16280   9.199   8.168   7.648  0.1199  0.4486  0.2190
 1039loPI    C116281  12.506   2.903   5.072 -0.1398  0.0324 -0.0065
 1039loPI    C216282  12.129   2.773   5.046 -0.0828 -0.1807  0.1988
 1039loPI    C316283  12.427   2.512   5.103  0.0770  0.0034  0.2145
 1039loPI   PO416284  12.476   3.044   5.249 -0.1352  0.1902 -0.2741
 1039loPI   GL116285  12.533   3.067   5.659  0.2553 -0.1138 -0.2127
 1039loPI   GL216286  12.733   2.884   5.906  0.1325 -0.0245 -0.0140
 1039loPI   C1A16287  12.454   3.247   6.092  0.1292  0.0770 -0.0999
 1039loPI   C2A16288  12.334   3.193   6.531 -0.0582  0.0734  0.0832
 1039loPI   C3A16289  12.257   2.917   6.936  0.0592 -0.0493 -0.1513
 1039loPI   C4A16290  12.185   2.730   7.327 -0.3288  0.2005  0.0334
 1039loPI   C5A16291  12.047   2.658   7.651 -0.0446  0.0219 -0.2688
 1039loPI   C6A16292  11.912   2.846   7.979  0.1417  0.1920  0.1581
 1039loPI   C1B16293  12.722   2.858   6.398  0.0474  0.2604  0.3642
 1039loPI   C2B16294  12.800   2.859   6.785 -0.2766 -0.3508 -0.0659
 1039loPI   C3B16295  12.676   2.901   7.228  0.3048 -0.1521 -0.0873
 1039loPI   C4B16296  12.496   3.112   7.682  0.3937  0.0527  0.1637
 1040loPI    C116297   6.540   0.786   5.353  0.0247 -0.0786 -0.0206
 1040loPI    C216298   6.529   1.101   5.106 -0.2591 -0.0031  0.0846
 1040loPI    C316299   6.506   0.730   4.958  0.0993  0.0213 -0.0417
 1040loPI   PO416300   6.321   0.868   5.550  0.0895 -0.0496 -0.2007
 1040loPI   GL116301   6.229   1.125   5.868 -0.0698 -0.3785 -0.1168
 1040loPI   GL216302   5.935   0.966   5.910  0.0399  0.1058  0.2577
 1040loPI   C1A16303   6.337   0.788   6.184  0.1947 -0.1754 -0.1085
 1040loPI   C2A16304   6.489   0.787   6.527 -0.1086 -0.1533 -0.1290
 1040loPI   C3A16305   6.419   0.815   6.922 -0.1251 -0.0972  0.0313
 1040loPI   C4A16306   6.414   0.731   7.356 -0.0469 -0.1106 -0.2359
 1040loPI   C5A16307   6.326   0.727   7.809 -0.2861  0.1559 -0.3244
 1040loPI   C6A16308   5.954   0.625   7.928  0.0656 -0.1310  0.3315
 1040loPI   C1B16309   5.840   0.986   6.330 -0.1840  0.2793  0.0237
 1040loPI   C2B16310   5.487   1.000   6.635 -0.1960 -0.0204 -0.1144
 1040loPI   C3B16311   5.500   0.902   7.109 -0.1474 -0.2268 -0.0151
 1040loPI   C4B16312   5.482   0.838   7.530 -0.3574  0.2459  0.2270
 1041loPI    C116313   4.935   4.418   5.307 -0.1210  0.0912  0.1317
 1041loPI    C216314   4.979   4.768   5.118  0.0247 -0.0514 -0.1031
 1041loPI    C316315   4.823   4.455   4.925  0.0907 -0.1747  0.0413
 1041loPI   PO416316   4.787   4.443   5.611  0.3106 -0.1786  0.1044
 1041loPI   GL116317   4.650   4.368   6.018 -0.0274 -0.1651  0.2927
 1041loPI   GL216318   4.776   4.719   6.079  0.0825 -0.0863 -0.1188
 1041loPI   C1A16319   4.422   4.381   6.362  0.1772 -0.2672  0.0026
 1041loPI   C2A16320   4.385   4.452   6.735  0.2319 -0.0609  0.0571
 1041loPI   C3A16321   4.292   4.344   7.145 -0.2953 -0.0558 -0.0891
 1041loPI   C4A16322   4.190   4.185   7.568  0.1885 -0.1069 -0.0663
 1041loPI   C5A16323   4.009   4.230   7.951  0.3293 -0.0008 -0.0337
 1041loPI   C6A16324   3.889   4.397   8.338  0.2024  0.0048  0.0791
 1041loPI   C1B16325   4.594   4.803   6.416  0.2053 -0.0731 -0.0049
 1041loPI   C2B16326   4.646   4.845   6.803 -0.0825  0.4245 -0.0817
 1041loPI   C3B16327   4.613   4.728   7.162 -0.0871  0.0463  0.1442
 1041loPI   C4B16328   4.459   4.693   7.587  0.0439  0.0376  0.0794
 1042loPI    C116329   3.652  13.177   5.154 -0.0407 -0.0516  0.1166
 1042loPI    C216330   3.260  13.104   5.181  0.0099 -0.3278  0.1332
 1042loPI    C316331   3.432  13.145   4.822 -0.0471 -0.1241  0.1277
 1042loPI   PO416332   3.797  12.999   5.331  0.1994  0.1784  0.0456
 1042loPI   GL116333   3.869  12.612   5.544  0.2551 -0.0088  0.1671
 1042loPI   GL216334   3.775  12.252   5.427  0.1279 -0.1469 -0.1657
 1042loPI   C1A16335   3.849  12.697   5.951  0.0079 -0.1039  0.0591
 1042loPI   C2A16336   3.573  12.710   6.220  0.1051 -0.2881  0.0034
 1042loPI   C3A16337   3.614  12.456   6.514 -0.0588 -0.2439 -0.1145
 1042loPI   C4A16338   3.695  12.141   6.996  0.0152  0.0658  0.0923
 1042loPI   C5A16339   3.621  12.282   7.394 -0.2886 -0.1588  0.0609
 1042loPI   C6A16340   3.833  12.366   7.863 -0.1344  0.0290  0.0183
 1042loPI   C1B16341   3.682  12.209   5.717  0.0689  0.3889  0.2301
 1042loPI   C2B16342   3.736  12.251   6.082  0.1575 -0.0406  0.1862
 1042loPI   C3B16343   3.937  12.057   6.411 -0.0254 -0.0323  0.0418
 1042loPI   C4B16344   4.018  11.851   6.791 -0.0130 -0.0928 -0.0092
 1043loPI    C116345  10.797  14.777   5.517 -0.0612 -0.0903 -0.0203
 1043loPI    C216346  10.985  14.859   5.173  0.0314 -0.0672  0.0356
 1043loPI    C316347  10.590  14.913   5.203  0.0556  0.1367 -0.0013
 1043loPI   PO416348  10.843  14.605   5.654  0.1484 -0.2024  0.0010
 1043loPI   GL116349  11.203  14.635   5.938 -0.0946 -0.2266  0.2846
 1043loPI   GL216350  11.106  14.958   6.161  0.2111  0.2216  0.0070
 1043loPI   C1A16351  11.388  14.451   6.288  0.1092  0.1607 -0.3983
 1043loPI   C2A16352  11.326  14.795   6.700  0.0147  0.2706  0.0170
 1043loPI   C3A16353  11.157  15.253   6.939  0.1053 -0.0270 -0.3587
 1043loPI   C4A16354  11.269  15.483   7.410 -0.0446 -0.0161  0.0903
 1043loPI   C5A16355  11.292  15.712   7.747 -0.1735  0.1798 -0.0690
 1043loPI   C6A16356  11.372  16.009   8.032  0.1825  0.2336 -0.1026
 1043loPI   C1B16357  10.864  14.915   6.488 -0.4249 -0.2246  0.0727
 1043loPI   C2B16358  10.521  14.666   6.460  0.1801 -0.0418  0.3395
 1043loPI   C3B16359  10.166  14.493   6.240 -0.0735 -0.1074 -0.1211
 1043loPI   C4B16360  10.037  14.133   6.347  0.1299  0.0859  0.1419
 1044loPI    C116361  13.279  11.519   5.051  0.2136 -0.1329 -0.1250
 1044loPI    C216362  13.206  11.413   4.672  0.0925 -0.2628 -0.0661
 1044loPI    C316363  13.559  11.327   4.839  0.2489  0.0366 -0.2342
 1044loPI   PO416364  13.091  11.374   5.267  0.0780 -0.0065 -0.1089
 1044loPI   GL116365  13.129  11.000   5.485 -0.0880  0.1654 -0.0073
 1044loPI   GL216366  13.451  10.837   5.766 -0.1094  0.1785  0.1765
 1044loPI   C1A16367  13.049  11.121   5.942  0.2320  0.0251 -0.0984
 1044loPI   C2A16368  13.087  11.105   6.370  0.3391 -0.1895  0.0929
 1044loPI   C3A16369  13.029  10.914   6.687  0.1814 -0.2092  0.0428
 1044loPI   C4A16370  13.044  10.989   7.189 -0.3164 -0.0947  0.1265
 1044loPI   C5A16371  13.050  11.033   7.678  0.2225  0.1422  0.0602
 1044loPI   C6A16372  12.911  10.691   7.950  0.0216  0.1495  0.2174
 1044loPI   C1B16373  13.466  10.506   6.136 -0.1826 -0.0979 -0.0726
 1044loPI   C2B16374  13.387  10.163   6.419 -0.0557  0.0701  0.2667
 1044loPI   C3B16375  13.543   9.919   6.693 -0.0127  0.1144 -0.0957
 1044loPI   C4B16376  13.809   9.795   7.110  0.0154 -0.4437  0.1066
 1045loPI    C116377  17.009  15.438   5.319  0.0509 -0.1105  0.1531
 1045loPI    C216378  16.905  15.493   4.937  0.2734 -0.1926  0.0789
 1045loPI    C316379  16.650  15.319   5.190  0.0298  0.0829  0.0285
 1045loPI   PO416380  17.128  15.718   5.343 -0.1884  0.2249  0.1401
 1045loPI   GL116381  17.360  15.872   5.669  0.1152 -0.2221 -0.1472
 1045loPI   GL216382  17.156  15.582   5.870  0.1327 -0.0683  0.1028
 1045loPI   C1A16383  17.347  16.055   6.010  0.2377  0.0821  0.0747
 1045loPI   C2A16384  17.369  16.155   6.498  0.2126 -0.1719  0.0101
 1045loPI   C3A16385  17.291  16.144   7.023  0.1647  0.2050  0.1778
 1045loPI   C4A16386  17.195  15.807   7.213 -0.2051 -0.0992  0.1963
 1045loPI   C5A16387  16.812  15.800   7.454 -0.2400  0.0676  0.0227
 1045loPI   C6A16388  16.426  15.563   7.696 -0.1850 -0.0240  0.0166
 1045loPI   C1B16389  17.115  15.358   6.172  0.2569  0.0914  0.2503
 1045loPI   C2B16390  17.259  15.113   6.495  0.0925 -0.1763 -0.1601
 1045loPI   C3B16391  17.451  15.147   6.975 -0.1192  0.1698  0.0090
 1045loPI   C4B16392  17.418  15.439   7.434 -0.2795 -0.1676 -0.2581
 1046loPI    C116393  12.131   5.480   5.192 -0.1260 -0.0061  0.0550
 1046loPI    C216394  11.891   5.799   5.196 -0.1860 -0.0474 -0.1350
 1046loPI    C316395  11.754   5.447   5.064 -0.0799 -0.1191 -0.0553
 1046loPI   PO416396  12.192   5.461   5.441  0.1107 -0.0720  0.3007
 1046loPI   GL116397  12.438   5.587   5.713  0.1246 -0.1697 -0.0776
 1046loPI   GL216398  12.655   5.727   5.644  0.1936 -0.2680 -0.0455
 1046loPI   C1A16399  12.416   5.560   6.105  0.0320 -0.1448 -0.0099
 1046loPI   C2A16400  12.401   5.646   6.606  0.4695  0.1422 -0.2461
 1046loPI   C3A16401  12.457   5.597   6.983 -0.1220 -0.0312 -0.2700
 1046loPI   C4A16402  12.604   5.741   7.409 -0.1196  0.1323  0.2965
 1046loPI   C5A16403  12.943   5.974   7.653 -0.1348 -0.0161 -0.2149
 1046loPI   C6A16404  13.199   6.378   7.736  0.2193 -0.2147  0.2829
 1046loPI   C1B16405  12.855   5.827   6.067 -0.2672 -0.1564 -0.0011
 1046loPI   C2B16406  13.018   5.797   6.517  0.2267 -0.0072 -0.0299
 1046loPI   C3B16407  12.906   5.764   6.892  0.0530 -0.0833 -0.0759
 1046loPI   C4B16408  13.074   5.669   7.296 -0.0621  0.0261  0.1651
 1047loPI    C116409   5.297   8.153   5.078 -0.0261 -0.0314 -0.1663
 1047loPI    C216410   4.973   8.384   5.123 -0.0082 -0.0236 -0.0771
 1047loPI    C316411   5.213   8.437   4.808 -0.1432 -0.0902 -0.1923
 1047loPI   PO416412   5.447   8.114   5.315 -0.1130 -0.0017 -0.0376
 1047loPI   GL116413   5.288   8.350   5.573  0.1968  0.0840 -0.0849
 1047loPI   GL216414   5.426   8.478   5.744 -0.0260 -0.0436 -0.2389
 1047loPI   C1A16415   5.195   8.095   6.019 -0.1602 -0.0421  0.0045
 1047loPI   C2A16416   5.266   8.152   6.389  0.1034 -0.2397 -0.1665
 1047loPI   C3A16417   5.238   8.421   6.803 -0.2260 -0.0340  0.1817
 1047loPI   C4A16418   5.227   8.419   7.281  0.0172  0.2241 -0.2544
 1047loPI   C5A16419   5.315   8.344   7.638  0.0063 -0.0213  0.1569
 1047loPI   C6A16420   5.011   8.180   7.988 -0.2235  0.1845  0.0339
 1047loPI   C1B16421   5.440   8.799   6.113  0.3093  0.1488 -0.1891
 1047loPI   C2B16422   5.269   8.888   6.536 -0.0681 -0.0829 -0.0059
 1047loPI   C3B16423   5.095   8.827   7.015  0.2151  0.0052 -0.1578
 1047loPI   C4B16424   4.818   8.955   7.347  0.0565 -0.0773  0.1521
 1048loPI    C116425  16.436   7.709   4.420  0.0933 -0.0077  0.0665
 1048loPI    C216426  16.444   7.533   4.061  0.2041 -0.0273  0.0779
 1048loPI    C316427  16.116   7.728   4.181  0.2402  0.1607 -0.1206
 1048loPI   PO416428  16.558   7.489   4.576  0.0462  0.1534  0.2560
 1048loPI   GL116429  16.675   7.553   5.124  0.2086  0.1175  0.4362
 1048loPI   GL216430  16.930   7.777   5.314 -0.1299 -0.0810 -0.3403
 1048loPI   C1A16431  16.659   7.388   5.478  0.0418 -0.0024  0.0204
 1048loPI   C2A16432  16.504   7.345   5.903 -0.0589  0.1237  0.0524
 1048loPI   C3A16433  16.545   7.337   6.316  0.2356  0.2702  0.0786
 1048loPI   C4A16434  16.516   7.467   6.733 -0.1675 -0.1919 -0.1416
 1048loPI   C5A16435  16.667   7.521   7.120 -0.1051 -0.1466 -0.0877
 1048loPI   C6A16436  16.524   7.407   7.491  0.1747  0.1750  0.3164
 1048loPI   C1B16437  17.065   7.572   5.690 -0.1211 -0.0253 -0.1962
 1048loPI   C2B16438  17.040   7.636   6.097 -0.0981  0.1109 -0.0060
 1048loPI   C3B16439  17.009   7.738   6.508  0.1216 -0.0396 -0.1116
 1048loPI   C4B16440  17.077   7.731   6.931  0.1403 -0.2502  0.1336
 1049loPI    C116441  11.410   8.052   5.185  0.0769 -0.0187  0.1272
 1049loPI    C216442  11.739   8.064   5.412  0.1099 -0.1482  0.0872
 1049loPI    C316443  11.735   7.845   5.077  0.1590  0.2677 -0.1926
 1049loPI   PO416444  11.320   8.270   5.206 -0.0454 -0.0282  0.0454
 1049loPI   GL116445  11.223   8.402   5.567 -0.2399  0.3734 -0.3033
 1049loPI   GL216446  11.499   8.403   5.719 -0.1628  0.1051  0.0266
 1049loPI   C1A16447  11.079   8.202   5.919 -0.0063  0.0312  0.0525
 1049loPI   C2A16448  11.015   8.132   6.285 -0.1001 -0.0617  0.0918
 1049loPI   C3A16449  11.063   8.048   6.710 -0.0571 -0.1085  0.0502
 1049loPI   C4A16450  11.077   8.010   7.129  0.0998 -0.2377  0.0395
 1049loPI   C5A16451  11.128   8.078   7.566 -0.0147  0.2472 -0.1777
 1049loPI   C6A16452  11.440   7.922   7.871  0.0395  0.0874 -0.2831
 1049loPI   C1B16453  11.498   8.395   6.151 -0.2434  0.0948 -0.2597
 1049loPI   C2B16454  11.467   8.195   6.465 -0.0283  0.0612 -0.1557
 1049loPI   C3B16455  11.571   8.201   6.889  0.0838  0.1208 -0.0264
 1049loPI   C4B16456  11.609   8.169   7.396  0.1314  0.0994 -0.2426
 1050loPI    C116457  11.584   6.334   5.048  0.0433 -0.1512 -0.2059
 1050loPI    C216458  11.275   6.496   4.852  0.1398  0.0995 -0.1552
 1050loPI    C316459  11.594   6.365   4.649 -0.0627 -0.3077 -0.2216
 1050loPI   PO416460  11.498   6.561   5.290  0.0372  0.0844 -0.1298
 1050loPI   GL116461  11.749   6.860   5.624  0.1046  0.0061  0.1781
 1050loPI   GL216462  11.916   7.162   5.647 -0.1695  0.0090  0.1109
 1050loPI   C1A16463  11.570   6.739   6.060  0.1857 -0.2119  0.0402
 1050loPI   C2A16464  11.640   6.807   6.527  0.0400 -0.0872 -0.3632
 1050loPI   C3A16465  11.861   6.785   6.990 -0.1791  0.1244 -0.0633
 1050loPI   C4A16466  11.908   6.834   7.400 -0.1120 -0.1870  0.1207
 1050loPI   C5A16467  11.753   6.953   7.813  0.1524  0.0093 -0.3078
 1050loPI   C6A16468  11.933   7.094   8.149 -0.4161  0.0296  0.0503
 1050loPI   C1B16469  12.038   6.947   6.064 -0.0720  0.1240 -0.0410
 1050loPI   C2B16470  12.104   7.044   6.495  0.0979 -0.1250 -0.0556
 1050loPI   C3B16471  12.287   7.026   6.885 -0.1708 -0.0288  0.1479
 1050loPI   C4B16472  12.401   6.914   7.259 -0.1270  0.1803  0.1315
 1051loPI    C116473   8.487  10.207   5.062 -0.2968 -0.1434  0.0424
 1051loPI    C216474   8.250   9.927   4.902 -0.2045 -0.1585 -0.0690
 1051loPI    C316475   8.645   9.869   4.919 -0.2142 -0.1638  0.1797
 1051loPI   PO416476   8.394  10.243   5.257  0.0035 -0.0780 -0.3818
 1051loPI   GL116477   8.457  10.224   5.599 -0.2684 -0.1671  0.3488
 1051loPI   GL216478   8.480  10.523   5.722 -0.1203 -0.1421  0.0297
 1051loPI   C1A16479   8.526  10.087   5.996 -0.3897 -0.0193 -0.1784
 1051loPI   C2A16480   8.345  10.206   6.415  0.0113  0.1564 -0.2977
 1051loPI   C3A16481   8.076  10.195   6.632  0.1792 -0.2392  0.3905
 1051loPI   C4A16482   8.054  10.244   7.060 -0.0814 -0.3454 -0.0891
 1051loPI   C5A16483   8.168  10.246   7.506  0.1262 -0.2179 -0.0737
 1051loPI   C6A16484   8.201  10.652   7.649  0.0049 -0.0191 -0.1129
 1051loPI   C1B16485   8.155  10.381   6.010  0.0759 -0.2200  0.0850
 1051loPI   C2B16486   7.878  10.538   6.374 -0.0432  0.1074 -0.2380
 1051loPI   C3B16487   7.510  10.337   6.591 -0.1094  0.0820 -0.0409
 1051loPI   C4B16488   7.397  10.110   7.000 -0.0740  0.4468 -0.1673
 1052loPI    C116489  15.275  10.209   5.154  0.0106 -0.0703  0.1333
 1052loPI    C216490  15.088  10.013   4.859  0.0865  0.1459 -0.0624
 1052loPI    C316491  14.902  10.310   5.050  0.0726  0.0698  0.0434
 1052loPI   PO416492  15.522  10.268   5.152 -0.0106 -0.2608 -0.0743
 1052loPI   GL116493  15.747  10.393   5.595 -0.0590  0.3200  0.1235
 1052loPI   GL216494  15.548  10.653   5.546  0.0339 -0.0145 -0.0037
 1052loPI   C1A16495  15.768  10.541   6.031 -0.0193 -0.0825 -0.2348
 1052loPI   C2A16496  15.798  10.521   6.470 -0.0489 -0.0201 -0.2275
 1052loPI   C3A16497  15.724  10.515   6.927 -0.1337  0.1501  0.0411
 1052loPI   C4A16498  15.775  10.591   7.447 -0.2146  0.1690 -0.0906
 1052loPI   C5A16499  15.665  10.540   7.779 -0.0211 -0.0225  0.1440
 1052loPI   C6A16500  15.697  10.382   8.208  0.3281 -0.1363 -0.2470
 1052loPI   C1B16501  15.716  11.008   5.849  0.1118  0.0833  0.0249
 1052loPI   C2B16502  15.849  11.025   6.312  0.1733  0.1115  0.2706
 1052loPI   C3B16503  15.795  11.043   6.729 -0.1168  0.0630 -0.0622
 1052loPI   C4B16504  15.847  11.010   7.141  0.0596  0.2454 -0.2899
 1053loPI    C116505  17.827  12.531   5.159 -0.2217 -0.0906 -0.0997
 1053loPI    C216506  18.043  12.843   5.034 -0.0433 -0.1218  0.1226
 1053loPI    C316507  17.922  12.566   4.772  0.0263 -0.0069 -0.0332
 1053loPI   PO416508  17.613  12.651   5.283  0.1289  0.0753 -0.0875
 1053loPI   GL116509  17.630  12.761   5.710  0.2261 -0.1573  0.2416
 1053loPI   GL216510  17.589  12.442   5.743  0.0256 -0.0961 -0.2053
 1053loPI   C1A16511  17.978  12.672   6.025 -0.0058  0.1657  0.1363
 1053loPI   C2A16512  17.963  12.731   6.496  0.1122  0.0462 -0.2076
 1053loPI   C3A16513  18.001  12.685   6.897  0.1919  0.0557  0.1686
 1053loPI   C4A16514  17.991  12.730   7.349  0.1601  0.1817  0.2692
 1053loPI   C5A16515  18.062  12.483   7.652  0.2243  0.0241 -0.4164
 1053loPI   C6A16516  18.143  12.135   7.895 -0.2711 -0.1966 -0.0738
 1053loPI   C1B16517  17.812  12.247   5.984  0.0779  0.0254  0.4422
 1053loPI   C2B16518  17.923  12.175   6.413  0.1577  0.0019  0.0987
 1053loPI   C3B16519  17.845  12.114   6.887 -0.1038  0.0682 -0.1367
 1053loPI   C4B16520  17.880  12.035   7.363 -0.2558  0.4716 -0.0143
 1054loPI    C116521   9.333   3.844   5.506 -0.1621 -0.1194 -0.1600
 1054loPI    C216522   9.134   4.178   5.600  0.2430  0.0476  0.1295
 1054loPI    C316523   9.271   4.125   5.228 -0.2298 -0.0173 -0.0424
 1054loPI   PO416524   9.451   3.788   5.673  0.0011  0.0858 -0.0885
 1054loPI   GL116525   9.455   4.060   5.995  0.1239 -0.0648 -0.1105
 1054loPI   GL216526   9.690   4.073   6.113 -0.0030 -0.2071 -0.0259
 1054loPI   C1A16527   9.239   4.373   6.183 -0.0624  0.1529  0.0052
 1054loPI   C2A16528   9.142   4.626   6.538 -0.0677 -0.0805 -0.0833
 1054loPI   C3A16529   9.113   4.862   6.847 -0.0167 -0.1023 -0.0539
 1054loPI   C4A16530   9.063   5.003   7.215  0.2220 -0.0783 -0.1957
 1054loPI   C5A16531   9.094   4.944   7.586 -0.0555 -0.1858  0.0020
 1054loPI   C6A16532   9.304   4.889   7.941  0.2409 -0.2962 -0.0515
 1054loPI   C1B16533   9.542   4.249   6.578 -0.2103 -0.3090  0.1527
 1054loPI   C2B16534   9.441   4.364   6.932  0.2872  0.0959 -0.1120
 1054loPI   C3B16535   9.421   4.608   7.153  0.0988 -0.1357  0.4016
 1054loPI   C4B16536   9.428   4.490   7.594  0.2995 -0.0396  0.0734
 1055loPI    C116537   4.840   7.433   4.940 -0.0963  0.0839 -0.2554
 1055loPI    C216538   4.501   7.607   5.064 -0.0279 -0.1512  0.2900
 1055loPI    C316539   4.707   7.764   4.758 -0.3403  0.3060  0.3049
 1055loPI   PO416540   4.888   7.335   5.237  0.0829  0.1662 -0.0412
 1055loPI   GL116541   4.741   7.535   5.528 -0.1162 -0.0597  0.3075
 1055loPI   GL216542   4.538   7.298   5.612  0.2183  0.1995  0.0335
 1055loPI   C1A16543   4.943   7.694   6.005 -0.0209  0.1014  0.0883
 1055loPI   C2A16544   4.966   7.717   6.438 -0.0424  0.1980 -0.0250
 1055loPI   C3A16545   4.973   7.974   6.763 -0.1015 -0.0331  0.0241
 1055loPI   C4A16546   4.875   8.111   7.135 -0.5747 -0.0657  0.0440
 1055loPI   C5A16547   4.804   7.978   7.520 -0.1163 -0.2874 -0.0287
 1055loPI   C6A16548   4.931   7.668   7.960  0.1109  0.0564  0.1989
 1055loPI   C1B16549   4.373   7.128   5.946 -0.0141  0.0117 -0.1209
 1055loPI   C2B16550   4.199   7.071   6.444 -0.2325  0.1566 -0.0682
 1055loPI   C3B16551   4.318   7.127   6.860 -0.2182 -0.2275  0.4139
 1055loPI   C4B16552   4.574   7.062   7.216  0.1506  0.1429 -0.2299
 1056loPI    C116553   7.536   4.338   5.473  0.3782 -0.0602  0.0067
 1056loPI    C216554   7.513   4.242   5.085 -0.3284  0.0923 -0.0023
 1056loPI    C316555   7.349   4.002   5.361  0.0466  0.0566  0.1962
 1056loPI   PO416556   7.526   4.536   5.542  0.1184 -0.1729 -0.2681
 1056loPI   GL116557   7.330   4.719   5.807  0.1802 -0.2330  0.0883
 1056loPI   GL216558   7.089   4.891   5.734  0.3811  0.0470  0.0347
 1056loPI   C1A16559   7.251   4.686   6.126  0.0291  0.0938 -0.0729
 1056loPI   C2A16560   7.075   4.625   6.576  0.0297 -0.0847 -0.1393
 1056loPI   C3A16561   7.047   4.411   6.903  0.1248  0.0911  0.0697
 1056loPI   C4A16562   7.345   4.377   7.189  0.2213 -0.1341 -0.1463
 1056loPI   C5A16563   7.810   4.494   7.332 -0.3294  0.1960 -0.4121
 1056loPI   C6A16564   8.157   4.758   7.415 -0.2472 -0.0184  0.1447
 1056loPI   C1B16565   7.150   5.160   6.053 -0.0879  0.1367  0.0967
 1056loPI   C2B16566   7.373   5.012   6.420 -0.3011 -0.3920  0.0527
 1056loPI   C3B16567   7.238   5.015   6.912 -0.4296  0.4040 -0.0819
 1056loPI   C4B16568   7.536   4.822   7.178 -0.1757  0.0188 -0.1513
 1057loPI    C116569   0.458   5.442   4.698 -0.2774 -0.1027 -0.0988
 1057loPI    C216570   0.834   5.306   4.699 -0.2188  0.0519  0.2349
 1057loPI    C316571   0.726   5.594   4.443 -0.0369  0.1986  0.3200
 1057loPI   PO416572   0.343   5.509   5.048 -0.2832 -0.0123 -0.0951
 1057loPI   GL116573   0.452   5.716   5.350  0.1942 -0.0082  0.1867
 1057loPI   GL216574   0.368   5.455   5.613 -0.1472 -0.1732  0.0896
 1057loPI   C1A16575   0.134   5.964   5.602  0.4248 -0.3240 -0.1393
 1057loPI   C2A16576   0.119   6.138   6.107  0.0641 -0.1887 -0.0923
 1057loPI   C3A16577   0.167   6.212   6.572  0.0208 -0.1166 -0.3273
 1057loPI   C4A16578   0.125   6.408   7.043 -0.4246 -0.1790  0.2287
 1057loPI   C5A16579  -0.005   6.361   7.480  0.1662  0.2785  0.1409
 1057loPI   C6A16580  -0.311   6.231   7.807 -0.3245 -0.2892  0.0546
 1057loPI   C1B16581   0.445   5.271   6.048  0.2908 -0.0962  0.0150
 1057loPI   C2B16582   0.398   5.378   6.501  0.2372 -0.3338  0.2662
 1057loPI   C3B16583   0.461   5.417   6.882 -0.1247  0.1438 -0.1650
 1057loPI   C4B16584   0.597   5.516   7.299  0.2987 -0.1022  0.0824
 1058loPI    C116585  17.285   8.643   4.745  0.0758 -0.1219  0.1047
 1058loPI    C216586  17.095   8.820   4.441  0.0736 -0.0599  0.1419
 1058loPI    C316587  17.486   8.741   4.413  0.0732 -0.0550  0.1228
 1058loPI   PO416588  17.130   8.712   4.991  0.3909 -0.1365 -0.0830
 1058loPI   GL116589  17.054   8.962   5.286 -0.2677  0.0752 -0.1977
 1058loPI   GL216590  16.911   8.704   5.473  0.0392 -0.2705 -0.0549
 1058loPI   C1A16591  17.399   9.044   5.589  0.2369 -0.1645  0.3082
 1058loPI   C2A16592  17.324   9.085   6.073 -0.0835 -0.0533  0.1257
 1058loPI   C3A16593  17.365   9.149   6.481 -0.0350 -0.1364  0.1230
 1058loPI   C4A16594  17.265   9.165   6.864 -0.3780  0.3717  0.0460
 1058loPI   C5A16595  17.214   9.238   7.384  0.1075  0.1676 -0.0254
 1058loPI   C6A16596  17.173   9.016   7.676  0.0707  0.1444  0.1218
 1058loPI   C1B16597  17.210   8.645   5.797 -0.1532  0.1950 -0.1578
 1058loPI   C2B16598  17.164   8.635   6.240 -0.1867 -0.1874 -0.0051
 1058loPI   C3B16599  17.177   8.726   6.710  0.0761  0.2738 -0.1158
 1058loPI   C4B16600  17.219   8.741   7.207 -0.1292  0.5013 -0.0020
 1059loPI    C116601   0.908   8.845   4.574 -0.0315 -0.1047 -0.0907
 1059loPI    C216602   1.195   8.642   4.383  0.1397  0.0122  0.0392
 1059loPI    C316603   1.260   9.020   4.497 -0.0428  0.0180  0.1272
 1059loPI   PO416604   0.780   8.724   4.689  0.0945  0.2912  0.0639
 1059loPI   GL116605   0.736   8.778   5.173 -0.0798 -0.0414  0.0088
 1059loPI   GL216606   0.941   8.748   5.364 -0.1922 -0.1636  0.2117
 1059loPI   C1A16607   0.396   8.636   5.434 -0.0927  0.0767 -0.1941
 1059loPI   C2A16608   0.227   8.578   5.897  0.0532  0.0706  0.1047
 1059loPI   C3A16609   0.142   8.617   6.201 -0.2637 -0.0517  0.1217
 1059loPI   C4A16610   0.127   8.737   6.667 -0.5445  0.0196 -0.2468
 1059loPI   C5A16611   0.191   8.828   7.093 -0.0749  0.0211 -0.2259
 1059loPI   C6A16612   0.507   8.972   7.353  0.0308  0.2585  0.1730
 1059loPI   C1B16613   0.716   8.721   5.753 -0.0079 -0.1078  0.1440
 1059loPI   C2B16614   0.646   8.859   6.154  0.1487  0.4309  0.0637
 1059loPI   C3B16615   0.584   8.728   6.489  0.0202 -0.1211 -0.2632
 1059loPI   C4B16616   0.660   8.893   6.837 -0.0380  0.2362 -0.0432
 1060loPI    C116617   7.724  10.799   5.205 -0.0925  0.0991  0.1617
 1060loPI    C216618   7.329  10.857   5.180 -0.0959  0.0370  0.0648
 1060loPI    C316619   7.574  11.041   4.923 -0.0685  0.0078  0.0701
 1060loPI   PO416620   7.775  10.876   5.436 -0.2166  0.1282 -0.1396
 1060loPI   GL116621   8.125  11.024   5.648  0.1044  0.0855  0.0353
 1060loPI   GL216622   7.857  11.065   5.853 -0.0943  0.0886 -0.1184
 1060loPI   C1A16623   8.265  10.916   6.026  0.0109  0.2045 -0.0300
 1060loPI   C2A16624   8.318  10.705   6.482  0.0497  0.2259 -0.0426
 1060loPI   C3A16625   8.451  10.807   6.910 -0.1388  0.2041  0.0138
 1060loPI   C4A16626   8.439  10.919   7.310  0.1514 -0.1225 -0.1593
 1060loPI   C5A16627   8.306  11.118   7.776  0.0291 -0.1575  0.0213
 1060loPI   C6A16628   8.328  11.594   7.797  0.0349  0.2804  0.0900
 1060loPI   C1B16629   7.792  11.056   6.360 -0.0865  0.2386 -0.2956
 1060loPI   C2B16630   7.683  10.861   6.729 -0.5889 -0.2584 -0.1439
 1060loPI   C3B16631   7.679  10.717   7.118 -0.2704 -0.0946 -0.0817
 1060loPI   C4B16632   7.864  10.917   7.461 -0.0848  0.0822  0.1879
 1061loPI    C116633  16.804   3.318   5.198  0.0486  0.3047 -0.0644
 1061loPI    C216634  16.817   3.259   4.802  0.0192  0.0397 -0.0277
 1061loPI    C316635  17.151   3.225   5.021  0.0097  0.0524 -0.0112
 1061loPI   PO416636  16.634   3.188   5.282 -0.0906 -0.0784 -0.1841
 1061loPI   GL116637  16.404   3.245   5.582 -0.1684 -0.1166  0.0157
 1061loPI   GL216638  16.107   3.414   5.603  0.2429 -0.0818 -0.4143
 1061loPI   C1A16639  16.427   3.231   6.051 -0.1846 -0.2598 -0.0428
 1061loPI   C2A16640  16.489   3.226   6.498  0.0709  0.1822  0.1089
 1061loPI   C3A16641  16.542   3.295   6.861 -0.0524  0.0614  0.1398
 1061loPI   C4A16642  16.544   3.283   7.279 -0.1164 -0.1960  0.2313
 1061loPI   C5A16643  16.495   3.348   7.666 -0.0927 -0.0361 -0.2396
 1061loPI   C6A16644  16.481   2.996   8.014 -0.0674  0.1956 -0.2150
 1061loPI   C1B16645  16.079   3.587   5.935 -0.1378 -0.1927 -0.1770
 1061loPI   C2B16646  16.139   3.631   6.315  0.1100  0.0011  0.2118
 1061loPI   C3B16647  16.136   3.582   6.817  0.2318 -0.0303  0.2191
 1061loPI   C4B16648  16.280   3.721   7.229 -0.1135 -0.0417 -0.1411
 1062loPI    C116649  10.773   7.953   5.050  0.2627 -0.2749 -0.3781
 1062loPI    C216650  11.085   7.838   4.827  0.3791  0.0279 -0.3768
 1062loPI    C316651  10.988   8.226   4.850  0.3100 -0.0090  0.0228
 1062loPI   PO416652  10.862   7.852   5.328 -0.1048 -0.0257 -0.1179
 1062loPI   GL116653  10.893   7.713   5.640 -0.2177 -0.1866 -0.1526
 1062loPI   GL216654  11.245   7.800   5.615  0.0631 -0.0165 -0.0454
 1062loPI   C1A16655  10.872   7.570   6.070 -0.0542  0.2526  0.0696
 1062loPI   C2A16656  10.873   7.531   6.486  0.4969  0.1656 -0.1672
 1062loPI   C3A16657  11.033   7.548   6.950  0.0233 -0.1375 -0.1196
 1062loPI   C4A16658  10.975   7.517   7.459 -0.1002 -0.0330  0.5224
 1062loPI   C5A16659  10.977   7.652   7.955 -0.5013  0.1578  0.0846
 1062loPI   C6A16660  10.959   7.888   8.288 -0.3681 -0.1672 -0.0245
 1062loPI   C1B16661  11.314   7.726   6.037  0.0511 -0.3345 -0.1281
 1062loPI   C2B16662  11.344   7.673   6.453  0.2043 -0.3287 -0.1128
 1062loPI   C3B16663  11.500   7.706   6.855 -0.2713 -0.4722  0.0585
 1062loPI   C4B16664  11.455   7.643   7.339  0.0674 -0.1441  0.0780
 1063loPI    C116665  12.193   0.088   5.651  0.0530 -0.0862  0.1590
 1063loPI    C216666  12.552  -0.067   5.734  0.0988 -0.1104 -0.0787
 1063loPI    C316667  12.416  -0.067   5.357  0.0440  0.3093 -0.0635
 1063loPI   PO416668  11.980  -0.012   5.936 -0.3260  0.5365 -0.0088
 1063loPI   GL116669  11.935  -0.271   6.294  0.3266  0.0275 -0.1045
 1063loPI   GL216670  11.944   0.061   6.454 -0.1281  0.2999  0.0831
 1063loPI   C1A16671  11.944  -0.363   6.814  0.0236 -0.0407 -0.2062
 1063loPI   C2A16672  12.036  -0.616   7.222 -0.3620  0.2512 -0.0674
 1063loPI   C3A16673  12.134  -0.855   7.572 -0.0012  0.2129 -0.1285
 1063loPI   C4A16674  12.061  -1.133   8.013 -0.0330  0.0064  0.1465
 1063loPI   C5A16675  12.133  -1.216   8.319  0.0645 -0.0449  0.1293
 1063loPI   C6A16676  12.547  -1.138   8.439  0.0871  0.2581  0.1689
 1063loPI   C1B16677  12.046   0.122   6.895  0.2421  0.1377 -0.0397
 1063loPI   C2B16678  12.000  -0.013   7.341  0.0036  0.1249  0.1673
 1063loPI   C3B16679  11.987  -0.310   7.681  0.0861 -0.0977  0.1379
 1063loPI   C4B16680  11.818  -0.677   7.884  0.1620  0.2323  0.0009
 1064loPI    C116681  10.431   2.819   6.086 -0.4025 -0.1105 -0.0226
 1064loPI    C216682  10.396   2.881   5.693 -0.2009 -0.2990 -0.0718
 1064loPI    C316683  10.180   2.595   5.870 -0.3612 -0.1521 -0.0276
 1064loPI   PO416684  10.577   3.109   6.125 -0.2566  0.1473 -0.0340
 1064loPI   GL116685  10.639   3.223   6.456 -0.2297 -0.1726 -0.4472
 1064loPI   GL216686  10.328   3.133   6.538 -0.0403 -0.2414  0.0435
 1064loPI   C1A16687  10.996   3.218   6.831 -0.0655 -0.0517  0.1238
 1064loPI   C2A16688  10.852   3.173   7.226  0.1507  0.2881  0.2211
 1064loPI   C3A16689  10.525   3.305   7.589  0.0611 -0.0509 -0.1140
 1064loPI   C4A16690  10.073   3.325   7.719 -0.0912  0.1325 -0.1205
 1064loPI   C5A16691   9.619   3.579   7.975 -0.0891 -0.0138  0.1153
 1064loPI   C6A16692   9.425   3.977   7.914 -0.0707 -0.0101 -0.0714
 1064loPI   C1B16693  10.162   2.902   6.785  0.0013  0.1984  0.1129
 1064loPI   C2B16694   9.884   2.588   6.965  0.1044  0.2120  0.0348
 1064loPI   C3B16695   9.627   2.512   7.277 -0.0373 -0.0722 -0.0301
 1064loPI   C4B16696   9.299   2.339   7.583 -0.0145  0.0682 -0.1240
 1065loPI    C116697   4.268   4.296   5.707 -0.5009 -0.0155  0.1863
 1065loPI    C216698   4.044   4.460   5.419 -0.0463  0.2126 -0.0490
 1065loPI    C316699   4.388   4.279   5.326 -0.1230 -0.1302  0.3057
 1065loPI   PO416700   4.180   4.089   5.773  0.1280  0.2181  0.0611
 1065loPI   GL116701   3.708   3.931   5.880 -0.1890  0.0056 -0.0007
 1065loPI   GL216702   3.841   3.739   6.005  0.1493 -0.1037  0.5291
 1065loPI   C1A16703   3.512   4.074   6.270 -0.0585  0.3635 -0.0365
 1065loPI   C2A16704   3.451   4.252   6.697  0.0314  0.2332 -0.1009
 1065loPI   C3A16705   3.301   4.295   7.087  0.4734  0.0561 -0.1918
 1065loPI   C4A16706   3.042   4.220   7.479 -0.0117  0.0044  0.1295
 1065loPI   C5A16707   3.002   3.961   7.883  0.0173 -0.2457 -0.0055
 1065loPI   C6A16708   3.087   3.731   8.241  0.0388 -0.2691 -0.1946
 1065loPI   C1B16709   3.906   3.555   6.370  0.1783  0.0333 -0.0917
 1065loPI   C2B16710   4.192   3.575   6.773  0.0783  0.1795  0.0571
 1065loPI   C3B16711   4.232   3.471   7.186 -0.0996 -0.1192 -0.0665
 1065loPI   C4B16712   4.382   3.686   7.553 -0.1472 -0.1677 -0.0556
 1066loPI    C116713  14.770   1.301   4.819 -0.0519  0.2004 -0.2400
 1066loPI    C216714  14.985   1.048   4.598 -0.3156 -0.0619 -0.2029
 1066loPI    C316715  14.614   1.146   4.485 -0.2849  0.1605 -0.1153
 1066loPI   PO416716  14.862   1.207   5.069 -0.0625 -0.0417 -0.0241
 1066loPI   GL116717  14.876   1.134   5.556  0.0525 -0.2063  0.1447
 1066loPI   GL216718  14.579   1.211   5.631 -0.0571  0.0783 -0.1650
 1066loPI   C1A16719  15.150   1.280   5.801 -0.2214 -0.0610  0.2192
 1066loPI   C2A16720  15.148   1.326   6.178 -0.2177 -0.0181 -0.2161
 1066loPI   C3A16721  15.114   1.323   6.699  0.2532 -0.1014 -0.0176
 1066loPI   C4A16722  15.171   1.455   7.111  0.0642  0.3318  0.0562
 1066loPI   C5A16723  15.118   1.552   7.498  0.0715 -0.4075 -0.1732
 1066loPI   C6A16724  14.977   1.287   7.814  0.3341  0.0319 -0.1063
 1066loPI   C1B16725  14.592   1.181   6.018  0.1961 -0.0737 -0.1715
 1066loPI   C2B16726  14.689   1.189   6.429  0.1672 -0.1120  0.2304
 1066loPI   C3B16727  14.711   1.214   6.894  0.2058  0.2617 -0.0862
 1066loPI   C4B16728  14.697   1.249   7.378  0.1773  0.3687  0.0561
 1067loPI    C116729   5.734   2.386   5.515 -0.2714  0.4417 -0.1581
 1067loPI    C216730   5.383   2.278   5.356 -0.0633  0.1066 -0.4041
 1067loPI    C316731   5.722   2.113   5.223  0.1583  0.1464  0.0895
 1067loPI   PO416732   5.550   2.309   5.931  0.1585  0.0381 -0.0563
 1067loPI   GL116733   5.338   2.443   6.308 -0.0458  0.0152  0.0364
 1067loPI   GL216734   5.279   2.837   6.271  0.1371 -0.0018  0.2589
 1067loPI   C1A16735   5.423   2.531   6.720 -0.2006  0.1311 -0.1278
 1067loPI   C2A16736   5.511   2.640   7.215 -0.2577  0.1109 -0.0319
 1067loPI   C3A16737   5.319   2.977   7.565  0.2448  0.0275 -0.2679
 1067loPI   C4A16738   5.460   3.168   7.957  0.1226  0.0421 -0.1175
 1067loPI   C5A16739   5.976   3.165   8.122  0.0729  0.0844 -0.0841
 1067loPI   C6A16740   6.276   2.869   7.941 -0.1389  0.0652 -0.0745
 1067loPI   C1B16741   5.348   2.998   6.562 -0.2051  0.2303  0.2353
 1067loPI   C2B16742   5.338   3.085   6.972 -0.0252 -0.0808  0.0046
 1067loPI   C3B16743   5.752   3.057   7.246  0.1767  0.0386  0.0969
 1067loPI   C4B16744   5.888   3.216   7.656  0.3321  0.1485 -0.0461
 1068loPI    C116745   2.517   5.915   5.034 -0.0588  0.2260 -0.1415
 1068loPI    C216746   2.396   5.970   4.657 -0.0931 -0.0041 -0.1650
 1068loPI    C316747   2.730   5.762   4.732  0.0151  0.1990 -0.0762
 1068loPI   PO416748   2.290   5.851   5.180  0.2000  0.2354 -0.3329
 1068loPI   GL116749   2.091   5.963   5.490 -0.2280  0.2230  0.1460
 1068loPI   GL216750   1.971   6.231   5.435 -0.3615 -0.2846 -0.2919
 1068loPI   C1A16751   2.179   5.812   5.961 -0.1066 -0.0173  0.1989
 1068loPI   C2A16752   2.070   5.498   6.349  0.1420  0.2992  0.0550
 1068loPI   C3A16753   2.003   5.726   6.749 -0.2470 -0.1603  0.1549
 1068loPI   C4A16754   1.991   5.771   7.100 -0.0671 -0.1328  0.1589
 1068loPI   C5A16755   1.934   6.212   7.390  0.1901 -0.1689  0.1450
 1068loPI   C6A16756   1.788   6.594   7.557  0.0931 -0.1828 -0.0117
 1068loPI   C1B16757   1.959   6.272   5.866  0.0074 -0.3176  0.2319
 1068loPI   C2B16758   2.076   6.182   6.314 -0.1977 -0.2618  0.0053
 1068loPI   C3B16759   2.103   6.411   6.759  0.0571 -0.0019  0.0442
 1068loPI   C4B16760   2.314   6.204   7.099  0.1123 -0.0771 -0.1154
 1069loPI    C116761  16.810  11.658   5.153 -0.1914  0.2714  0.0368
 1069loPI    C216762  16.517  11.885   5.001 -0.1369  0.1746 -0.2174
 1069loPI    C316763  16.791  11.722   4.759 -0.1235 -0.0906 -0.0285
 1069loPI   PO416764  16.732  11.811   5.418 -0.1040 -0.1272  0.1654
 1069loPI   GL116765  16.552  11.942   5.833 -0.0497  0.0107  0.0768
 1069loPI   GL216766  16.429  11.622   5.804 -0.0582 -0.3346  0.2067
 1069loPI   C1A16767  16.548  12.130   6.286  0.3442 -0.4509 -0.1844
 1069loPI   C2A16768  16.571  12.157   6.591  0.0279  0.1472 -0.0012
 1069loPI   C3A16769  16.407  12.119   6.971 -0.2577 -0.1977 -0.0597
 1069loPI   C4A16770  16.541  12.172   7.392 -0.1833  0.0672  0.2215
 1069loPI   C5A16771  16.681  12.471   7.612  0.1414  0.0456  0.3338
 1069loPI   C6A16772  16.628  12.711   8.099  0.1732  0.2439  0.1703
 1069loPI   C1B16773  16.470  11.698   6.253 -0.0791 -0.1698 -0.2487
 1069loPI   C2B16774  16.431  11.710   6.695 -0.3633  0.0007  0.0775
 1069loPI   C3B16775  16.411  11.679   7.202  0.0668  0.0026  0.2379
 1069loPI   C4B16776  16.347  11.683   7.616 -0.0512 -0.0146 -0.0873
 1070loPI    C116777   4.366   5.231   5.167  0.0557 -0.1486 -0.0225
 1070loPI    C216778   4.744   5.252   5.296  0.1364 -0.2244 -0.2424
 1070loPI    C316779   4.668   5.160   4.915 -0.1029 -0.1454 -0.2152
 1070loPI   PO416780   4.242   5.580   5.252  0.0297 -0.2877 -0.1359
 1070loPI   GL116781   4.189   5.602   5.686  0.0616  0.0065 -0.1063
 1070loPI   GL216782   4.469   5.299   5.706  0.1210 -0.0517  0.0344
 1070loPI   C1A16783   4.150   5.674   6.077 -0.2073  0.1836 -0.2351
 1070loPI   C2A16784   4.087   5.698   6.446 -0.0033 -0.1484 -0.1709
 1070loPI   C3A16785   4.112   5.698   6.862 -0.1971  0.1529  0.4065
 1070loPI   C4A16786   4.024   5.809   7.285 -0.2496 -0.2627 -0.2491
 1070loPI   C5A16787   4.143   5.719   7.719  0.2754  0.0759  0.0943
 1070loPI   C6A16788   4.428   5.635   8.159 -0.0151  0.1112 -0.1724
 1070loPI   C1B16789   4.439   5.247   6.169 -0.0557 -0.1017 -0.2092
 1070loPI   C2B16790   4.432   5.260   6.546  0.1434  0.0638  0.2214
 1070loPI   C3B16791   4.387   5.230   6.985  0.0140  0.0078 -0.1350
 1070loPI   C4B16792   4.390   5.470   7.376 -0.0702  0.0391  0.2323
 1071loPI    C116793   4.662   2.627   5.220 -0.0258  0.0725 -0.0124
 1071loPI    C216794   4.687   2.874   5.534 -0.2797  0.0341  0.0402
 1071loPI    C316795   4.655   3.023   5.165  0.0120  0.0793  0.0305
 1071loPI   PO416796   4.494   2.492   5.247 -0.3067  0.1862 -0.2105
 1071loPI   GL116797   4.520   2.362   5.680 -0.1771 -0.0994  0.1860
 1071loPI   GL216798   4.672   2.009   5.767 -0.0088 -0.0159  0.0191
 1071loPI   C1A16799   4.367   2.275   6.109 -0.0130  0.0714  0.2394
 1071loPI   C2A16800   4.475   2.210   6.531 -0.1311  0.0800 -0.1769
 1071loPI   C3A16801   4.649   2.084   6.908  0.0036  0.0572  0.2599
 1071loPI   C4A16802   4.837   1.959   7.244  0.0291  0.1420  0.1803
 1071loPI   C5A16803   5.198   1.995   7.482  0.1031 -0.1834 -0.1168
 1071loPI   C6A16804   5.618   1.772   7.432 -0.2688  0.0408 -0.4099
 1071loPI   C1B16805   4.841   2.010   6.215  0.1227  0.3189 -0.1906
 1071loPI   C2B16806   5.062   2.011   6.599  0.2486  0.1994  0.3462
 1071loPI   C3B16807   5.164   1.734   6.820  0.0251  0.2674 -0.2802
 1071loPI   C4B16808   5.227   1.603   7.211 -0.0840 -0.0124 -0.0453
 1072loPI    C116809   1.682   5.938   5.095 -0.0172 -0.1950  0.0370
 1072loPI    C216810   1.351   6.123   4.967 -0.1026 -0.2381  0.1931
 1072loPI    C316811   1.667   6.338   5.084  0.0041 -0.1984 -0.1559
 1072loPI   PO416812   1.721   5.755   5.257  0.0910 -0.3253  0.1519
 1072loPI   GL116813   1.609   5.541   5.681 -0.2755 -0.2785 -0.2381
 1072loPI   GL216814   1.715   5.822   5.736  0.2910 -0.2247  0.2348
 1072loPI   C1A16815   1.499   5.489   6.037  0.3563  0.1830 -0.2088
 1072loPI   C2A16816   1.415   5.594   6.425  0.0309 -0.0410  0.2045
 1072loPI   C3A16817   1.454   5.726   6.895  0.1628  0.1395 -0.0619
 1072loPI   C4A16818   1.499   5.613   7.290 -0.0130 -0.3162  0.0611
 1072loPI   C5A16819   1.233   5.721   7.684  0.0390 -0.2859 -0.0886
 1072loPI   C6A16820   0.983   6.111   7.921 -0.1644  0.3475  0.2433
 1072loPI   C1B16821   1.697   5.918   6.130 -0.0225 -0.0843 -0.0358
 1072loPI   C2B16822   1.618   6.076   6.568 -0.1830 -0.2376  0.1597
 1072loPI   C3B16823   1.651   6.185   6.951  0.1772  0.2977  0.2049
 1072loPI   C4B16824   1.408   6.121   7.301  0.1145 -0.1214 -0.0829
 1073loPI    C116825  15.734  11.369   5.154  0.2204 -0.1574 -0.3308
 1073loPI    C216826  15.514  11.088   5.335  0.1125  0.1192 -0.0226
 1073loPI    C316827  15.863  10.991   5.165 -0.1061 -0.2700 -0.2634
 1073loPI   PO416828  15.757  11.536   5.307 -0.0344  0.2955 -0.2566
 1073loPI   GL116829  15.963  11.503   5.716 -0.0301  0.0282  0.1222
 1073loPI   GL216830  16.073  11.319   5.617  0.1592 -0.1322  0.0519
 1073loPI   C1A16831  15.928  11.513   6.106 -0.0824  0.2126 -0.1227
 1073loPI   C2A16832  15.977  11.502   6.588 -0.0779  0.1806 -0.1060
 1073loPI   C3A16833  16.011  11.491   6.984  0.0107 -0.0749 -0.0771
 1073loPI   C4A16834  15.948  11.544   7.366  0.0326 -0.0321  0.1187
 1073loPI   C5A16835  15.861  11.538   7.795  0.2821  0.1393  0.1652
 1073loPI   C6A16836  16.236  11.649   8.129  0.3495 -0.0985 -0.2058
 1073loPI   C1B16837  16.268  11.148   6.011  0.2730  0.1746  0.2028
 1073loPI   C2B16838  16.331  11.188   6.477 -0.0589 -0.0830  0.0968
 1073loPI   C3B16839  16.338  11.192   6.859  0.0790 -0.0499  0.0419
 1073loPI   C4B16840  16.297  11.120   7.301  0.0311 -0.0143  0.2961
 1074loPI    C116841  14.775   7.326   5.117 -0.0132 -0.2344 -0.0249
 1074loPI    C216842  15.020   7.257   4.808 -0.0098  0.0804 -0.0949
 1074loPI    C316843  14.803   7.594   4.822 -0.2172 -0.0583  0.1122
 1074loPI   PO416844  14.904   7.263   5.349  0.3813 -0.0171  0.2665
 1074loPI   GL116845  15.132   7.413   5.713 -0.0628 -0.2564  0.2292
 1074loPI   GL216846  15.294   7.211   5.719  0.0170  0.2357 -0.1004
 1074loPI   C1A16847  15.045   7.501   6.121 -0.1037  0.2096  0.1102
 1074loPI   C2A16848  15.059   7.506   6.543 -0.1636  0.1349 -0.1647
 1074loPI   C3A16849  15.108   7.602   6.931 -0.1738 -0.2848 -0.0731
 1074loPI   C4A16850  15.142   7.614   7.316  0.1652  0.0216  0.0243
 1074loPI   C5A16851  15.174   7.584   7.730 -0.1405 -0.0868 -0.1941
 1074loPI   C6A16852  14.910   7.819   7.983  0.0462 -0.0062  0.3978
 1074loPI   C1B16853  15.419   7.159   6.217  0.0519  0.1580 -0.0016
 1074loPI   C2B16854  15.484   7.199   6.656  0.1370 -0.1721 -0.1113
 1074loPI   C3B16855  15.385   7.197   7.004 -0.1566 -0.2222  0.0151
 1074loPI   C4B16856  15.532   7.256   7.396  0.1128 -0.0997  0.1490
 1075loPI    C116857  15.158  15.788   5.208  0.1629 -0.1145 -0.1394
 1075loPI    C216858  14.839  15.590   5.071  0.1121 -0.1432  0.0184
 1075loPI    C316859  14.987  15.899   4.864 -0.0829 -0.0618 -0.0023
 1075loPI   PO416860  15.207  15.708   5.430  0.4309  0.0425  0.1878
 1075loPI   GL116861  15.320  15.540   5.888 -0.1209  0.1951 -0.2393
 1075loPI   GL216862  14.923  15.597   5.976  0.2798 -0.3105  0.0664
 1075loPI   C1A16863  15.311  15.625   6.265 -0.0946 -0.1563 -0.0034
 1075loPI   C2A16864  15.379  15.624   6.667  0.0759 -0.0983  0.0297
 1075loPI   C3A16865  15.513  15.768   6.988  0.0293  0.0063  0.0348
 1075loPI   C4A16866  15.443  15.746   7.448 -0.0617 -0.1173  0.0072
 1075loPI   C5A16867  15.283  15.758   7.869  0.3444  0.1048 -0.1376
 1075loPI   C6A16868  15.058  15.536   8.187 -0.2311 -0.1211 -0.0320
 1075loPI   C1B16869  14.803  15.599   6.469  0.1643 -0.0935 -0.4178
 1075loPI   C2B16870  14.860  15.481   6.811 -0.0128 -0.0254  0.1076
 1075loPI   C3B16871  14.994  15.568   7.223  0.0479 -0.0285  0.0603
 1075loPI   C4B16872  15.004  15.415   7.652 -0.0166  0.1617 -0.0937
 1076loPI    C116873  12.277   9.363   5.030  0.1447  0.0515  0.0978
 1076loPI    C216874  11.967   9.447   4.792  0.1771 -0.0461  0.0208
 1076loPI    C316875  12.307   9.655   4.759  0.0355  0.2330  0.2784
 1076loPI   PO416876  12.231   9.462   5.226  0.0671  0.2127 -0.1899
 1076loPI   GL116877  12.212   9.798   5.579 -0.0638 -0.4594 -0.1539
 1076loPI   GL216878  12.545   9.988   5.668  0.0924 -0.2033 -0.1317
 1076loPI   C1A16879  11.970   9.758   5.945 -0.3247  0.0824 -0.0010
 1076loPI   C2A16880  11.906   9.732   6.420 -0.1317  0.1282  0.3015
 1076loPI   C3A16881  11.793   9.328   6.638 -0.0653  0.0894 -0.0931
 1076loPI   C4A16882  11.836   9.179   6.997  0.4557 -0.0817 -0.0918
 1076loPI   C5A16883  11.798   9.169   7.452 -0.0803 -0.0055 -0.2045
 1076loPI   C6A16884  11.692   9.318   7.881  0.1858  0.1376 -0.2211
 1076loPI   C1B16885  12.379   9.996   6.068 -0.1440 -0.0854 -0.0958
 1076loPI   C2B16886  12.379   9.886   6.420 -0.1885  0.1415 -0.2643
 1076loPI   C3B16887  12.284   9.829   6.858 -0.0401 -0.1754  0.0417
 1076loPI   C4B16888  11.985   9.705   7.099  0.0935 -0.1931  0.2461
 1077loPI    C116889  17.646   1.306   5.020 -0.0330  0.0598  0.1600
 1077loPI    C216890  17.585   1.574   4.730  0.1090 -0.1326 -0.0511
 1077loPI    C316891  17.957   1.460   4.822  0.0673 -0.0500  0.2304
 1077loPI   PO416892  17.557   1.409   5.299 -0.0606  0.0832  0.1035
 1077loPI   GL116893  17.675   1.672   5.618 -0.2420 -0.1625 -0.0075
 1077loPI   GL216894  17.323   1.893   5.595 -0.0567  0.0876 -0.0234
 1077loPI   C1A16895  17.549   1.657   6.146  0.2435  0.0388  0.1642
 1077loPI   C2A16896  17.581   1.736   6.489 -0.0938 -0.1420  0.3335
 1077loPI   C3A16897  17.573   1.718   6.961 -0.0921 -0.0833 -0.2605
 1077loPI   C4A16898  17.462   1.791   7.417 -0.3224 -0.2269  0.0115
 1077loPI   C5A16899  17.699   1.637   7.749 -0.1744  0.0482  0.1728
 1077loPI   C6A16900  18.095   1.455   8.019  0.0046 -0.0011 -0.3047
 1077loPI   C1B16901  17.174   1.964   6.089 -0.1421  0.1862  0.1738
 1077loPI   C2B16902  17.013   2.014   6.475  0.1846 -0.0761  0.4525
 1077loPI   C3B16903  17.220   2.086   6.870 -0.2200  0.1085  0.1416
 1077loPI   C4B16904  17.213   2.195   7.337  0.1453 -0.0928  0.1171
 1078loPI    C116905   4.678  18.371   5.112  0.0552 -0.0054  0.0895
 1078loPI    C216906   4.597  18.001   4.983  0.1142  0.0171 -0.0132
 1078loPI    C316907   4.916  18.197   4.842  0.0451  0.1330 -0.0097
 1078loPI   PO416908   4.708  18.359   5.372  0.2504  0.0889 -0.0051
 1078loPI   GL116909   4.713  18.187   5.808 -0.0271 -0.0072 -0.0041
 1078loPI   GL216910   4.870  18.558   5.999  0.1142  0.0843 -0.0603
 1078loPI   C1A16911   4.778  18.060   6.199  0.1094 -0.0477 -0.2938
 1078loPI   C2A16912   4.979  18.144   6.540 -0.0305  0.2084  0.1433
 1078loPI   C3A16913   4.961  18.072   6.980 -0.3764 -0.1936 -0.1401
 1078loPI   C4A16914   4.983  18.083   7.483 -0.1868  0.1944  0.0769
 1078loPI   C5A16915   4.796  18.077   7.902 -0.0921 -0.0473 -0.0649
 1078loPI   C6A16916   4.341  18.021   8.045  0.0436 -0.0938 -0.0507
 1078loPI   C1B16917   4.889  18.622   6.407 -0.0760  0.0091  0.2611
 1078loPI   C2B16918   4.906  18.548   6.832  0.1858 -0.0475 -0.5347
 1078loPI   C3B16919   5.047  18.590   7.283 -0.0822  0.0501  0.1118
 1078loPI   C4B16920   5.099  18.498   7.741 -0.0257  0.2824 -0.1007
 1079loPI    C116921  13.437   2.814   5.153 -0.0867 -0.2404 -0.0403
 1079loPI    C216922  13.742   2.894   4.907  0.0273 -0.1542  0.1265
 1079loPI    C316923  13.418   3.129   4.907  0.2372  0.1452  0.4068
 1079loPI   PO416924  13.533   2.788   5.360  0.0673  0.1532 -0.2101
 1079loPI   GL116925  13.274   2.776   5.692 -0.0386  0.0106  0.0140
 1079loPI   GL216926  13.245   3.078   5.848  0.2113  0.2143  0.0696
 1079loPI   C1A16927  13.568   2.790   6.092 -0.0085 -0.4205  0.4167
 1079loPI   C2A16928  13.680   2.776   6.540  0.0753  0.0129 -0.0900
 1079loPI   C3A16929  13.676   2.772   6.965 -0.2014 -0.1733 -0.1318
 1079loPI   C4A16930  13.520   3.072   7.376  0.1276  0.2134 -0.0224
 1079loPI   C5A16931  13.725   3.348   7.657 -0.0558 -0.0644 -0.1860
 1079loPI   C6A16932  13.894   3.576   8.034 -0.0492  0.0536  0.1947
 1079loPI   C1B16933  13.164   3.042   6.322  0.1600  0.0968  0.3824
 1079loPI   C2B16934  13.277   3.179   6.755 -0.1357  0.1942 -0.2573
 1079loPI   C3B16935  13.093   3.183   7.138 -0.1352 -0.3807 -0.0461
 1079loPI   C4B16936  12.914   3.289   7.502  0.2953 -0.2084 -0.3422
 1080loPI    C116937   8.618   6.070   5.374 -0.0133  0.0010  0.0659
 1080loPI    C216938   8.601   6.282   5.035  0.0189 -0.0168  0.0531
 1080loPI    C316939   8.491   5.898   5.036  0.0575 -0.0279  0.0540
 1080loPI   PO416940   8.644   6.276   5.561  0.0953  0.1069  0.0026
 1080loPI   GL116941   8.892   6.314   5.851 -0.2915  0.1470  0.0819
 1080loPI   GL216942   8.704   6.311   6.226 -0.0577 -0.0322 -0.2416
 1080loPI   C1A16943   8.996   6.717   6.154  0.2437 -0.0125  0.2303
 1080loPI   C2A16944   9.015   6.945   6.530 -0.3658  0.2845  0.0797
 1080loPI   C3A16945   9.009   6.889   6.973 -0.0530  0.3006 -0.1084
 1080loPI   C4A16946   8.943   7.029   7.441 -0.0734 -0.0400  0.1222
 1080loPI   C5A16947   8.949   6.929   7.829  0.3810 -0.0987 -0.1337
 1080loPI   C6A16948   8.592   6.929   8.150  0.0578 -0.0582  0.3804
 1080loPI   C1B16949   8.946   6.377   6.571 -0.1719 -0.1394 -0.2086
 1080loPI   C2B16950   8.909   6.384   7.075 -0.2851  0.0445 -0.0899
 1080loPI   C3B16951   9.045   6.467   7.571  0.1741  0.1801  0.3944
 1080loPI   C4B16952   9.178   6.498   7.974  0.1748 -0.2394  0.3069
 1081loPI    C116953   3.191   5.973   5.238  0.0784 -0.2984  0.1845
 1081loPI    C216954   3.173   6.030   4.842  0.0811 -0.3184  0.1815
 1081loPI    C316955   3.522   6.068   5.034  0.0066  0.0942  0.2433
 1081loPI   PO416956   2.931   6.090   5.344 -0.1349  0.3974 -0.0275
 1081loPI   GL116957   2.579   5.997   5.585 -0.3637 -0.0158  0.0177
 1081loPI   GL216958   2.443   6.269   5.759  0.0099  0.2569  0.0831
 1081loPI   C1A16959   2.696   5.839   6.082  0.0919 -0.0922 -0.3243
 1081loPI   C2A16960   2.767   6.013   6.440 -0.1334  0.1111  0.0496
 1081loPI   C3A16961   2.825   6.128   6.879 -0.4760  0.1875 -0.2028
 1081loPI   C4A16962   2.843   6.312   7.214  0.1404 -0.2745 -0.1169
 1081loPI   C5A16963   2.904   6.311   7.629 -0.2669 -0.2782 -0.1127
 1081loPI   C6A16964   2.729   6.127   7.970  0.1023  0.0857  0.1969
 1081loPI   C1B16965   2.528   6.373   6.134  0.0575  0.1244  0.2649
 1081loPI   C2B16966   2.566   6.452   6.630  0.0621 -0.0480  0.0904
 1081loPI   C3B16967   2.664   6.670   6.926 -0.2510 -0.0025 -0.0788
 1081loPI   C4B16968   2.800   6.779   7.385  0.0115  0.1568  0.0302
 1082loPI    C116969   6.161  14.536   5.418  0.1272 -0.0597 -0.0216
 1082loPI    C216970   5.961  14.453   5.754 -0.0226 -0.1368 -0.1285
 1082loPI    C316971   6.145  14.806   5.712 -0.4285  0.0760 -0.1658
 1082loPI   PO416972   6.315  14.299   5.430 -0.0399 -0.2316  0.2852
 1082loPI   GL116973   6.193  13.992   5.776 -0.1121 -0.2158  0.0517
 1082loPI   GL216974   5.897  13.884   5.941  0.0629 -0.3760 -0.0101
 1082loPI   C1A16975   6.453  14.054   6.153  0.1753 -0.0736 -0.1274
 1082loPI   C2A16976   6.444  14.131   6.555 -0.0817  0.0433  0.0110
 1082loPI   C3A16977   6.344  14.214   6.944  0.0215  0.0961  0.0640
 1082loPI   C4A16978   6.281  14.094   7.387 -0.0696  0.2149  0.0835
 1082loPI   C5A16979   6.364  14.081   7.881  0.1026 -0.1502 -0.1458
 1082loPI   C6A16980   6.528  13.990   8.286  0.4605  0.0395  0.1399
 1082loPI   C1B16981   5.970  14.059   6.352  0.0706  0.1921 -0.2071
 1082loPI   C2B16982   5.934  13.948   6.770  0.2934 -0.0182  0.0077
 1082loPI   C3B16983   5.803  13.875   7.179 -0.0359 -0.0456  0.3172
 1082loPI   C4B16984   5.615  13.690   7.629 -0.4566  0.1196 -0.0586
 1083loPI    C116985  12.785  12.581   5.130  0.2402  0.0463  0.0980
 1083loPI    C216986  12.834  12.598   4.733  0.1634  0.1150  0.0912
 1083loPI    C316987  12.492  12.723   4.898  0.0230 -0.3166  0.1413
 1083loPI   PO416988  12.867  12.385   5.250 -0.0020  0.2768  0.0914
 1083loPI   GL116989  13.068  12.357   5.602 -0.0065 -0.2223 -0.0787
 1083loPI   GL216990  12.862  12.599   5.681 -0.2591 -0.0350  0.2185
 1083loPI   C1A16991  13.373  12.432   5.923  0.1571  0.0220  0.0617
 1083loPI   C2A16992  13.394  12.538   6.283  0.1833 -0.1614  0.1661
 1083loPI   C3A16993  13.355  12.522   6.669 -0.2325 -0.1854 -0.1893
 1083loPI   C4A16994  13.427  12.524   7.123 -0.1109 -0.0763 -0.0973
 1083loPI   C5A16995  13.348  12.623   7.575 -0.3879 -0.0647  0.1196
 1083loPI   C6A16996  13.112  12.287   7.843 -0.1760  0.2252  0.2485
 1083loPI   C1B16997  12.803  12.456   6.153  0.3431  0.0235 -0.1263
 1083loPI   C2B16998  12.871  12.364   6.670 -0.0454 -0.2346  0.1915
 1083loPI   C3B16999  12.968  12.332   6.999  0.1293  0.1987  0.1359
 1083loPI   C4B17000  12.888  12.237   7.390  0.2945  0.2316  0.2520
 1084loPI    C117001   2.110  15.938   4.936  0.1054  0.1688  0.0761
 1084loPI    C217002   2.332  15.811   4.628  0.0185  0.1027  0.0406
 1084loPI    C317003   2.389  16.177   4.777  0.1705  0.0759  0.0498
 1084loPI   PO417004   2.150  15.706   5.166 -0.0004 -0.0886  0.0710
 1084loPI   GL117005   2.341  15.633   5.572 -0.0173  0.2561  0.3481
 1084loPI   GL217006   2.250  15.992   5.653 -0.1212 -0.0090 -0.3396
 1084loPI   C1A17007   2.598  15.780   5.967  0.1461  0.0907 -0.2153
 1084loPI   C2A17008   2.534  15.728   6.440 -0.0079 -0.1952  0.0717
 1084loPI   C3A17009   2.458  15.652   6.901 -0.1325  0.0610 -0.2032
 1084loPI   C4A17010   2.377  15.354   7.277  0.0348 -0.2465 -0.0325
 1084loPI   C5A17011   2.043  15.358   7.667  0.1292  0.0687  0.0399
 1084loPI   C6A17012   2.135  15.271   8.158  0.5142 -0.1728  0.0759
 1084loPI   C1B17013   2.195  16.064   6.095  0.2287  0.2368  0.0462
 1084loPI   C2B17014   2.102  16.019   6.501  0.1036  0.0693 -0.0261
 1084loPI   C3B17015   1.994  15.967   7.002 -0.4097  0.3399  0.4552
 1084loPI   C4B17016   1.887  15.735   7.278  0.0539  0.1266  0.0580
 1085loPI    C117017  18.158   1.838   5.131 -0.0173 -0.0215  0.2294
 1085loPI    C217018  18.549   1.924   5.130  0.0537 -0.3297  0.0325
 1085loPI    C317019  18.392   1.702   4.837 -0.2971 -0.0979  0.0385
 1085loPI   PO417020  18.126   1.719   5.403 -0.0223  0.2029 -0.0935
 1085loPI   GL117021  18.141   1.746   5.863  0.0659  0.0267  0.0740
 1085loPI   GL217022  18.261   1.472   5.922  0.2243 -0.0334 -0.1777
 1085loPI   C1A17023  18.015   1.820   6.309  0.1588 -0.4083 -0.0305
 1085loPI   C2A17024  18.033   1.854   6.715  0.0844 -0.1967 -0.5249
 1085loPI   C3A17025  18.045   1.865   7.124  0.0233 -0.0876 -0.0563
 1085loPI   C4A17026  17.951   2.013   7.530  0.1056  0.2485  0.0171
 1085loPI   C5A17027  17.979   2.017   7.967  0.0210  0.2146  0.4006
 1085loPI   C6A17028  17.615   1.821   8.170  0.0735  0.0549 -0.0647
 1085loPI   C1B17029  18.330   1.460   6.326  0.0148  0.0153  0.0456
 1085loPI   C2B17030  18.398   1.463   6.759  0.0227  0.0005 -0.0700
 1085loPI   C3B17031  18.413   1.524   7.176 -0.4327  0.0794  0.2405
 1085loPI   C4B17032  18.227   1.575   7.562 -0.0065  0.2289 -0.1138
 1086loPI    C117033  12.752  10.876   5.063 -0.0191  0.4228  0.0451
 1086loPI    C217034  12.824  11.065   4.718 -0.0326 -0.0845 -0.2468
 1086loPI    C317035  13.123  10.996   4.975  0.0767 -0.1466 -0.3895
 1086loPI   PO417036  12.637  11.011   5.188 -0.2947  0.1860  0.4567
 1086loPI   GL117037  12.625  11.263   5.535  0.2073  0.1412 -0.2449
 1086loPI   GL217038  12.765  11.619   5.514 -0.1154 -0.1036 -0.3022
 1086loPI   C1A17039  12.562  10.994   5.881 -0.1366  0.0776  0.0124
 1086loPI   C2A17040  12.488  10.975   6.298  0.2250 -0.0965  0.1245
 1086loPI   C3A17041  12.549  10.815   6.608  0.0761 -0.2071 -0.1544
 1086loPI   C4A17042  12.704  10.693   7.088  0.0380 -0.2317  0.2375
 1086loPI   C5A17043  12.994  10.513   7.407 -0.0544 -0.0081  0.0730
 1086loPI   C6A17044  13.170  10.266   7.715  0.0907  0.0006 -0.1450
 1086loPI   C1B17045  12.671  11.458   6.060  0.3527  0.0676  0.1142
 1086loPI   C2B17046  12.683  11.360   6.556 -0.2115 -0.1021 -0.0253
 1086loPI   C3B17047  12.682  11.161   6.911  0.1988  0.1964  0.1103
 1086loPI   C4B17048  12.681  11.275   7.360 -0.1507  0.1164 -0.0588
 1087loPI    C117049  14.345  15.741   5.136 -0.0128 -0.1083 -0.1341
 1087loPI    C217050  14.429  15.440   4.888 -0.0834 -0.2452  0.0064
 1087loPI    C317051  14.505  15.817   4.778  0.1814 -0.3257 -0.0956
 1087loPI   PO417052  14.384  15.675   5.312  0.3533  0.1646  0.0161
 1087loPI   GL117053  14.335  15.604   5.686  0.1993  0.1953  0.0002
 1087loPI   GL217054  14.478  15.315   5.837 -0.0636  0.0762  0.1285
 1087loPI   C1A17055  14.422  15.794   6.127 -0.0841 -0.3386 -0.2595
 1087loPI   C2A17056  14.425  16.025   6.411  0.1183  0.0505  0.1222
 1087loPI   C3A17057  14.608  15.942   6.802  0.0324 -0.1306 -0.1540
 1087loPI   C4A17058  14.695  15.947   7.180  0.3027 -0.0442  0.1157
 1087loPI   C5A17059  14.852  15.935   7.595 -0.1728 -0.0160 -0.1632
 1087loPI   C6A17060  14.757  15.985   8.047  0.0650 -0.1066 -0.1803
 1087loPI   C1B17061  14.581  15.112   6.288  0.0220  0.1333  0.1336
 1087loPI   C2B17062  14.663  15.011   6.757 -0.3518 -0.0086 -0.0879
 1087loPI   C3B17063  14.695  15.083   7.156  0.1785  0.0950 -0.0357
 1087loPI   C4B17064  14.834  14.869   7.528 -0.0921  0.2387 -0.2341
 1088loPI    C117065   5.853  13.702   5.449 -0.0989  0.1891 -0.1110
 1088loPI    C217066   5.982  13.988   5.200 -0.3466  0.0833 -0.3672
 1088loPI    C317067   6.154  13.626   5.196 -0.0098  0.2324 -0.0185
 1088loPI   PO417068   5.597  13.836   5.468  0.0969 -0.0192 -0.2254
 1088loPI   GL117069   5.275  13.994   5.776 -0.2760  0.2535  0.0778
 1088loPI   GL217070   5.392  14.330   5.793 -0.2171 -0.1768 -0.0089
 1088loPI   C1A17071   5.356  13.935   6.209 -0.0467 -0.1431 -0.3029
 1088loPI   C2A17072   5.443  13.715   6.610 -0.3945  0.0556  0.0667
 1088loPI   C3A17073   5.412  13.611   7.084  0.0252  0.2644 -0.0350
 1088loPI   C4A17074   5.198  13.470   7.472 -0.2866  0.2519 -0.1325
 1088loPI   C5A17075   5.108  13.520   7.946  0.1704 -0.0414 -0.1529
 1088loPI   C6A17076   5.075  13.719   8.326  0.3194  0.0168  0.2180
 1088loPI   C1B17077   5.596  14.348   6.157  0.1540  0.2420 -0.3394
 1088loPI   C2B17078   5.489  14.203   6.584 -0.1545 -0.2679  0.1107
 1088loPI   C3B17079   5.373  14.125   7.030 -0.2501  0.0273 -0.1505
 1088loPI   C4B17080   5.240  14.025   7.448 -0.0717 -0.1664 -0.0061
 1089loPI    C117081   6.942   8.099   5.389 -0.1915  0.1877 -0.0284
 1089loPI    C217082   6.956   7.716   5.502 -0.2725  0.1582 -0.1176
 1089loPI    C317083   7.046   7.817   5.126 -0.1606  0.2378 -0.0699
 1089loPI   PO417084   7.052   8.273   5.641  0.1990 -0.1477  0.1408
 1089loPI   GL117085   6.959   8.542   5.910 -0.0356  0.1408 -0.1748
 1089loPI   GL217086   6.675   8.659   5.844  0.1103  0.1134 -0.3438
 1089loPI   C1A17087   6.840   8.784   6.279  0.0680  0.1249  0.0244
 1089loPI   C2A17088   6.817   8.901   6.606 -0.2873  0.0651 -0.0620
 1089loPI   C3A17089   6.618   8.864   7.036 -0.1290 -0.0641  0.2224
 1089loPI   C4A17090   6.517   8.804   7.550 -0.2110  0.1740 -0.1957
 1089loPI   C5A17091   6.176   8.819   7.693 -0.0108 -0.0763  0.0721
 1089loPI   C6A17092   5.734   8.965   7.723 -0.1477  0.1168  0.2212
 1089loPI   C1B17093   6.514   8.385   6.251 -0.1124 -0.2398 -0.1952
 1089loPI   C2B17094   6.194   8.315   6.595 -0.0784  0.3196 -0.5058
 1089loPI   C3B17095   6.153   8.359   7.023  0.5537  0.1799  0.1429
 1089loPI   C4B17096   6.244   8.440   7.439 -0.0590 -0.0627  0.0165
 1090loPI    C117097  14.198   5.221   4.984 -0.0541 -0.0182  0.0242
 1090loPI    C217098  14.359   5.043   4.664 -0.0148 -0.0649  0.0697
 1090loPI    C317099  14.306   5.440   4.667 -0.2091 -0.0878 -0.0783
 1090loPI   PO417100  14.367   4.987   5.176 -0.1201  0.0477  0.1070
 1090loPI   GL117101  14.553   5.009   5.626  0.0189 -0.0518  0.3276
 1090loPI   GL217102  14.809   4.683   5.692 -0.0532  0.1360  0.2154
 1090loPI   C1A17103  14.413   5.033   6.038  0.0482 -0.1502  0.0774
 1090loPI   C2A17104  14.550   4.977   6.409  0.1904  0.3170 -0.0633
 1090loPI   C3A17105  14.631   4.991   6.856  0.0425  0.3114  0.0108
 1090loPI   C4A17106  14.649   4.956   7.195 -0.0848  0.0025  0.0196
 1090loPI   C5A17107  14.738   5.142   7.605 -0.1151 -0.2091  0.2829
 1090loPI   C6A17108  14.774   4.960   8.052  0.2463 -0.0111 -0.0137
 1090loPI   C1B17109  14.915   4.607   6.068 -0.1304 -0.0114 -0.1916
 1090loPI   C2B17110  14.961   4.573   6.513 -0.0291  0.0599 -0.1517
 1090loPI   C3B17111  15.002   4.626   6.884 -0.1765 -0.1540  0.3685
 1090loPI   C4B17112  14.686   4.438   7.195 -0.0354  0.0022 -0.0681
 1091loPI    C117113   8.668   4.639   5.387 -0.1314  0.0035  0.0062
 1091loPI    C217114   8.442   4.684   5.059 -0.1058  0.2681  0.0230
 1091loPI    C317115   8.786   4.885   5.095  0.0131  0.0539  0.1064
 1091loPI   PO417116   8.664   4.382   5.436 -0.2206  0.2115 -0.2526
 1091loPI   GL117117   8.706   4.289   5.889 -0.0051  0.0541 -0.1568
 1091loPI   GL217118   8.889   4.559   5.857 -0.0604  0.1228 -0.0121
 1091loPI   C1A17119   8.359   4.304   6.184 -0.0122  0.1734  0.4216
 1091loPI   C2A17120   8.069   4.348   6.496  0.0397 -0.0715 -0.0465
 1091loPI   C3A17121   7.795   4.104   6.878  0.1002  0.3104  0.0138
 1091loPI   C4A17122   7.683   3.976   7.260  0.1351 -0.1486  0.0324
 1091loPI   C5A17123   7.549   3.860   7.608 -0.1234 -0.0850 -0.1644
 1091loPI   C6A17124   7.386   3.887   8.020 -0.0828 -0.2198  0.0720
 1091loPI   C1B17125   8.745   4.695   6.219 -0.1052 -0.0045  0.3068
 1091loPI   C2B17126   8.618   4.520   6.587  0.3805 -0.4225 -0.1423
 1091loPI   C3B17127   8.590   4.730   7.013  0.2168 -0.1905 -0.2402
 1091loPI   C4B17128   8.612   4.984   7.417  0.2709  0.1222  0.0206
 1092loPI    C117129  13.957   8.252   5.129  0.1040  0.0206  0.0324
 1092loPI    C217130  13.982   8.540   4.854 -0.0429  0.0339  0.0325
 1092loPI    C317131  13.919   8.161   4.742  0.2703 -0.0176  0.0245
 1092loPI   PO417132  14.170   8.239   5.320  0.2151  0.1469  0.1389
 1092loPI   GL117133  14.518   8.267   5.662 -0.2429  0.1970  0.3528
 1092loPI   GL217134  14.254   8.551   5.680 -0.1657  0.3365  0.2029
 1092loPI   C1A17135  14.235   8.149   6.021 -0.0846 -0.2517 -0.0478
 1092loPI   C2A17136  14.255   8.175   6.476  0.0099  0.0516  0.0161
 1092loPI   C3A17137  14.341   8.202   6.825 -0.1149  0.1319  0.3449
 1092loPI   C4A17138  14.329   8.253   7.258  0.0153 -0.0532  0.1014
 1092loPI   C5A17139  14.202   8.211   7.623  0.2298  0.0963  0.1318
 1092loPI   C6A17140  14.270   8.226   8.036  0.0321  0.3311  0.0023
 1092loPI   C1B17141  14.311   8.683   6.154  0.1195 -0.1301 -0.2545
 1092loPI   C2B17142  14.460   8.749   6.595  0.1686  0.0146  0.2653
 1092loPI   C3B17143  14.449   8.646   6.999  0.1186  0.0852 -0.0003
 1092loPI   C4B17144  14.380   8.715   7.446 -0.3499  0.2226 -0.3147
 1093loPI    C117145   7.903  18.163   4.831  0.0080 -0.1038  0.1072
 1093loPI    C217146   7.992  18.544   4.747 -0.0377 -0.1441 -0.1331
 1093loPI    C317147   8.252  18.253   4.658 -0.2024 -0.2148 -0.3960
 1093loPI   PO417148   7.812  18.214   5.110  0.0558  0.2708  0.1895
 1093loPI   GL117149   7.746  18.016   5.549  0.0704 -0.0944  0.0646
 1093loPI   GL217150   7.351  17.942   5.722 -0.3958 -0.1665  0.0410
 1093loPI   C1A17151   7.758  17.724   5.974 -0.0092  0.1457  0.2752
 1093loPI   C2A17152   7.507  17.677   6.206  0.1381 -0.0050  0.0651
 1093loPI   C3A17153   7.510  17.711   6.654 -0.0543  0.2805  0.0105
 1093loPI   C4A17154   7.496  17.665   7.017 -0.2337  0.1246  0.0512
 1093loPI   C5A17155   7.626  17.567   7.351  0.4768 -0.3045  0.0618
 1093loPI   C6A17156   7.626  17.789   7.825 -0.1118  0.0687  0.2099
 1093loPI   C1B17157   7.072  17.939   6.085 -0.1837  0.2486  0.4130
 1093loPI   C2B17158   7.189  18.005   6.519  0.0014 -0.1983  0.1324
 1093loPI   C3B17159   7.173  18.025   6.946  0.2412 -0.0186  0.0637
 1093loPI   C4B17160   7.280  18.029   7.323 -0.0480  0.2150 -0.0321
 1094loPI    C117161  12.860   4.324   5.153 -0.0006  0.0702 -0.0500
 1094loPI    C217162  12.699   4.654   4.993  0.2225  0.1131 -0.1909
 1094loPI    C317163  12.751   4.328   4.768  0.0723  0.0051 -0.0714
 1094loPI   PO417164  12.731   4.340   5.456  0.2755 -0.1530 -0.1526
 1094loPI   GL117165  12.428   4.369   5.808  0.1189 -0.0127  0.2105
 1094loPI   GL217166  12.415   4.134   6.013  0.1401  0.0345 -0.3059
 1094loPI   C1A17167  12.331   4.617   6.161 -0.2513  0.3465 -0.1678
 1094loPI   C2A17168  12.246   4.603   6.653  0.2175  0.0399  0.1675
 1094loPI   C3A17169  12.124   4.567   7.050  0.2280  0.3537 -0.3436
 1094loPI   C4A17170  12.161   4.407   7.459  0.0095  0.1608 -0.4143
 1094loPI   C5A17171  12.023   4.300   7.836 -0.2589 -0.2385 -0.0236
 1094loPI   C6A17172  11.562   4.185   7.998  0.0433  0.0334 -0.0802
 1094loPI   C1B17173  12.174   4.143   6.358  0.0555  0.1287  0.0072
 1094loPI   C2B17174  11.933   4.020   6.663 -0.0037 -0.0053 -0.1038
 1094loPI   C3B17175  11.890   4.103   7.115  0.0417 -0.0060  0.3180
 1094loPI   C4B17176  11.734   4.134   7.492  0.3252 -0.3609  0.0856
 1095loPI    C117177   0.981   9.727   4.725 -0.0499 -0.0399  0.1740
 1095loPI    C217178   0.630   9.595   4.585  0.0489 -0.0545 -0.0649
 1095loPI    C317179   0.970   9.424   4.464  0.1362 -0.0941  0.2281
 1095loPI   PO417180   0.898   9.766   5.065  0.3223 -0.0557 -0.2516
 1095loPI   GL117181   1.012   9.756   5.438 -0.2013  0.1511 -0.2246
 1095loPI   GL217182   1.222  10.046   5.469 -0.2248  0.1346  0.1850
 1095loPI   C1A17183   0.872   9.455   5.720  0.3743 -0.2595  0.1325
 1095loPI   C2A17184   0.699   9.395   6.110  0.0351  0.0443 -0.2459
 1095loPI   C3A17185   0.707   9.320   6.606 -0.1019 -0.1133  0.0245
 1095loPI   C4A17186   0.704   9.325   7.076  0.1333  0.4224  0.0013
 1095loPI   C5A17187   0.616   9.436   7.512  0.1561  0.1710  0.1367
 1095loPI   C6A17188   0.821   9.568   7.902  0.0343  0.0593 -0.0669
 1095loPI   C1B17189   1.102   9.885   5.882 -0.0400 -0.0802 -0.4100
 1095loPI   C2B17190   0.914   9.808   6.269 -0.0546  0.1118  0.0895
 1095loPI   C3B17191   0.831   9.832   6.719 -0.0510  0.0870  0.0220
 1095loPI   C4B17192   0.767   9.806   7.108  0.1064  0.1101 -0.0443
 1096loPI    C117193   3.472  14.974   5.247 -0.1506 -0.0952 -0.0122
 1096loPI    C217194   3.777  14.801   5.056  0.0141  0.0939  0.0751
 1096loPI    C317195   3.523  15.037   4.856 -0.0958 -0.0892 -0.0041
 1096loPI   PO417196   3.595  14.926   5.509 -0.1609 -0.0520  0.0517
 1096loPI   GL117197   3.847  14.756   5.857 -0.3714  0.1922  0.0649
 1096loPI   GL217198   4.028  14.913   5.913  0.0584 -0.0266  0.0693
 1096loPI   C1A17199   3.608  14.459   6.044 -0.2592  0.1983 -0.0557
 1096loPI   C2A17200   3.625  14.119   6.246 -0.3983  0.0503  0.1538
 1096loPI   C3A17201   3.461  13.928   6.586  0.0266 -0.2469 -0.3991
 1096loPI   C4A17202   3.433  13.870   6.998 -0.0082 -0.3694 -0.1317
 1096loPI   C5A17203   3.331  13.993   7.393 -0.1464 -0.1018  0.0771
 1096loPI   C6A17204   3.135  13.646   7.756  0.2781 -0.2362  0.1446
 1096loPI   C1B17205   3.742  14.988   6.322 -0.3234 -0.2661  0.2940
 1096loPI   C2B17206   3.704  14.877   6.774 -0.1682 -0.2908  0.0012
 1096loPI   C3B17207   3.383  14.907   7.149  0.2525 -0.0404  0.1882
 1096loPI   C4B17208   3.483  15.088   7.516  0.0791  0.2125  0.0617
 1097loPI    C117209  11.177  14.380   5.312 -0.0178 -0.1280 -0.1153
 1097loPI    C217210  11.336  14.163   5.017  0.1259 -0.0996 -0.0596
 1097loPI    C317211  11.401  14.557   5.033  0.1197 -0.1014  0.0107
 1097loPI   PO417212  11.259  14.352   5.521  0.1369  0.0039  0.0696
 1097loPI   GL117213  11.135  14.144   5.932 -0.1876  0.1473 -0.0324
 1097loPI   GL217214  11.007  13.844   5.880  0.1577 -0.0499  0.3168
 1097loPI   C1A17215  11.214  14.010   6.300  0.1079 -0.0568  0.1448
 1097loPI   C2A17216  11.472  13.888   6.665 -0.1263 -0.0473  0.0131
 1097loPI   C3A17217  11.344  13.748   7.082  0.0768  0.2068  0.0405
 1097loPI   C4A17218  11.178  13.582   7.466  0.3492 -0.1467 -0.4257
 1097loPI   C5A17219  11.107  13.408   7.773 -0.1082 -0.2080  0.0294
 1097loPI   C6A17220  11.161  13.547   8.203  0.1786 -0.0372  0.0481
 1097loPI   C1B17221  11.252  13.590   6.123  0.1003  0.1188 -0.0311
 1097loPI   C2B17222  11.306  13.296   6.471 -0.1199 -0.0131 -0.2219
 1097loPI   C3B17223  11.134  13.387   6.816 -0.2746  0.0198 -0.0941
 1097loPI   C4B17224  11.112  13.169   7.256  0.1400  0.0348  0.1171
 1098loPI    C117225  10.936   4.130   5.641  0.2980 -0.1415  0.0210
 1098loPI    C217226  11.051   4.156   5.259 -0.0753 -0.0269 -0.0879
 1098loPI    C317227  10.827   3.847   5.380 -0.0857  0.0163  0.0039
 1098loPI   PO417228  11.157   4.219   5.785  0.0564  0.0016 -0.1382
 1098loPI   GL117229  11.342   4.597   6.051  0.1690  0.0362  0.2018
 1098loPI   GL217230  11.115   4.441   6.256 -0.0302  0.2317 -0.3257
 1098loPI   C1A17231  11.436   4.749   6.452  0.1952  0.1152  0.1330
 1098loPI   C2A17232  11.397   4.849   6.846 -0.3631 -0.0980 -0.1312
 1098loPI   C3A17233  11.326   4.953   7.328 -0.3103 -0.1409 -0.0343
 1098loPI   C4A17234  11.260   4.925   7.698  0.0405  0.0651  0.0259
 1098loPI   C5A17235  10.872   4.983   7.948 -0.0872  0.1882 -0.2661
 1098loPI   C6A17236  10.496   5.049   8.169  0.1291  0.2921 -0.1991
 1098loPI   C1B17237  10.916   4.190   6.628 -0.5193 -0.0310 -0.0348
 1098loPI   C2B17238  10.805   4.152   7.102  0.1475 -0.2019  0.0541
 1098loPI   C3B17239  10.716   4.136   7.515  0.3012  0.1770  0.3607
 1098loPI   C4B17240  10.446   3.859   7.758  0.0179  0.3265 -0.0144
 1099loPI    C117241   2.549  15.391   5.167 -0.1610  0.1294 -0.0061
 1099loPI    C217242   2.659  15.159   4.860  0.1310  0.2727 -0.0127
 1099loPI    C317243   2.335  15.392   4.829  0.0926  0.1999 -0.1690
 1099loPI   PO417244   2.656  15.205   5.359 -0.0864 -0.0382  0.1462
 1099loPI   GL117245   2.459  15.173   5.718 -0.1308 -0.1545  0.1628
 1099loPI   GL217246   2.732  15.236   5.919  0.0626 -0.1488 -0.0315
 1099loPI   C1A17247   2.281  15.400   6.086  0.1472  0.0480 -0.2270
 1099loPI   C2A17248   2.224  15.321   6.513  0.4589  0.1433  0.2901
 1099loPI   C3A17249   2.411  15.094   6.818 -0.1281  0.0385 -0.0094
 1099loPI   C4A17250   2.457  14.871   7.145 -0.0151  0.1939  0.2123
 1099loPI   C5A17251   2.205  14.948   7.462  0.0251  0.0891  0.0278
 1099loPI   C6A17252   1.746  14.923   7.539 -0.1100 -0.0331 -0.1165
 1099loPI   C1B17253   2.581  14.919   6.326  0.0331  0.1458 -0.2449
 1099loPI   C2B17254   2.626  14.643   6.685  0.1151 -0.3303  0.2143
 1099loPI   C3B17255   2.798  14.366   6.735  0.2031 -0.1151  0.1318
 1099loPI   C4B17256   3.242  14.321   6.863 -0.1846 -0.3019 -0.2120
 1100loPI    C117257  10.140  16.035   5.170  0.0075 -0.0197 -0.2433
 1100loPI    C217258  10.516  15.904   5.127  0.0777  0.0391  0.1477
 1100loPI    C317259  10.387  16.217   4.913  0.1485 -0.1790 -0.2224
 1100loPI   PO417260  10.102  15.960   5.515 -0.5580  0.0735 -0.1660
 1100loPI   GL117261  10.213  16.169   5.943  0.0375 -0.0686  0.1789
 1100loPI   GL217262   9.903  16.295   5.849  0.1782 -0.0232  0.0454
 1100loPI   C1A17263  10.438  16.170   6.251 -0.0084 -0.0788 -0.0861
 1100loPI   C2A17264  10.471  16.194   6.749  0.0072 -0.1000 -0.3173
 1100loPI   C3A17265  10.744  16.220   7.054 -0.0570 -0.1845  0.0389
 1100loPI   C4A17266  10.870  16.573   7.340 -0.2892  0.3244  0.0396
 1100loPI   C5A17267  10.937  16.778   7.748 -0.0573  0.0953 -0.1852
 1100loPI   C6A17268  11.042  17.016   8.040 -0.2724  0.4019 -0.1435
 1100loPI   C1B17269   9.663  16.570   6.150 -0.2939 -0.0031 -0.1803
 1100loPI   C2B17270   9.614  16.566   6.551  0.0773 -0.1382  0.2409
 1100loPI   C3B17271   9.565  16.271   6.779 -0.4066 -0.1413 -0.4590
 1100loPI   C4B17272   9.581  16.096   7.205  0.1610 -0.0603 -0.4707
 1101loPI    C117273  17.549   5.691   4.753  0.1439 -0.1372 -0.0326
 1101loPI    C217274  17.332   5.888   4.481 -0.0396 -0.2443  0.0341
 1101loPI    C317275  17.729   5.862   4.440 -0.0493 -0.1296 -0.1412
 1101loPI   PO417276  17.490   5.814   4.957 -0.4080 -0.2471 -0.1675
 1101loPI   GL117277  17.529   6.023   5.289  0.0108 -0.2753  0.0566
 1101loPI   GL217278  17.827   6.029   5.360  0.1229 -0.0107 -0.1505
 1101loPI   C1A17279  17.416   6.019   5.677 -0.3574  0.2182 -0.1869
 1101loPI   C2A17280  17.520   5.893   6.079 -0.0867  0.3377  0.2138
 1101loPI   C3A17281  17.573   5.921   6.461  0.3542  0.2662 -0.1105
 1101loPI   C4A17282  17.564   5.923   6.881 -0.0062  0.2952  0.1389
 1101loPI   C5A17283  17.626   5.950   7.317  0.1502 -0.1848  0.1482
 1101loPI   C6A17284  17.514   6.114   7.672 -0.0825  0.2963 -0.0176
 1101loPI   C1B17285  17.976   5.997   5.731  0.3658 -0.3202 -0.0897
 1101loPI   C2B17286  18.018   6.052   6.187 -0.1279 -0.0553 -0.1026
 1101loPI   C3B17287  18.021   6.061   6.626 -0.0742  0.2630  0.1600
 1101loPI   C4B17288  18.140   6.079   7.015  0.0222 -0.2028 -0.1841
 1102loPI    C117289  15.333   2.388   4.660 -0.1297  0.0383 -0.0484
 1102loPI    C217290  15.647   2.143   4.691 -0.1480 -0.0037 -0.1877
 1102loPI    C317291  15.634   2.415   4.398 -0.0906  0.2192  0.0133
 1102loPI   PO417292  15.324   2.505   4.861 -0.0065 -0.3832 -0.2537
 1102loPI   GL117293  15.372   2.558   5.274  0.0429  0.1562  0.0380
 1102loPI   GL217294  15.058   2.529   5.462 -0.1720  0.1332  0.3664
 1102loPI   C1A17295  15.399   2.847   5.596  0.1873 -0.3377 -0.0693
 1102loPI   C2A17296  15.443   2.893   6.063 -0.1500 -0.2250  0.0795
 1102loPI   C3A17297  15.512   2.899   6.504 -0.1057 -0.0204 -0.1336
 1102loPI   C4A17298  15.587   2.889   6.991 -0.2962  0.1346 -0.2152
 1102loPI   C5A17299  15.608   3.041   7.397 -0.2693 -0.3072 -0.0716
 1102loPI   C6A17300  15.600   3.268   7.791  0.0497 -0.0944  0.1666
 1102loPI   C1B17301  15.338   2.402   5.883  0.0107 -0.1090 -0.0519
 1102loPI   C2B17302  15.341   2.397   6.257  0.1325 -0.0351  0.1122
 1102loPI   C3B17303  15.398   2.365   6.722  0.1527 -0.0071  0.0679
 1102loPI   C4B17304  15.526   2.450   7.199 -0.2913 -0.0918 -0.1329
 1103loPI    C117305  10.937  16.504   5.383 -0.0751 -0.0625  0.0336
 1103loPI    C217306  11.224  16.352   5.150 -0.0970  0.0981 -0.0999
 1103loPI    C317307  10.839  16.291   5.058 -0.1068 -0.0388  0.0275
 1103loPI   PO417308  11.065  16.477   5.639  0.0441 -0.1060  0.2493
 1103loPI   GL117309  11.158  16.438   6.072 -0.2079 -0.5273 -0.3545
 1103loPI   GL217310  10.807  16.502   6.103 -0.0243  0.2109 -0.0036
 1103loPI   C1A17311  11.409  16.155   6.332 -0.2497 -0.2983 -0.1318
 1103loPI   C2A17312  11.665  16.117   6.663 -0.3601  0.0699 -0.0696
 1103loPI   C3A17313  11.921  15.902   6.973 -0.0814 -0.2040 -0.0520
 1103loPI   C4A17314  11.922  15.562   7.253 -0.3148 -0.0989 -0.2214
 1103loPI   C5A17315  11.801  15.421   7.636  0.0018  0.2279  0.0555
 1103loPI   C6A17316  11.687  15.131   7.879 -0.1866  0.0024 -0.0922
 1103loPI   C1B17317  10.921  16.389   6.535 -0.3254 -0.1486  0.0315
 1103loPI   C2B17318  11.215  16.357   6.804  0.0441  0.1749  0.0144
 1103loPI   C3B17319  11.226  16.157   7.220  0.0526 -0.0503 -0.2760
 1103loPI   C4B17320  11.210  16.219   7.645  0.0673 -0.0284 -0.1039
 1104loPI    C117321  16.451  14.830   4.852  0.0880  0.0856 -0.1524
 1104loPI    C217322  16.564  15.167   4.668 -0.0205  0.0767 -0.2368
 1104loPI    C317323  16.181  15.052   4.657 -0.0408  0.1091  0.0499
 1104loPI   PO417324  16.573  14.826   5.135  0.1543  0.0681  0.0265
 1104loPI   GL117325  16.418  15.038   5.545  0.1751 -0.0581 -0.2114
 1104loPI   GL217326  16.131  15.275   5.686  0.1745  0.2067 -0.1501
 1104loPI   C1A17327  16.162  14.876   5.930 -0.1758 -0.0216 -0.0751
 1104loPI   C2A17328  16.152  14.894   6.401  0.1857  0.0904  0.1352
 1104loPI   C3A17329  16.179  14.912   6.838 -0.1190  0.2090 -0.1180
 1104loPI   C4A17330  16.095  14.923   7.248  0.2922  0.1803 -0.0345
 1104loPI   C5A17331  16.058  15.170   7.569 -0.3005  0.0501  0.1422
 1104loPI   C6A17332  15.991  15.318   8.009  0.2009 -0.0217  0.1950
 1104loPI   C1B17333  16.212  15.344   6.152  0.0779  0.0171 -0.1877
 1104loPI   C2B17334  16.258  15.416   6.622  0.0391 -0.0439 -0.2198
 1104loPI   C3B17335  16.203  15.383   7.109 -0.0547 -0.2085 -0.1623
 1104loPI   C4B17336  16.004  15.656   7.504 -0.1936 -0.0866 -0.3100
 1105loPI    C117337   2.307  13.152   4.760 -0.0242  0.3520 -0.0895
 1105loPI    C217338   2.525  12.838   4.643 -0.3869 -0.0186  0.1983
 1105loPI    C317339   2.248  12.991   4.398 -0.3389 -0.0415  0.1292
 1105loPI   PO417340   2.353  13.070   5.065 -0.2499  0.1101 -0.1774
 1105loPI   GL117341   2.282  12.740   5.356  0.0133  0.1748  0.1602
 1105loPI   GL217342   2.043  12.936   5.540  0.1862 -0.0378 -0.1566
 1105loPI   C1A17343   2.554  12.510   5.585  0.0949  0.1943 -0.1630
 1105loPI   C2A17344   2.744  12.529   5.971 -0.1811 -0.0485  0.0892
 1105loPI   C3A17345   2.690  12.405   6.359  0.1128 -0.1579  0.0507
 1105loPI   C4A17346   2.752  12.371   6.796  0.0062  0.2112  0.0604
 1105loPI   C5A17347   2.774  12.315   7.161  0.0121 -0.2385  0.1410
 1105loPI   C6A17348   2.464  12.176   7.462 -0.0728  0.1859  0.1271
 1105loPI   C1B17349   2.154  12.659   5.860 -0.2947 -0.0223 -0.0837
 1105loPI   C2B17350   2.248  12.637   6.254 -0.0464  0.0094  0.1117
 1105loPI   C3B17351   2.253  12.586   6.619  0.0581 -0.0866 -0.1121
 1105loPI   C4B17352   2.352  12.620   6.989 -0.3197  0.1050 -0.1675
 1106loPI    C117353   1.245  11.071   5.147 -0.0016  0.2449 -0.1160
 1106loPI    C217354   1.210  10.956   4.766  0.1205  0.2100 -0.1170
 1106loPI    C317355   1.558  10.910   4.958  0.0067  0.0553  0.0554
 1106loPI   PO417356   1.042  10.917   5.276  0.1296 -0.1646 -0.2268
 1106loPI   GL117357   1.100  10.601   5.599 -0.1898  0.1926 -0.4972
 1106loPI   GL217358   0.826  10.723   5.667 -0.1852  0.0308  0.0415
 1106loPI   C1A17359   1.165  10.644   6.050 -0.1610 -0.1733  0.0361
 1106loPI   C2A17360   1.032  10.794   6.445  0.3044  0.0136  0.2354
 1106loPI   C3A17361   1.146  10.845   6.850 -0.0435 -0.2889  0.0297
 1106loPI   C4A17362   0.957  10.866   7.238 -0.2808  0.0988  0.2377
 1106loPI   C5A17363   0.999  10.850   7.767 -0.1099 -0.2347 -0.0915
 1106loPI   C6A17364   1.361  10.692   8.020 -0.0796  0.1620  0.1626
 1106loPI   C1B17365   0.615  10.731   6.139  0.2213 -0.2056  0.0377
 1106loPI   C2B17366   0.493  10.698   6.593 -0.0261  0.0588 -0.2076
 1106loPI   C3B17367   0.532  10.681   7.022 -0.2942  0.1198  0.0741
 1106loPI   C4B17368   0.531  10.674   7.504 -0.0386 -0.5360  0.0690
 1107loPI    C117369  16.182   9.096   4.810  0.0532 -0.1240 -0.0914
 1107loPI    C217370  16.258   9.470   4.688  0.0190  0.0038  0.2676
 1107loPI    C317371  15.918   9.289   4.578  0.1383 -0.0094 -0.0934
 1107loPI   PO417372  16.183   9.049   5.054 -0.1719  0.1456 -0.2335
 1107loPI   GL117373  16.482   9.225   5.400 -0.0497 -0.2349 -0.1095
 1107loPI   GL217374  16.651   9.098   5.564 -0.0647  0.0639 -0.2406
 1107loPI   C1A17375  16.279   9.369   5.771  0.2853 -0.3640  0.0369
 1107loPI   C2A17376  16.389   9.353   6.143 -0.1018  0.2928 -0.1043
 1107loPI   C3A17377  16.315   9.295   6.598 -0.3745 -0.1026 -0.1083
 1107loPI   C4A17378  16.406   9.285   7.054 -0.2994  0.3084  0.0808
 1107loPI   C5A17379  16.444   9.296   7.551 -0.0180 -0.0540 -0.5003
 1107loPI   C6A17380  16.727   9.156   7.876  0.2334  0.0869  0.3543
 1107loPI   C1B17381  16.765   8.964   6.029 -0.3305 -0.3733  0.1358
 1107loPI   C2B17382  16.673   9.011   6.386  0.0064  0.1358  0.0408
 1107loPI   C3B17383  16.778   9.005   6.823 -0.2078  0.0195 -0.1822
 1107loPI   C4B17384  16.733   9.001   7.228 -0.0188 -0.0292  0.2165
 1108loPI    C117385   0.447  10.502   4.703  0.1048  0.0014 -0.0962
 1108loPI    C217386   0.067  10.490   4.578  0.0029 -0.0246  0.2085
 1108loPI    C317387   0.363  10.540   4.314 -0.1961 -0.2240 -0.0569
 1108loPI   PO417388   0.410  10.353   4.980 -0.1181  0.1548  0.2070
 1108loPI   GL117389   0.271  10.337   5.308 -0.1735 -0.1382 -0.0227
 1108loPI   GL217390   0.171   9.979   5.418 -0.0321  0.3972  0.0369
 1108loPI   C1A17391   0.288  10.504   5.728 -0.0655  0.1102  0.4505
 1108loPI   C2A17392   0.063  10.438   6.128  0.1093 -0.1255 -0.0078
 1108loPI   C3A17393  -0.041  10.577   6.476 -0.3485 -0.2679 -0.4082
 1108loPI   C4A17394   0.064  10.615   6.905  0.0667 -0.2166  0.1673
 1108loPI   C5A17395  -0.031  10.611   7.285  0.0142 -0.1701  0.0415
 1108loPI   C6A17396  -0.016  10.653   7.736  0.2461  0.1580  0.0539
 1108loPI   C1B17397   0.043   9.960   5.774 -0.0360  0.1675 -0.0240
 1108loPI   C2B17398  -0.045   9.987   6.228 -0.1722  0.2660 -0.0399
 1108loPI   C3B17399  -0.035  10.014   6.660 -0.0692  0.0703  0.2837
 1108loPI   C4B17400  -0.076  10.021   7.089  0.0711  0.1128  0.1737
 1109loPI    C117401  14.832   8.734   5.032  0.0375  0.1121 -0.1692
 1109loPI    C217402  14.650   8.383   5.090  0.0374  0.1267 -0.0796
 1109loPI    C317403  14.525   8.627   4.799  0.1401 -0.0176 -0.2465
 1109loPI   PO417404  14.841   8.788   5.351  0.0853 -0.1826  0.2064
 1109loPI   GL117405  15.057   8.725   5.761  0.0347 -0.0017  0.0292
 1109loPI   GL217406  14.685   8.800   5.860 -0.0709 -0.0599 -0.0729
 1109loPI   C1A17407  14.833   8.347   6.042 -0.1753 -0.0401 -0.1672
 1109loPI   C2A17408  14.774   8.342   6.449 -0.1825 -0.1178 -0.1069
 1109loPI   C3A17409  14.823   8.359   6.857  0.0875 -0.0629 -0.1039
 1109loPI   C4A17410  14.801   8.434   7.303  0.0972  0.3154  0.0600
 1109loPI   C5A17411  14.677   8.336   7.675  0.2127  0.0269  0.2471
 1109loPI   C6A17412  14.631   8.594   8.012  0.1674  0.3221  0.3364
 1109loPI   C1B17413  14.925   8.849   6.291 -0.0302 -0.2207  0.1016
 1109loPI   C2B17414  14.942   8.844   6.714  0.1571  0.1287  0.0374
 1109loPI   C3B17415  14.934   8.862   7.155 -0.0453 -0.1813 -0.1513
 1109loPI   C4B17416  14.870   8.866   7.593 -0.4054 -0.1460 -0.1273
 1110loPI    C117417   6.212  11.788   5.312  0.1916 -0.0183 -0.0248
 1110loPI    C217418   5.997  11.968   5.026 -0.0216 -0.1565  0.0469
 1110loPI    C317419   6.207  11.638   4.941  0.2900  0.0659 -0.0606
 1110loPI   PO417420   6.018  11.676   5.501 -0.1569  0.0255 -0.1726
 1110loPI   GL117421   6.043  11.488   5.936 -0.5961  0.0842  0.2917
 1110loPI   GL217422   6.294  11.292   6.104  0.0655 -0.0972  0.0398
 1110loPI   C1A17423   6.109  11.704   6.300 -0.2847 -0.2290  0.0626
 1110loPI   C2A17424   6.217  11.724   6.816 -0.0225  0.0878 -0.2096
 1110loPI   C3A17425   6.137  11.807   7.236 -0.1716 -0.1926  0.0920
 1110loPI   C4A17426   6.065  11.493   7.575  0.3210 -0.2490  0.0238
 1110loPI   C5A17427   6.113  11.157   7.802  0.0196 -0.0656 -0.1770
 1110loPI   C6A17428   6.253  11.159   8.217  0.0733  0.1408  0.2182
 1110loPI   C1B17429   6.357  11.276   6.526 -0.0252  0.0365  0.1282
 1110loPI   C2B17430   6.312  11.207   6.995 -0.0641 -0.0018  0.1615
 1110loPI   C3B17431   6.364  10.852   7.372 -0.1469 -0.1679  0.4005
 1110loPI   C4B17432   6.419  10.661   7.722 -0.2221  0.0185  0.2022
 1111loPI    C117433   4.514   5.976   5.028 -0.1389 -0.1509  0.1781
 1111loPI    C217434   4.873   6.061   5.181  0.0563 -0.2350 -0.2181
 1111loPI    C317435   4.804   5.700   5.025 -0.1429 -0.1586 -0.3095
 1111loPI   PO417436   4.338   6.102   5.239 -0.1512 -0.2128  0.1218
 1111loPI   GL117437   4.382   6.022   5.547 -0.0056  0.2748  0.0521
 1111loPI   GL217438   4.653   5.728   5.491  0.2365 -0.1622 -0.1964
 1111loPI   C1A17439   4.262   6.110   5.950 -0.1420 -0.0499  0.2573
 1111loPI   C2A17440   4.326   6.141   6.314  0.0756 -0.0493 -0.2200
 1111loPI   C3A17441   4.305   6.176   6.771  0.0968  0.1780 -0.1503
 1111loPI   C4A17442   4.379   6.121   7.210 -0.3633 -0.0982 -0.1063
 1111loPI   C5A17443   4.372   6.203   7.680 -0.1557  0.1287 -0.0010
 1111loPI   C6A17444   4.444   6.584   7.923  0.0550  0.2262 -0.3232
 1111loPI   C1B17445   4.623   5.716   5.965 -0.0011  0.0887  0.3083
 1111loPI   C2B17446   4.592   5.715   6.391 -0.1025  0.2885  0.0030
 1111loPI   C3B17447   4.607   5.681   6.811  0.2743  0.2918  0.3023
 1111loPI   C4B17448   4.819   5.763   7.138 -0.0669 -0.1453 -0.2198
 1112loPI    C117449  13.556  14.675   5.260  0.0887  0.1038  0.0934
 1112loPI    C217450  13.893  14.876   5.339  0.1459  0.0604 -0.0379
 1112loPI    C317451  13.607  15.044   5.114  0.1394  0.0436 -0.0422
 1112loPI   PO417452  13.327  14.597   5.491 -0.2763 -0.1820 -0.2422
 1112loPI   GL117453  13.180  14.718   5.832 -0.1016  0.0846 -0.1536
 1112loPI   GL217454  12.831  14.692   6.036  0.2349  0.1072  0.0684
 1112loPI   C1A17455  13.254  14.393   6.217  0.0439 -0.0281  0.2827
 1112loPI   C2A17456  13.245  14.346   6.666 -0.1918  0.1882 -0.0544
 1112loPI   C3A17457  12.902  14.271   6.918 -0.0278 -0.1702  0.0880
 1112loPI   C4A17458  12.885  14.143   7.315 -0.2500  0.1360  0.0173
 1112loPI   C5A17459  12.678  13.737   7.566 -0.2362  0.0681  0.0638
 1112loPI   C6A17460  12.588  13.239   7.799  0.0217  0.1502  0.1951
 1112loPI   C1B17461  12.971  14.739   6.451 -0.0380 -0.1227 -0.2213
 1112loPI   C2B17462  12.657  14.646   6.726  0.0401  0.3764 -0.2571
 1112loPI   C3B17463  12.391  14.462   7.103 -0.1926 -0.0224  0.3215
 1112loPI   C4B17464  12.265  14.450   7.545  0.1855 -0.4438 -0.3571
 1113loPI    C117465  13.812  15.470   5.489 -0.0811 -0.1103  0.1673
 1113loPI    C217466  13.937  15.390   5.118  0.2308  0.1061  0.2219
 1113loPI    C317467  13.876  15.769   5.231  0.0074  0.0327  0.3526
 1113loPI   PO417468  13.956  15.302   5.664  0.1415 -0.3215 -0.1303
 1113loPI   GL117469  14.044  15.063   5.904 -0.2686  0.1421 -0.3974
 1113loPI   GL217470  14.166  14.802   5.740 -0.0544 -0.0769  0.1413
 1113loPI   C1A17471  14.080  15.060   6.309 -0.3021  0.0437 -0.0716
 1113loPI   C2A17472  14.253  14.821   6.587  0.2162 -0.2255 -0.2218
 1113loPI   C3A17473  14.250  14.809   7.012  0.0418  0.1780 -0.1321
 1113loPI   C4A17474  14.234  14.796   7.418 -0.0996 -0.0634  0.2914
 1113loPI   C5A17475  14.420  14.907   7.803  0.0075 -0.0093  0.1738
 1113loPI   C6A17476  14.455  14.652   8.225  0.0966 -0.1766 -0.2886
 1113loPI   C1B17477  14.119  14.620   6.142 -0.2981 -0.2151 -0.0653
 1113loPI   C2B17478  14.203  14.331   6.555  0.0193 -0.2772  0.0716
 1113loPI   C3B17479  14.224  14.258   7.010 -0.0912  0.5420 -0.0149
 1113loPI   C4B17480  14.173  14.271   7.454 -0.1884 -0.2042  0.1871
 1114loPI    C117481  12.003   0.587   5.289 -0.3057 -0.2781  0.5255
 1114loPI    C217482  11.656   0.421   5.178 -0.1920 -0.3376  0.2495
 1114loPI    C317483  11.983   0.195   5.213 -0.0063 -0.1593 -0.2528
 1114loPI   PO417484  11.925   0.818   5.458  0.3472  0.2475 -0.1363
 1114loPI   GL117485  11.989   0.885   5.865 -0.0933 -0.0170  0.1057
 1114loPI   GL217486  12.352   0.863   6.022  0.2423  0.1327 -0.1695
 1114loPI   C1A17487  11.799   1.148   6.327 -0.0171 -0.0535  0.0333
 1114loPI   C2A17488  11.649   1.296   6.774  0.3079 -0.0460  0.1526
 1114loPI   C3A17489  11.443   1.427   7.117  0.0488  0.0118  0.2387
 1114loPI   C4A17490  11.314   1.378   7.484 -0.1583  0.3932 -0.1358
 1114loPI   C5A17491  11.060   1.597   7.877 -0.0716  0.0017  0.1435
 1114loPI   C6A17492  10.861   1.685   8.193 -0.3576 -0.0512  0.0000
 1114loPI   C1B17493  12.309   1.023   6.375  0.1774  0.2009  0.0525
 1114loPI   C2B17494  12.108   1.089   6.748  0.0216  0.0230  0.0885
 1114loPI   C3B17495  11.992   1.080   7.100  0.1789 -0.0723  0.3717
 1114loPI   C4B17496  11.613   1.006   7.327 -0.3047 -0.4976 -0.0625
 1115loPI    C117497   9.898   7.497   4.945 -0.0602 -0.1283  0.0886
 1115loPI    C217498  10.140   7.210   4.806 -0.1464 -0.0598 -0.2108
 1115loPI    C317499  10.001   7.492   4.558 -0.4198 -0.0160 -0.0127
 1115loPI   PO417500   9.935   7.453   5.191  0.3209  0.0009  0.1428
 1115loPI   GL117501  10.035   7.506   5.593  0.1537  0.2301 -0.1684
 1115loPI   GL217502   9.767   7.529   5.853  0.0139  0.1874  0.3709
 1115loPI   C1A17503  10.453   7.626   5.861  0.0506 -0.1554 -0.2242
 1115loPI   C2A17504  10.508   7.965   6.111  0.3031 -0.2890 -0.1072
 1115loPI   C3A17505  10.575   7.980   6.454  0.1827 -0.0791  0.1232
 1115loPI   C4A17506  10.648   7.853   6.897 -0.1367  0.1697 -0.0486
 1115loPI   C5A17507  10.618   7.835   7.341  0.1259  0.2101 -0.0440
 1115loPI   C6A17508  10.506   7.912   7.715  0.2513  0.2297  0.0554
 1115loPI   C1B17509   9.842   7.318   6.172  0.2291 -0.1053 -0.1605
 1115loPI   C2B17510   9.953   7.082   6.551 -0.1155 -0.2643  0.3246
 1115loPI   C3B17511   9.906   7.160   6.954  0.1791  0.1525 -0.1493
 1115loPI   C4B17512  10.000   7.328   7.338  0.1794  0.0189  0.1133
 1116loPI    C117513  12.467   1.504   5.588 -0.0932 -0.0757  0.1621
 1116loPI    C217514  12.399   1.520   5.194 -0.1626 -0.2828  0.1645
 1116loPI    C317515  12.758   1.621   5.339 -0.1577 -0.1408  0.0551
 1116loPI   PO417516  12.361   1.621   5.721 -0.0571  0.1668 -0.1381
 1116loPI   GL117517  12.392   1.941   6.052  0.0474 -0.2374 -0.1699
 1116loPI   GL217518  12.727   1.883   6.153  0.3696  0.2701  0.0930
 1116loPI   C1A17519  12.377   1.992   6.510 -0.0854  0.0847  0.1246
 1116loPI   C2A17520  12.585   1.953   6.950 -0.2141 -0.0652  0.0793
 1116loPI   C3A17521  12.410   1.823   7.325  0.1481  0.1614  0.1797
 1116loPI   C4A17522  12.560   2.033   7.690  0.0359 -0.0822 -0.0454
 1116loPI   C5A17523  12.448   2.211   7.991  0.3335  0.1496  0.4448
 1116loPI   C6A17524  12.426   2.375   8.335 -0.0213  0.1156 -0.1834
 1116loPI   C1B17525  12.885   1.650   6.385  0.0564  0.0867 -0.1014
 1116loPI   C2B17526  12.964   1.652   6.863  0.0140 -0.0733 -0.0947
 1116loPI   C3B17527  12.859   1.444   7.225  0.1353  0.0099 -0.0645
 1116loPI   C4B17528  12.853   1.610   7.659  0.1647  0.1422 -0.1263
 1117loPI    C117529  17.616  18.306   4.825  0.0387  0.0752 -0.0952
 1117loPI    C217530  17.281  18.397   4.626  0.0298 -0.1622 -0.1929
 1117loPI    C317531  17.384  18.014   4.678  0.1106 -0.0995  0.1318
 1117loPI   PO417532  17.611  18.358   5.104  0.0076 -0.1540  0.1185
 1117loPI   GL117533  17.445  18.481   5.501  0.1972 -0.1345 -0.0047
 1117loPI   GL217534  17.704  18.676   5.588 -0.0218 -0.3864 -0.1000
 1117loPI   C1A17535  17.355  18.196   5.759  0.1019  0.2706  0.3451
 1117loPI   C2A17536  17.166  17.846   5.966  0.1269 -0.1450 -0.0700
 1117loPI   C3A17537  17.013  17.919   6.432 -0.0941  0.1409  0.0171
 1117loPI   C4A17538  17.101  18.038   6.856  0.0503  0.0823 -0.0249
 1117loPI   C5A17539  17.166  18.144   7.244  0.2211  0.0911 -0.1823
 1117loPI   C6A17540  17.250  18.176   7.646 -0.1924 -0.0867 -0.0414
 1117loPI   C1B17541  17.566  18.556   6.036 -0.0702  0.2644 -0.0802
 1117loPI   C2B17542  17.655  18.717   6.488  0.0480  0.3931  0.1761
 1117loPI   C3B17543  17.652  18.751   6.958 -0.1768  0.1179  0.1129
 1117loPI   C4B17544  17.674  18.720   7.450 -0.0005 -0.1526 -0.2314
 1118loPI    C117545   6.702   2.008   5.362  0.0689 -0.2785  0.0928
 1118loPI    C217546   6.598   1.649   5.219 -0.1017 -0.0818 -0.2931
 1118loPI    C317547   6.923   1.834   5.078  0.0651 -0.1414  0.0051
 1118loPI   PO417548   6.607   2.030   5.583 -0.2087 -0.0776 -0.0886
 1118loPI   GL117549   6.651   1.758   5.851 -0.2957  0.1862  0.0327
 1118loPI   GL217550   6.967   1.514   5.997  0.0455 -0.3199 -0.3557
 1118loPI   C1A17551   6.469   1.710   6.206 -0.0229 -0.0492 -0.0540
 1118loPI   C2A17552   6.531   1.743   6.670 -0.0893  0.0274  0.1036
 1118loPI   C3A17553   6.638   1.793   7.096  0.0523 -0.0728 -0.0772
 1118loPI   C4A17554   6.765   2.016   7.437 -0.1480 -0.0637  0.0527
 1118loPI   C5A17555   6.562   2.014   7.833  0.2452  0.1120 -0.0364
 1118loPI   C6A17556   6.738   1.809   8.242  0.1017 -0.1914  0.0532
 1118loPI   C1B17557   6.961   1.553   6.473  0.1718  0.0867  0.1338
 1118loPI   C2B17558   7.000   1.488   6.864  0.2078 -0.2847 -0.1447
 1118loPI   C3B17559   7.028   1.505   7.247  0.2731 -0.0838  0.0639
 1118loPI   C4B17560   7.263   1.421   7.607  0.0053  0.0093 -0.0599
 1119loPI    C117561  15.910   6.828   4.762  0.1800  0.1023 -0.0380
 1119loPI    C217562  15.627   7.101   4.689  0.0112 -0.0378  0.0842
 1119loPI    C317563  15.731   6.840   4.405 -0.0316 -0.0301  0.0615
 1119loPI   PO417564  15.875   6.844   5.046  0.0572  0.0239  0.1091
 1119loPI   GL117565  15.738   7.011   5.531  0.1837 -0.2870  0.1797
 1119loPI   GL217566  15.960   6.772   5.545  0.1535 -0.0383  0.2372
 1119loPI   C1A17567  16.052   7.242   5.764 -0.0873 -0.4467  0.2089
 1119loPI   C2A17568  15.980   7.331   6.176  0.2515  0.2272 -0.2539
 1119loPI   C3A17569  16.002   7.387   6.638 -0.0892  0.1380  0.2616
 1119loPI   C4A17570  15.919   7.298   7.038 -0.1522 -0.0638 -0.1203
 1119loPI   C5A17571  15.981   7.384   7.522  0.0839  0.1306  0.1568
 1119loPI   C6A17572  15.726   7.629   7.742 -0.0836  0.2443 -0.0591
 1119loPI   C1B17573  15.824   6.833   6.001  0.4356  0.1281  0.1986
 1119loPI   C2B17574  15.810   6.943   6.436  0.1254  0.0344 -0.1483
 1119loPI   C3B17575  15.879   6.836   6.862  0.2297  0.1800 -0.1311
 1119loPI   C4B17576  16.041   6.881   7.246 -0.3014  0.0511 -0.0132
 1120loPI    C117577   4.183   2.819   5.578  0.0947 -0.1800 -0.2415
 1120loPI    C217578   4.210   3.150   5.355 -0.0536  0.0072  0.0126
 1120loPI    C317579   4.063   2.813   5.197 -0.2139  0.1542 -0.1547
 1120loPI   PO417580   3.994   2.884   5.806  0.0979 -0.1785  0.1890
 1120loPI   GL117581   3.882   3.060   6.121 -0.4148 -0.3204 -0.3144
 1120loPI   GL217582   3.552   3.272   6.160 -0.2591  0.1051  0.0685
 1120loPI   C1A17583   4.243   3.149   6.418 -0.1301  0.3956 -0.0870
 1120loPI   C2A17584   4.413   3.051   6.768 -0.0609 -0.0593 -0.0330
 1120loPI   C3A17585   4.355   2.982   7.234 -0.0147  0.2603 -0.3061
 1120loPI   C4A17586   4.269   3.203   7.613 -0.2271 -0.0047 -0.3757
 1120loPI   C5A17587   3.988   3.289   7.951  0.2288  0.1514 -0.0115
 1120loPI   C6A17588   3.630   3.445   8.247  0.2647 -0.3451  0.3676
 1120loPI   C1B17589   3.647   3.142   6.583  0.0531  0.1192 -0.2981
 1120loPI   C2B17590   3.752   3.416   7.078 -0.0634  0.0454 -0.0749
 1120loPI   C3B17591   3.550   3.363   7.459  0.4006 -0.2892 -0.1027
 1120loPI   C4B17592   3.357   3.483   7.854  0.1824 -0.1635  0.1018
 1121loPI    C117593  16.000  16.329   4.812 -0.1022  0.2641 -0.0394
 1121loPI    C217594  16.396  16.381   4.830 -0.0835  0.0593  0.1941
 1121loPI    C317595  16.159  16.686   4.726  0.1312  0.1939  0.0920
 1121loPI   PO417596  15.952  16.231   5.024  0.1908 -0.3122  0.0723
 1121loPI   GL117597  16.062  16.224   5.437 -0.1479  0.2675  0.0287
 1121loPI   GL217598  16.360  16.263   5.414  0.3817  0.2991  0.2385
 1121loPI   C1A17599  16.006  16.233   5.869  0.0221 -0.0614  0.0018
 1121loPI   C2A17600  15.956  16.257   6.272  0.0222 -0.0197 -0.1650
 1121loPI   C3A17601  16.071  16.338   6.743 -0.1317  0.0857  0.0996
 1121loPI   C4A17602  16.286  16.426   7.154  0.0997  0.1699 -0.1712
 1121loPI   C5A17603  16.568  16.572   7.528  0.0791 -0.3443 -0.0113
 1121loPI   C6A17604  16.786  16.860   7.615 -0.0054 -0.2008  0.0686
 1121loPI   C1B17605  16.510  16.356   5.831  0.4112  0.0211  0.0187
 1121loPI   C2B17606  16.427  16.318   6.274 -0.1224 -0.1814  0.0737
 1121loPI   C3B17607  16.630  16.436   6.668 -0.7166 -0.1937 -0.3204
 1121loPI   C4B17608  16.832  16.654   7.035 -0.1647  0.0405 -0.4578
 1122loPI    C117609   4.062   9.615   4.961 -0.0191 -0.0565  0.0359
 1122loPI    C217610   4.422   9.601   5.134  0.0868  0.1427 -0.1642
 1122loPI    C317611   4.388   9.548   4.739 -0.1032  0.1299 -0.1468
 1122loPI   PO417612   3.949   9.690   5.227 -0.2306 -0.0964 -0.0452
 1122loPI   GL117613   3.801   9.599   5.611 -0.0173 -0.1450  0.0212
 1122loPI   GL217614   3.931   9.338   5.632  0.1601  0.0123 -0.0649
 1122loPI   C1A17615   3.555   9.650   5.937  0.1425  0.1711 -0.1604
 1122loPI   C2A17616   3.281   9.549   6.212  0.2464 -0.0404  0.1549
 1122loPI   C3A17617   3.131   9.477   6.657 -0.0567 -0.2066  0.2287
 1122loPI   C4A17618   3.103   9.608   7.133 -0.1298 -0.2823  0.1958
 1122loPI   C5A17619   3.014   9.482   7.519  0.0929  0.1650 -0.0054
 1122loPI   C6A17620   3.095   9.361   7.972  0.1043 -0.3505  0.0030
 1122loPI   C1B17621   3.840   9.264   6.004 -0.0410 -0.1245  0.2843
 1122loPI   C2B17622   3.662   9.433   6.460 -0.3456 -0.2925 -0.0590
 1122loPI   C3B17623   3.595   9.642   6.844 -0.1851 -0.0023  0.1843
 1122loPI   C4B17624   3.518   9.723   7.294 -0.1164  0.1874  0.3228
 1123loPI    C117625   6.576  10.345   4.971 -0.0708  0.1119  0.1058
 1123loPI    C217626   6.374  10.160   4.680 -0.1420  0.0470  0.1960
 1123loPI    C317627   6.746  10.290   4.613 -0.2501  0.2603 -0.0041
 1123loPI   PO417628   6.365  10.429   5.176 -0.0957 -0.1418  0.0434
 1123loPI   GL117629   6.331  10.231   5.588 -0.2454  0.1329  0.3045
 1123loPI   GL217630   6.339  10.544   5.797 -0.2397 -0.2993  0.3477
 1123loPI   C1A17631   6.388  10.012   6.019 -0.2716  0.0862 -0.1853
 1123loPI   C2A17632   6.296   9.766   6.500 -0.0854 -0.1627  0.1429
 1123loPI   C3A17633   6.097   9.844   6.853 -0.1139 -0.1600 -0.0501
 1123loPI   C4A17634   6.026   9.842   7.313  0.3493 -0.1780  0.0263
 1123loPI   C5A17635   6.115   9.874   7.705  0.0159  0.0381  0.4038
 1123loPI   C6A17636   6.041  10.065   8.124  0.1522  0.0357 -0.1039
 1123loPI   C1B17637   6.441  10.473   6.239 -0.0259 -0.0393  0.0285
 1123loPI   C2B17638   6.418  10.284   6.609 -0.3129 -0.2560  0.3102
 1123loPI   C3B17639   6.327  10.237   7.076 -0.0282  0.0969  0.0292
 1123loPI   C4B17640   6.287  10.298   7.372  0.1146 -0.0314 -0.0235
 1124loPI    C117641   8.535  16.301   5.158  0.2081  0.4006  0.1258
 1124loPI    C217642   8.826  16.202   4.902 -0.0985 -0.0979 -0.0441
 1124loPI    C317643   8.456  16.274   4.767 -0.1353  0.2004  0.2045
 1124loPI   PO417644   8.704  16.228   5.410  0.0385  0.1159  0.1039
 1124loPI   GL117645   8.950  16.598   5.588 -0.3391 -0.0328 -0.1145
 1124loPI   GL217646   9.037  16.363   5.818 -0.0908  0.2027  0.0873
 1124loPI   C1A17647   8.770  16.770   5.946  0.1314 -0.0043  0.0099
 1124loPI   C2A17648   8.714  16.672   6.437  0.1481 -0.1722  0.1348
 1124loPI   C3A17649   8.743  16.643   6.967  0.0234  0.0779  0.0426
 1124loPI   C4A17650   8.654  16.389   7.270 -0.3096  0.1947  0.0739
 1124loPI   C5A17651   8.527  16.371   7.718 -0.0520  0.2879  0.2213
 1124loPI   C6A17652   8.406  16.347   8.199  0.2669  0.0179  0.2359
 1124loPI   C1B17653   9.047  16.351   6.216  0.4879  0.1452  0.0264
 1124loPI   C2B17654   9.043  16.257   6.667  0.2477  0.3035 -0.3279
 1124loPI   C3B17655   9.016  16.005   7.081 -0.3419  0.0271 -0.1947
 1124loPI   C4B17656   8.798  16.006   7.524 -0.0122  0.0688 -0.1326
 1125loPI    C117657  15.743   1.306   4.881 -0.3072 -0.2086  0.0439
 1125loPI    C217658  15.492   1.112   4.636 -0.0159 -0.1771 -0.2880
 1125loPI    C317659  15.885   1.109   4.563  0.0736 -0.1289  0.1599
 1125loPI   PO417660  15.662   1.199   5.198  0.0939 -0.1934  0.1283
 1125loPI   GL117661  15.559   1.437   5.514 -0.1363  0.2265  0.2414
 1125loPI   GL217662  15.702   1.713   5.615  0.0512  0.0910  0.0335
 1125loPI   C1A17663  15.626   1.514   6.010  0.0253  0.4018  0.1292
 1125loPI   C2A17664  15.518   1.499   6.411 -0.0659  0.4136 -0.0024
 1125loPI   C3A17665  15.619   1.517   6.826 -0.0787 -0.2240 -0.1156
 1125loPI   C4A17666  15.640   1.610   7.296 -0.2419 -0.2454 -0.0739
 1125loPI   C5A17667  15.587   1.555   7.747  0.1238  0.2323  0.1221
 1125loPI   C6A17668  15.349   1.425   8.051 -0.1055  0.3564  0.0132
 1125loPI   C1B17669  15.710   2.075   5.943 -0.2131 -0.2231 -0.0583
 1125loPI   C2B17670  15.773   2.016   6.351 -0.1094  0.0441  0.0058
 1125loPI   C3B17671  15.741   2.025   6.780 -0.1635  0.1151  0.2869
 1125loPI   C4B17672  15.791   2.053   7.191  0.1453 -0.0952 -0.3102
 1126loPI    C117673  14.953   6.399   4.643  0.0927 -0.0426 -0.0354
 1126loPI    C217674  14.621   6.390   4.420  0.1125  0.0955 -0.0713
 1126loPI    C317675  14.834   6.727   4.448  0.1178  0.0756  0.1453
 1126loPI   PO417676  14.887   6.284   4.918 -0.0946 -0.3002 -0.0732
 1126loPI   GL117677  15.050   6.194   5.324  0.1126  0.0630  0.1228
 1126loPI   GL217678  14.906   6.369   5.469  0.1366  0.1097 -0.2562
 1126loPI   C1A17679  15.044   5.834   5.593  0.1695  0.0948  0.1160
 1126loPI   C2A17680  15.018   5.674   5.981 -0.1302  0.1806 -0.0661
 1126loPI   C3A17681  15.177   5.532   6.358 -0.0922 -0.1970 -0.4032
 1126loPI   C4A17682  15.147   5.663   6.735  0.1066 -0.0976 -0.2469
 1126loPI   C5A17683  15.291   5.695   7.117  0.1314 -0.1893 -0.0529
 1126loPI   C6A17684  15.348   5.705   7.561  0.1897  0.0507 -0.0776
 1126loPI   C1B17685  14.798   6.498   5.932 -0.3304  0.0405 -0.1878
 1126loPI   C2B17686  14.740   6.537   6.369 -0.3389 -0.3796 -0.1399
 1126loPI   C3B17687  14.859   6.560   6.820 -0.3335  0.0344  0.1915
 1126loPI   C4B17688  15.067   6.450   7.210 -0.0904  0.1256  0.0871
 1127loPI    C117689  12.814   9.707   5.303 -0.2528  0.2265 -0.0161
 1127loPI    C217690  12.487   9.888   5.161 -0.1550  0.2944 -0.1567
 1127loPI    C317691  12.782   9.782   4.911 -0.2673 -0.1788 -0.0970
 1127loPI   PO417692  12.642   9.457   5.538 -0.1595  0.1441 -0.2776
 1127loPI   GL117693  12.517   9.532   5.928 -0.3442 -0.1951 -0.0747
 1127loPI   GL217694  12.709   9.582   6.139  0.0239 -0.0692 -0.1414
 1127loPI   C1A17695  12.289   9.388   6.318  0.0779 -0.0561  0.0256
 1127loPI   C2A17696  12.265   9.315   6.776 -0.0679  0.0867 -0.1347
 1127loPI   C3A17697  12.317   9.319   7.214 -0.2230 -0.1274  0.2920
 1127loPI   C4A17698  12.586   9.360   7.548  0.1557 -0.1254  0.0097
 1127loPI   C5A17699  12.925   9.090   7.757  0.0075  0.1806  0.0060
 1127loPI   C6A17700  13.168   9.090   8.156 -0.2008  0.1127  0.0620
 1127loPI   C1B17701  12.685   9.459   6.590  0.0573 -0.0094  0.1390
 1127loPI   C2B17702  12.639   9.620   7.066 -0.0805  0.2643  0.0080
 1127loPI   C3B17703  12.374   9.811   7.365 -0.0731  0.2665  0.1039
 1127loPI   C4B17704  12.095   9.528   7.636 -0.0430  0.1796 -0.0346
 1128loPI    C117705   8.707   7.129   5.038  0.0961 -0.0517  0.0191
 1128loPI    C217706   8.928   7.455   4.968 -0.1534  0.1235  0.0341
 1128loPI    C317707   8.952   7.140   4.722 -0.1086  0.2565 -0.1336
 1128loPI   PO417708   8.647   7.219   5.318  0.2526 -0.2664  0.0134
 1128loPI   GL117709   8.632   7.261   5.764 -0.1000  0.2140  0.1218
 1128loPI   GL217710   8.873   7.168   5.922  0.0971 -0.1452  0.1785
 1128loPI   C1A17711   8.566   7.639   6.017 -0.0804 -0.1357 -0.2585
 1128loPI   C2A17712   8.592   7.709   6.459 -0.3473  0.0801 -0.2087
 1128loPI   C3A17713   8.680   7.745   6.884 -0.0293  0.3791  0.0122
 1128loPI   C4A17714   8.858   7.999   7.207  0.1864 -0.1342  0.0807
 1128loPI   C5A17715   8.914   8.399   7.345  0.2012 -0.0207 -0.3690
 1128loPI   C6A17716   9.054   8.834   7.483  0.0136  0.1447  0.2390
 1128loPI   C1B17717   8.697   7.261   6.252 -0.2405 -0.2318  0.0511
 1128loPI   C2B17718   8.581   7.149   6.745 -0.1689  0.1591 -0.2201
 1128loPI   C3B17719   8.691   7.269   7.099  0.0558 -0.0927  0.2010
 1128loPI   C4B17720   8.641   7.569   7.414 -0.2318  0.4178 -0.0628
 1129loPI    C117721   4.934   6.864   4.979 -0.1502  0.0385 -0.1795
 1129loPI    C217722   5.055   6.778   4.608  0.2440 -0.0923 -0.0264
 1129loPI    C317723   5.191   7.106   4.792 -0.0333  0.0295 -0.0325
 1129loPI   PO417724   5.010   6.697   5.105 -0.1422 -0.1552 -0.0269
 1129loPI   GL117725   5.105   6.734   5.567 -0.1150 -0.0417 -0.2413
 1129loPI   GL217726   4.803   6.840   5.626  0.0909  0.0662 -0.0768
 1129loPI   C1A17727   5.109   6.620   5.971  0.0282  0.0022  0.0971
 1129loPI   C2A17728   5.064   6.689   6.468 -0.0183 -0.1620  0.0108
 1129loPI   C3A17729   4.975   6.835   6.932 -0.2357 -0.1575 -0.1240
 1129loPI   C4A17730   5.098   7.133   7.298  0.1223 -0.1993  0.2143
 1129loPI   C5A17731   5.162   7.290   7.741  0.3591  0.0869  0.0986
 1129loPI   C6A17732   5.094   7.115   8.209  0.2428 -0.2518 -0.0830
 1129loPI   C1B17733   4.847   7.042   5.993 -0.1561 -0.1012 -0.1089
 1129loPI   C2B17734   4.704   7.144   6.408 -0.0621 -0.2205  0.0010
 1129loPI   C3B17735   4.885   7.333   6.795 -0.0683  0.1270 -0.0053
 1129loPI   C4B17736   4.864   7.599   7.120 -0.0426 -0.3378 -0.1571
 1130loPI    C117737   6.210  13.046   5.433 -0.1643  0.0417 -0.0564
 1130loPI    C217738   6.127  12.849   5.771  0.0239 -0.1860 -0.1394
 1130loPI    C317739   5.863  12.852   5.471 -0.0580 -0.1540 -0.0674
 1130loPI   PO417740   6.428  13.184   5.503  0.2510  0.1918  0.2829
 1130loPI   GL117741   6.301  13.472   5.719 -0.0987 -0.0302 -0.0627
 1130loPI   GL217742   6.047  13.321   5.835 -0.0102  0.1460 -0.1249
 1130loPI   C1A17743   6.342  13.517   6.227  0.0833 -0.1858  0.0560
 1130loPI   C2A17744   6.395  13.598   6.720 -0.0930 -0.2790  0.0635
 1130loPI   C3A17745   6.270  13.723   7.055  0.0019  0.0049  0.1393
 1130loPI   C4A17746   6.147  13.658   7.511 -0.0995  0.1646  0.3296
 1130loPI   C5A17747   6.055  13.548   7.957  0.2248  0.0449 -0.0213
 1130loPI   C6A17748   6.042  13.833   8.350  0.0309 -0.0173  0.0890
 1130loPI   C1B17749   5.957  13.104   6.246  0.3076 -0.0940  0.0811
 1130loPI   C2B17750   5.908  12.974   6.695 -0.2412 -0.0846  0.1738
 1130loPI   C3B17751   5.867  12.748   7.076  0.1071 -0.0032  0.1515
 1130loPI   C4B17752   5.630  12.678   7.442  0.0449  0.0782 -0.0125
 1131loPI    C117753   3.496   9.422   5.035 -0.2113 -0.0807  0.3612
 1131loPI    C217754   3.739   9.342   4.727 -0.2732  0.0775  0.2700
 1131loPI    C317755   3.345   9.283   4.692 -0.3079  0.3190  0.2362
 1131loPI   PO417756   3.517   9.312   5.321  0.0703 -0.0186 -0.1363
 1131loPI   GL117757   3.378   9.102   5.672  0.1751  0.0244 -0.0997
 1131loPI   GL217758   3.216   9.399   5.681 -0.0992 -0.0010 -0.3412
 1131loPI   C1A17759   3.460   8.997   6.097 -0.3680  0.3878 -0.1573
 1131loPI   C2A17760   3.531   8.863   6.444 -0.0655 -0.2756  0.1686
 1131loPI   C3A17761   3.397   9.051   6.807 -0.0357 -0.2535 -0.1701
 1131loPI   C4A17762   3.280   9.143   7.221 -0.1122  0.0464  0.2477
 1131loPI   C5A17763   3.194   8.907   7.556  0.4746  0.1643 -0.0030
 1131loPI   C6A17764   2.845   8.797   7.858  0.1029  0.1241  0.1667
 1131loPI   C1B17765   3.001   9.236   6.013  0.0784 -0.1819 -0.0326
 1131loPI   C2B17766   3.065   8.981   6.391 -0.1098  0.1950 -0.4214
 1131loPI   C3B17767   2.891   9.063   6.811 -0.1759 -0.1601 -0.0290
 1131loPI   C4B17768   2.783   8.982   7.289 -0.3974  0.0886 -0.0001
 1132loPI    C117769  15.442   6.079   4.958 -0.0146  0.2951 -0.0555
 1132loPI    C217770  15.598   5.943   4.616  0.0207 -0.0189  0.0823
 1132loPI    C317771  15.201   5.952   4.666  0.0220 -0.2739  0.1505
 1132loPI   PO417772  15.571   5.914   5.180 -0.1895 -0.0597  0.0934
 1132loPI   GL117773  15.487   6.058   5.556 -0.2195 -0.0057 -0.3066
 1132loPI   GL217774  15.552   5.814   5.662 -0.2418  0.0787 -0.5136
 1132loPI   C1A17775  15.191   6.144   6.012  0.0427 -0.1355  0.0248
 1132loPI   C2A17776  15.151   6.142   6.414 -0.1493 -0.0435  0.1142
 1132loPI   C3A17777  15.307   6.188   6.821 -0.0032  0.5523  0.3307
 1132loPI   C4A17778  15.462   6.124   7.197  0.0672 -0.3541  0.0881
 1132loPI   C5A17779  15.407   6.273   7.567 -0.0483 -0.0150  0.5180
 1132loPI   C6A17780  15.529   6.424   7.888  0.1042  0.0497 -0.0276
 1132loPI   C1B17781  15.559   5.767   6.114  0.1968  0.0971  0.0512
 1132loPI   C2B17782  15.572   5.837   6.516 -0.2941  0.1113 -0.0275
 1132loPI   C3B17783  15.769   5.822   6.946 -0.1384  0.4731  0.1877
 1132loPI   C4B17784  15.873   5.915   7.355  0.3809 -0.0269  0.1114
 1133loPI    C117785   4.284  14.744   5.016 -0.1070  0.0848 -0.0950
 1133loPI    C217786   4.585  14.672   4.763  0.1302 -0.0509  0.2190
 1133loPI    C317787   4.546  15.034   4.929 -0.1001  0.0765 -0.1018
 1133loPI   PO417788   4.242  14.538   5.138 -0.1030  0.0469 -0.0328
 1133loPI   GL117789   4.198  14.443   5.565  0.0351  0.1216  0.0164
 1133loPI   GL217790   4.456  14.540   5.751 -0.2709 -0.1380 -0.0445
 1133loPI   C1A17791   4.000  14.240   5.849 -0.0618  0.1996  0.0284
 1133loPI   C2A17792   4.085  13.981   6.137  0.1530 -0.0028 -0.0269
 1133loPI   C3A17793   4.096  13.991   6.564 -0.0571  0.0985 -0.2936
 1133loPI   C4A17794   4.059  13.931   7.045 -0.1275 -0.0187  0.0925
 1133loPI   C5A17795   3.833  14.059   7.444 -0.0581  0.0424  0.1331
 1133loPI   C6A17796   3.820  14.018   7.901  0.1838 -0.0151 -0.0451
 1133loPI   C1B17797   4.230  14.566   6.172  0.0141 -0.1049 -0.1845
 1133loPI   C2B17798   3.895  14.513   6.488 -0.1115  0.0314 -0.1628
 1133loPI   C3B17799   3.702  14.326   6.824 -0.1337  0.1754  0.1513
 1133loPI   C4B17800   3.635  14.442   7.220 -0.1104  0.0233 -0.0258
 1134loPI    C117801  15.214   1.951   4.893  0.0081 -0.0251  0.0201
 1134loPI    C217802  14.951   2.079   4.620 -0.0268 -0.1996 -0.0291
 1134loPI    C317803  15.019   1.687   4.664 -0.1114 -0.1811  0.2964
 1134loPI   PO417804  15.227   2.088   5.092  0.0309  0.0696 -0.2707
 1134loPI   GL117805  15.241   1.808   5.378  0.0560  0.2479 -0.0978
 1134loPI   GL217806  14.963   1.584   5.370  0.3241  0.0900 -0.2102
 1134loPI   C1A17807  15.232   1.954   5.713 -0.0671  0.0148 -0.1012
 1134loPI   C2A17808  15.223   1.883   6.184 -0.0352 -0.1052 -0.0420
 1134loPI   C3A17809  15.246   1.822   6.661 -0.0047 -0.1216 -0.1147
 1134loPI   C4A17810  15.293   1.977   7.078 -0.4152 -0.1413 -0.0641
 1134loPI   C5A17811  15.371   2.060   7.481  0.3433 -0.0368  0.1439
 1134loPI   C6A17812  15.392   2.223   7.838  0.2786 -0.1222  0.4159
 1134loPI   C1B17813  14.810   1.628   5.846 -0.1949 -0.0607 -0.0609
 1134loPI   C2B17814  14.749   1.646   6.290  0.2788  0.0175  0.2441
 1134loPI   C3B17815  14.691   1.675   6.722 -0.1158  0.2064  0.1260
 1134loPI   C4B17816  14.777   1.764   7.176  0.0998 -0.1990  0.1448
 1135loPI    C117817   3.477  18.345   5.218 -0.1280  0.0304  0.0192
 1135loPI    C217818   3.115  18.177   5.188 -0.1264  0.0160  0.0786
 1135loPI    C317819   3.432  17.954   5.286 -0.0873  0.0133 -0.0521
 1135loPI   PO417820   3.437  18.612   5.359  0.1199 -0.1792  0.0877
 1135loPI   GL117821   3.645  18.706   5.750  0.2691  0.0014  0.0811
 1135loPI   GL217822   3.909  18.817   5.804 -0.3850 -0.1610 -0.1772
 1135loPI   C1A17823   3.542  18.473   6.116 -0.1184  0.0128 -0.2441
 1135loPI   C2A17824   3.385  18.355   6.499 -0.0990  0.0962 -0.2400
 1135loPI   C3A17825   3.425  18.468   6.987 -0.3781 -0.0132  0.0266
 1135loPI   C4A17826   3.611  18.424   7.282 -0.1398 -0.0606 -0.0817
 1135loPI   C5A17827   3.708  18.475   7.681  0.0321 -0.0070 -0.2541
 1135loPI   C6A17828   4.102  18.494   7.937 -0.3082 -0.0758 -0.0029
 1135loPI   C1B17829   3.971  18.590   6.284  0.1153 -0.1536  0.2460
 1135loPI   C2B17830   4.081  18.703   6.700  0.3338 -0.3737 -0.2378
 1135loPI   C3B17831   4.057  18.631   7.152  0.2689 -0.0427  0.0998
 1135loPI   C4B17832   4.150  18.601   7.496  0.0651  0.0366  0.2195
 1136loPI    C117833   7.310   2.043   5.225  0.1775  0.2297 -0.0180
 1136loPI    C217834   7.018   2.313   5.190 -0.0384 -0.0280 -0.2561
 1136loPI    C317835   7.370   2.375   5.010  0.0147  0.2247 -0.0719
 1136loPI   PO417836   7.396   2.049   5.547  0.5646  0.0328 -0.2093
 1136loPI   GL117837   7.114   2.098   5.808  0.0593  0.1756 -0.2522
 1136loPI   GL217838   7.365   1.904   6.038 -0.1848  0.0853 -0.0374
 1136loPI   C1A17839   7.203   2.411   6.206 -0.0438 -0.4729 -0.2751
 1136loPI   C2A17840   7.298   2.489   6.578  0.1398 -0.3303 -0.0966
 1136loPI   C3A17841   7.490   2.506   6.922  0.0290  0.1641 -0.2137
 1136loPI   C4A17842   7.492   2.665   7.246  0.0376  0.1433  0.1304
 1136loPI   C5A17843   7.582   2.578   7.676 -0.0488 -0.0316 -0.4459
 1136loPI   C6A17844   7.570   2.923   8.035  0.0175 -0.0557  0.3016
 1136loPI   C1B17845   7.493   1.867   6.359  0.1459  0.0107  0.1980
 1136loPI   C2B17846   7.520   1.962   6.765 -0.0406 -0.2843  0.2903
 1136loPI   C3B17847   7.539   1.711   7.068  0.0402 -0.0081  0.2295
 1136loPI   C4B17848   7.655   1.676   7.454  0.0164 -0.0501 -0.2122
 1137loPI    C117849   1.733   2.951   5.147 -0.0164 -0.0505 -0.1396
 1137loPI    C217850   1.506   3.051   4.833  0.0309  0.1995 -0.0965
 1137loPI    C317851   1.661   2.683   4.859 -0.3590  0.0275 -0.1313
 1137loPI   PO417852   1.595   3.009   5.345  0.2033 -0.1891 -0.0597
 1137loPI   GL117853   1.642   3.011   5.727  0.2565 -0.3439  0.0169
 1137loPI   GL217854   1.529   2.832   6.004 -0.1227  0.1087 -0.2874
 1137loPI   C1A17855   1.714   3.273   5.983  0.2161 -0.0576  0.0793
 1137loPI   C2A17856   1.725   3.335   6.368  0.1076  0.5566 -0.1499
 1137loPI   C3A17857   1.786   3.374   6.769 -0.3610 -0.2732  0.1799
 1137loPI   C4A17858   1.614   3.077   7.189 -0.1787 -0.0083 -0.0612
 1137loPI   C5A17859   1.461   3.000   7.596  0.3088  0.1207 -0.0140
 1137loPI   C6A17860   0.982   2.932   7.777 -0.1164 -0.0618 -0.0134
 1137loPI   C1B17861   1.953   2.789   6.163  0.0800  0.0070 -0.1747
 1137loPI   C2B17862   2.131   2.961   6.617  0.0240 -0.1522  0.1452
 1137loPI   C3B17863   2.054   2.833   7.011 -0.0770  0.0231 -0.0169
 1137loPI   C4B17864   2.022   2.857   7.483 -0.1421  0.0747 -0.1151
 1138loPI    C117865   2.604   0.608   5.196 -0.4167 -0.0137 -0.2299
 1138loPI    C217866   2.413   0.953   5.128 -0.0024  0.2456 -0.1124
 1138loPI    C317867   2.662   0.804   4.852  0.0607  0.2044 -0.0335
 1138loPI   PO417868   2.686   0.689   5.491  0.0824 -0.1295 -0.1014
 1138loPI   GL117869   2.770   1.008   5.757  0.0390  0.0984 -0.0377
 1138loPI   GL217870   2.855   1.229   5.929 -0.1123 -0.0111 -0.0804
 1138loPI   C1A17871   2.723   0.786   6.184  0.2708  0.1648 -0.1045
 1138loPI   C2A17872   2.758   0.602   6.636  0.0540  0.4691 -0.0161
 1138loPI   C3A17873   2.851   0.521   7.130 -0.2690  0.3120  0.2028
 1138loPI   C4A17874   3.224   0.370   7.311  0.0558 -0.0975 -0.2179
 1138loPI   C5A17875   3.233   0.333   7.784  0.3962 -0.2800 -0.2367
 1138loPI   C6A17876   3.492   0.174   8.134 -0.0476  0.1709 -0.3657
 1138loPI   C1B17877   2.964   1.176   6.414  0.0124 -0.1073 -0.2753
 1138loPI   C2B17878   2.887   1.055   6.815  0.0539 -0.1883  0.0202
 1138loPI   C3B17879   2.757   1.218   7.213 -0.0127 -0.1564 -0.1462
 1138loPI   C4B17880   2.423   1.422   7.384 -0.5331  0.1176  0.1921
 1139loPI    C117881  18.069   8.147   4.469  0.1107  0.0058 -0.0449
 1139loPI    C217882  17.965   8.527   4.401  0.1771  0.0465  0.0778
 1139loPI    C317883  18.192   8.331   4.137  0.0661  0.0623 -0.0304
 1139loPI   PO417884  17.999   8.119   4.768  0.0437 -0.3326  0.0769
 1139loPI   GL117885  17.958   8.024   5.230  0.3173 -0.1265 -0.0047
 1139loPI   GL217886  18.164   7.725   5.314  0.0953 -0.4671 -0.1757
 1139loPI   C1A17887  17.735   8.235   5.598  0.1389 -0.1098 -0.2733
 1139loPI   C2A17888  17.584   8.216   6.015  0.3837  0.1041  0.2036
 1139loPI   C3A17889  17.607   8.295   6.485 -0.0059  0.1328 -0.0253
 1139loPI   C4A17890  17.556   8.393   6.912  0.0606  0.1511  0.0995
 1139loPI   C5A17891  17.544   8.314   7.299 -0.1042  0.1201 -0.2488
 1139loPI   C6A17892  17.334   8.494   7.684 -0.1205  0.2298  0.1353
 1139loPI   C1B17893  18.044   7.914   5.710  0.0991 -0.0229  0.3271
 1139loPI   C2B17894  17.960   7.878   6.092  0.2923 -0.0256  0.2144
 1139loPI   C3B17895  17.999   7.940   6.564 -0.3394  0.2209  0.0724
 1139loPI   C4B17896  18.042   8.110   6.939  0.0130 -0.0249 -0.0883
 1140loPI    C117897   4.099  11.057   5.048  0.1597 -0.0364 -0.1463
 1140loPI    C217898   4.005  11.441   4.987  0.0403 -0.0495 -0.0472
 1140loPI    C317899   4.388  11.327   4.984  0.0934  0.1146  0.1697
 1140loPI   PO417900   4.003  10.946   5.464 -0.0803  0.3237  0.1478
 1140loPI   GL117901   4.206  11.031   5.814 -0.2103  0.2091  0.0047
 1140loPI   GL217902   4.104  11.320   5.914 -0.0989  0.0378 -0.2014
 1140loPI   C1A17903   3.914  10.923   6.120 -0.1235 -0.3969 -0.0642
 1140loPI   C2A17904   3.681  10.837   6.546  0.1771  0.1318 -0.0785
 1140loPI   C3A17905   3.515  11.041   6.801 -0.1903  0.3078 -0.4455
 1140loPI   C4A17906   3.406  11.051   7.245 -0.1606 -0.2511 -0.0362
 1140loPI   C5A17907   3.470  11.294   7.532 -0.0042 -0.0420 -0.2400
 1140loPI   C6A17908   3.281  11.640   7.663 -0.0275 -0.2620  0.2951
 1140loPI   C1B17909   3.815  11.755   5.949  0.1219  0.0273  0.1049
 1140loPI   C2B17910   3.402  11.803   6.153  0.2213 -0.3736  0.0317
 1140loPI   C3B17911   3.326  11.878   6.515 -0.1555  0.0984 -0.1141
 1140loPI   C4B17912   3.156  11.902   6.864  0.2273  0.0263 -0.2055
 1141loPI    C117913   6.110  11.224   5.376  0.0744 -0.1583  0.0125
 1141loPI    C217914   6.399  11.364   5.614  0.0069 -0.0649  0.0399
 1141loPI    C317915   6.479  11.277   5.232  0.0744 -0.0517  0.0508
 1141loPI   PO417916   6.027  10.981   5.584 -0.0635 -0.2848  0.1867
 1141loPI   GL117917   5.870  10.933   5.910  0.0196 -0.0229 -0.1794
 1141loPI   GL217918   6.073  10.742   6.131  0.0121 -0.0575  0.4350
 1141loPI   C1A17919   5.878  11.143   6.262 -0.0741 -0.3254  0.0005
 1141loPI   C2A17920   5.894  11.418   6.654 -0.2083  0.4518 -0.2305
 1141loPI   C3A17921   5.757  11.684   6.903  0.2184  0.0605  0.1116
 1141loPI   C4A17922   5.415  11.838   6.993  0.1842 -0.1088  0.0204
 1141loPI   C5A17923   5.436  12.310   7.026  0.2180 -0.3373  0.1408
 1141loPI   C6A17924   5.122  12.612   7.149  0.0153  0.2276 -0.0583
 1141loPI   C1B17925   6.077  10.798   6.561 -0.3278 -0.1150  0.0378
 1141loPI   C2B17926   6.069  10.702   7.001 -0.0132  0.5329  0.1155
 1141loPI   C3B17927   5.789  10.683   7.406 -0.1274 -0.0500 -0.1122
 1141loPI   C4B17928   5.690  11.036   7.696  0.3509 -0.0243  0.0695
 1142loPI    C117929   1.046  15.767   5.363  0.0206 -0.0682  0.0231
 1142loPI    C217930   1.083  16.028   5.063  0.1048 -0.0030  0.0896
 1142loPI    C317931   0.974  16.155   5.426 -0.3083 -0.1249  0.0144
 1142loPI   PO417932   1.228  15.555   5.332 -0.0029  0.1379  0.0792
 1142loPI   GL117933   1.203  15.180   5.563  0.2993  0.0449 -0.0289
 1142loPI   GL217934   1.527  15.162   5.558  0.2194  0.0962 -0.2264
 1142loPI   C1A17935   1.296  15.116   6.034  0.0057  0.0425 -0.0139
 1142loPI   C2A17936   1.471  14.956   6.260  0.0664 -0.1119 -0.0621
 1142loPI   C3A17937   1.410  14.765   6.611 -0.0448  0.1011  0.2465
 1142loPI   C4A17938   1.292  14.684   6.975  0.1729  0.0302  0.3224
 1142loPI   C5A17939   1.394  14.542   7.315 -0.1750 -0.1772  0.0269
 1142loPI   C6A17940   1.398  14.436   7.766 -0.0458  0.1260 -0.0898
 1142loPI   C1B17941   1.759  15.284   5.921 -0.0215 -0.5347  0.0508
 1142loPI   C2B17942   1.741  15.357   6.398  0.1039 -0.2151  0.0313
 1142loPI   C3B17943   1.882  15.493   6.806  0.0432  0.0390  0.0423
 1142loPI   C4B17944   1.956  15.213   7.109  0.0733  0.3220 -0.1984
 1143loPI    C117945   8.954  13.199   5.247  0.2751 -0.0228 -0.1788
 1143loPI    C217946   8.694  13.224   4.945  0.1561  0.1604 -0.0636
 1143loPI    C317947   8.881  12.878   5.020 -0.0005  0.0463 -0.1913
 1143loPI   PO417948   8.809  13.285   5.451  0.3413  0.2096 -0.0862
 1143loPI   GL117949   9.012  13.297   5.883  0.3159  0.1521 -0.0583
 1143loPI   GL217950   8.764  13.277   6.161  0.0881 -0.0945 -0.0091
 1143loPI   C1A17951   9.288  13.489   6.046  0.2131 -0.2057  0.0729
 1143loPI   C2A17952   9.215  13.564   6.463  0.1981 -0.2401 -0.1424
 1143loPI   C3A17953   9.461  13.542   6.755  0.1094 -0.0678  0.1600
 1143loPI   C4A17954   9.684  13.773   7.141 -0.0783  0.2018 -0.1115
 1143loPI   C5A17955   9.687  13.712   7.570  0.1415  0.2338  0.3872
 1143loPI   C6A17956   9.446  13.539   7.901 -0.0332  0.2023 -0.0608
 1143loPI   C1B17957   8.817  13.302   6.606  0.2379  0.0002  0.0286
 1143loPI   C2B17958   8.629  13.143   7.005 -0.0877 -0.2940 -0.0019
 1143loPI   C3B17959   8.688  13.145   7.388 -0.2740 -0.1916 -0.1051
 1143loPI   C4B17960   8.311  13.113   7.654 -0.2131 -0.0160  0.1639
 1144loPI    C117961  13.700  17.042   5.543 -0.0186  0.0489  0.0376
 1144loPI    C217962  13.676  16.699   5.338 -0.1261  0.1614 -0.1408
 1144loPI    C317963  13.913  16.994   5.208  0.1175  0.0841  0.1184
 1144loPI   PO417964  13.761  16.973   5.763 -0.1119 -0.1551  0.0345
 1144loPI   GL117965  13.752  16.819   6.102  0.0424 -0.2250  0.2441
 1144loPI   GL217966  14.018  16.670   6.085  0.1217 -0.1595 -0.1103
 1144loPI   C1A17967  13.780  16.895   6.556  0.2429  0.2637  0.2352
 1144loPI   C2A17968  13.902  16.735   6.899  0.2302 -0.0135  0.1109
 1144loPI   C3A17969  13.882  16.587   7.310 -0.1599 -0.0164 -0.0284
 1144loPI   C4A17970  14.090  16.592   7.726 -0.1510 -0.0472  0.1821
 1144loPI   C5A17971  14.482  16.393   7.890  0.0993 -0.2610  0.0885
 1144loPI   C6A17972  14.532  16.355   8.329 -0.3187  0.1899  0.2817
 1144loPI   C1B17973  14.124  16.505   6.455  0.1429  0.0244  0.0832
 1144loPI   C2B17974  14.314  16.372   6.908 -0.1271 -0.1532  0.2047
 1144loPI   C3B17975  14.291  16.267   7.389 -0.1173  0.0763 -0.1733
 1144loPI   C4B17976  14.365  15.928   7.758 -0.1900 -0.0189  0.0384
 1145loPI    C117977   8.732   7.692   5.513  0.1282  0.1543 -0.0662
 1145loPI    C217978   8.445   7.968   5.469 -0.0407  0.0149  0.1441
 1145loPI    C317979   8.353   7.579   5.450  0.1727 -0.0296 -0.0079
 1145loPI   PO417980   8.933   7.764   5.402 -0.0035  0.2950 -0.0657
 1145loPI   GL117981   9.167   8.159   5.519 -0.0675  0.0948  0.0271
 1145loPI   GL217982   8.843   8.220   5.588  0.1594  0.0883  0.0432
 1145loPI   C1A17983   9.220   8.206   5.992 -0.1476 -0.2498 -0.0045
 1145loPI   C2A17984   9.331   8.387   6.439 -0.1914  0.0292 -0.0424
 1145loPI   C3A17985   9.447   8.517   6.792 -0.0953  0.1442  0.1736
 1145loPI   C4A17986   9.391   8.497   7.190 -0.0130  0.5050 -0.1192
 1145loPI   C5A17987   9.477   8.582   7.626 -0.1351 -0.2532  0.0851
 1145loPI   C6A17988   9.546   8.793   8.088  0.1752 -0.2890 -0.1285
 1145loPI   C1B17989   8.692   8.132   5.976  0.1810  0.4047  0.1384
 1145loPI   C2B17990   8.736   8.236   6.371 -0.2816 -0.1479 -0.1305
 1145loPI   C3B17991   8.980   8.332   6.813 -0.2738 -0.3067  0.1800
 1145loPI   C4B17992   8.993   8.766   6.978  0.1190 -0.0287 -0.3509
 1146loPI    C117993   3.306   2.919   5.184 -0.0510 -0.0197  0.1516
 1146loPI    C217994   3.565   2.618   5.138  0.0737  0.1059  0.0191
 1146loPI    C317995   3.330   2.728   4.834  0.0880  0.1968  0.0406
 1146loPI   PO417996   3.148   2.830   5.479  0.2621 -0.1348  0.1825
 1146loPI   GL117997   2.945   2.823   5.849  0.1071  0.4569  0.0971
 1146loPI   GL217998   2.886   3.007   6.037  0.0145  0.3215 -0.3021
 1146loPI   C1A17999   2.874   2.473   6.114 -0.0230 -0.1791  0.2873
 1146loPI   C2A18000   2.967   2.533   6.529 -0.3346  0.1084 -0.0396
 1146loPI   C3A18001   3.009   2.740   6.973 -0.0569  0.1041 -0.2638
 1146loPI   C4A18002   3.030   2.826   7.368  0.0167 -0.1638 -0.0969
 1146loPI   C5A18003   3.096   3.123   7.588 -0.1405 -0.0485  0.1926
 1146loPI   C6A18004   2.878   3.461   7.827 -0.0001  0.0196  0.2065
 1146loPI   C1B18005   3.137   3.030   6.425  0.1623  0.2919 -0.0447
 1146loPI   C2B18006   3.107   3.196   6.818 -0.4175  0.0008  0.0535
 1146loPI   C3B18007   3.097   3.370   7.111 -0.0350 -0.1431 -0.4092
 1146loPI   C4B18008   3.083   3.622   7.394 -0.1235  0.0369 -0.1074
 1147loPI    C118009   6.711   7.370   5.184  0.0218  0.0359 -0.2456
 1147loPI    C218010   6.835   6.996   5.115 -0.0326 -0.0400  0.0510
 1147loPI    C318011   6.691   7.218   4.815  0.1065 -0.2156 -0.1491
 1147loPI   PO418012   6.625   7.333   5.455  0.1361  0.0573  0.0033
 1147loPI   GL118013   6.541   7.442   5.856 -0.2791  0.3193  0.1569
 1147loPI   GL218014   6.822   7.451   5.919 -0.0955 -0.6854 -0.1741
 1147loPI   C1A18015   6.411   7.403   6.315 -0.1398 -0.1623 -0.5235
 1147loPI   C2A18016   6.249   7.449   6.676  0.1085 -0.0585  0.1259
 1147loPI   C3A18017   6.339   7.562   7.096 -0.5692 -0.0976  0.1648
 1147loPI   C4A18018   6.454   7.595   7.454 -0.1977 -0.1620 -0.2180
 1147loPI   C5A18019   6.281   7.741   7.799 -0.2330 -0.2578  0.2921
 1147loPI   C6A18020   6.008   7.618   8.182 -0.0698  0.1981 -0.3778
 1147loPI   C1B18021   6.939   7.365   6.334  0.0710  0.1324  0.4355
 1147loPI   C2B18022   7.162   7.466   6.648 -0.0458 -0.1183  0.1914
 1147loPI   C3B18023   7.385   7.605   6.911  0.1871  0.0101  0.0006
 1147loPI   C4B18024   7.228   7.566   7.390  0.0389 -0.0829 -0.2311
 1148loPI    C118025  13.819   7.016   5.139  0.0349  0.0881 -0.1302
 1148loPI    C218026  13.847   6.804   4.800  0.1036  0.1300 -0.1509
 1148loPI    C318027  14.029   7.159   4.830  0.2943  0.0209  0.0119
 1148loPI   PO418028  13.915   6.894   5.272 -0.3371  0.0258 -0.1990
 1148loPI   GL118029  14.076   6.670   5.600  0.1825 -0.3503  0.0663
 1148loPI   GL218030  14.331   6.390   5.701  0.2007 -0.0500 -0.2015
 1148loPI   C1A18031  13.987   6.790   5.977  0.0626  0.0219 -0.2341
 1148loPI   C2A18032  13.986   6.686   6.409 -0.1106 -0.1471 -0.2539
 1148loPI   C3A18033  14.041   6.709   6.853 -0.2439 -0.1027 -0.3755
 1148loPI   C4A18034  14.108   6.663   7.268 -0.1683 -0.2998  0.5369
 1148loPI   C5A18035  14.083   6.858   7.650 -0.1434  0.0983 -0.0541
 1148loPI   C6A18036  14.284   6.862   8.089  0.1497 -0.0273 -0.1074
 1148loPI   C1B18037  14.315   6.426   6.163  0.0235  0.0722  0.2770
 1148loPI   C2B18038  14.303   6.333   6.517  0.0523  0.1883 -0.3506
 1148loPI   C3B18039  14.398   6.328   7.000  0.0469 -0.0696  0.0603
 1148loPI   C4B18040  14.585   6.263   7.415  0.2162 -0.2596  0.3084
 1149loPI    C118041   9.655   9.684   5.036  0.0415 -0.2194  0.1733
 1149loPI    C218042   9.944   9.746   4.766  0.0793 -0.0410  0.2533
 1149loPI    C318043   9.576   9.645   4.646  0.0816  0.0938  0.1314
 1149loPI   PO418044   9.861   9.596   5.252  0.1114  0.0787  0.1210
 1149loPI   GL118045   9.980   9.506   5.681 -0.1928  0.1440 -0.0201
 1149loPI   GL218046   9.907   9.831   5.670  0.0742  0.0212  0.4380
 1149loPI   C1A18047   9.962   9.281   6.140  0.1085  0.0790  0.0815
 1149loPI   C2A18048   9.935   9.176   6.567 -0.3140 -0.2702 -0.0973
 1149loPI   C3A18049   9.988   9.172   7.010  0.0730  0.0148 -0.0589
 1149loPI   C4A18050  10.008   9.113   7.402  0.1123 -0.1161 -0.0726
 1149loPI   C5A18051   9.897   9.077   7.883 -0.4364 -0.0795 -0.2978
 1149loPI   C6A18052  10.019   9.045   8.368 -0.1311  0.1128  0.0551
 1149loPI   C1B18053  10.017   9.765   6.068  0.2716  0.2733  0.1720
 1149loPI   C2B18054  10.025   9.697   6.541 -0.4522 -0.1991 -0.1052
 1149loPI   C3B18055  10.108   9.598   6.849  0.1674 -0.0161  0.1123
 1149loPI   C4B18056  10.153   9.581   7.295  0.0337  0.1487 -0.1962
 1150loPI    C118057  11.140   4.796   5.632 -0.1235  0.0520 -0.1719
 1150loPI    C218058  11.342   4.505   5.445 -0.0641  0.2105 -0.3582
 1150loPI    C318059  11.539   4.813   5.606 -0.1066  0.0290  0.0547
 1150loPI   PO418060  10.954   4.662   5.748 -0.2809 -0.1871  0.2324
 1150loPI   GL118061  10.688   4.889   5.986  0.1355  0.0323  0.0642
 1150loPI   GL218062  10.443   4.767   5.935 -0.0507  0.2597 -0.1563
 1150loPI   C1A18063  10.450   5.179   6.313  0.0221 -0.0210  0.3267
 1150loPI   C2A18064  10.519   5.373   6.588 -0.0256 -0.3087  0.0771
 1150loPI   C3A18065  10.572   5.359   6.924 -0.2023 -0.0457  0.0678
 1150loPI   C4A18066  10.590   5.565   7.315  0.2136  0.1495  0.0032
 1150loPI   C5A18067  10.574   5.620   7.704 -0.0965 -0.0892  0.3958
 1150loPI   C6A18068  10.819   5.494   8.124  0.0753  0.2775 -0.0008
 1150loPI   C1B18069  10.535   4.616   6.369  0.1053  0.1119 -0.0997
 1150loPI   C2B18070  10.563   4.545   6.749  0.2026 -0.0996  0.1654
 1150loPI   C3B18071  10.373   4.450   7.149  0.1495 -0.3747  0.2381
 1150loPI   C4B18072  10.184   4.153   7.426 -0.1628  0.0018 -0.0867
 1151loPI    C118073  14.023  11.470   5.107 -0.0532  0.1634 -0.2077
 1151loPI    C218074  13.714  11.699   5.219 -0.0414  0.1507 -0.1487
 1151loPI    C318075  13.918  11.786   4.885 -0.0309  0.2319 -0.1213
 1151loPI   PO418076  14.179  11.527   5.339 -0.0135 -0.0979 -0.1458
 1151loPI   GL118077  13.984  11.814   5.680 -0.3027 -0.2580 -0.0371
 1151loPI   GL218078  14.266  11.965   5.818 -0.3791 -0.0279  0.2262
 1151loPI   C1A18079  13.838  11.720   6.090 -0.1586  0.4100 -0.1736
 1151loPI   C2A18080  13.626  11.616   6.420  0.0485 -0.0082 -0.3227
 1151loPI   C3A18081  13.545  11.371   6.762  0.0201 -0.0110  0.0998
 1151loPI   C4A18082  13.525  11.181   7.115  0.1071 -0.1786  0.0232
 1151loPI   C5A18083  13.515  11.150   7.496  0.3048  0.0911 -0.0631
 1151loPI   C6A18084  13.580  11.187   7.928 -0.3720 -0.0411  0.0916
 1151loPI   C1B18085  14.279  11.885   6.279  0.1609  0.1273  0.0948
 1151loPI   C2B18086  14.263  11.912   6.672 -0.3563 -0.0113 -0.2024
 1151loPI   C3B18087  14.181  11.940   7.087 -0.0023 -0.1552  0.0885
 1151loPI   C4B18088  13.919  12.202   7.316 -0.1071  0.3661  0.2863
 1152loPI    C118089  15.954   0.388   4.898 -0.1252 -0.1673 -0.0230
 1152loPI    C218090  15.743   0.700   4.763  0.1198  0.0837  0.1613
 1152loPI    C318091  16.135   0.676   4.688  0.1110 -0.1594  0.1862
 1152loPI   PO418092  15.710   0.192   5.108  0.0496 -0.1961  0.0921
 1152loPI   GL118093  15.686   0.038   5.558  0.1026  0.0231 -0.1320
 1152loPI   GL218094  15.515   0.365   5.590  0.3164  0.0691 -0.0553
 1152loPI   C1A18095  15.797   0.000   5.943  0.2711 -0.4442  0.1411
 1152loPI   C2A18096  15.825   0.112   6.381 -0.1692  0.1132  0.0641
 1152loPI   C3A18097  15.930   0.051   6.719 -0.0514 -0.0700 -0.0003
 1152loPI   C4A18098  15.878   0.228   7.065 -0.0741  0.1105  0.2266
 1152loPI   C5A18099  15.905   0.327   7.506  0.0578  0.2359 -0.0716
 1152loPI   C6A18100  16.210   0.573   7.652  0.1677  0.1470  0.3659
 1152loPI   C1B18101  15.392   0.512   6.106  0.1201  0.1086 -0.1310
 1152loPI   C2B18102  15.437   0.495   6.517 -0.2725 -0.4798 -0.0726
 1152loPI   C3B18103  15.551   0.512   6.886  0.2966  0.1139  0.0873
 1152loPI   C4B18104  15.480   0.580   7.265  0.0777  0.1464  0.1672
 1153loPI    C118105   5.372   0.858   5.070 -0.0364 -0.1837  0.0121
 1153loPI    C218106   5.342   0.636   4.739  0.1765  0.0920 -0.1972
 1153loPI    C318107   5.696   0.790   4.845  0.1101  0.0070  0.1613
 1153loPI   PO418108   5.157   0.727   5.267  0.2578 -0.2531  0.1429
 1153loPI   GL118109   4.930   0.634   5.651 -0.1183  0.1271 -0.2589
 1153loPI   GL218110   5.081   0.319   5.554  0.1040 -0.2855  0.0213
 1153loPI   C1A18111   4.933   0.644   6.185 -0.2783  0.1280  0.0122
 1153loPI   C2A18112   4.971   0.655   6.639  0.0851 -0.2393 -0.3207
 1153loPI   C3A18113   4.944   0.724   7.042  0.1424 -0.2645 -0.0796
 1153loPI   C4A18114   5.029   0.639   7.516  0.0446  0.1046 -0.2024
 1153loPI   C5A18115   5.048   0.536   7.928  0.1693 -0.1812  0.1892
 1153loPI   C6A18116   5.236   0.365   8.254  0.0253  0.0102  0.2506
 1153loPI   C1B18117   5.307   0.403   5.954 -0.0438  0.0511  0.0847
 1153loPI   C2B18118   5.399   0.464   6.368  0.1405 -0.0174  0.1220
 1153loPI   C3B18119   5.453   0.496   6.762  0.0780  0.3334 -0.0621
 1153loPI   C4B18120   5.510   0.361   7.175  0.1727  0.0884  0.1449
 1154loPI    C118121  15.217  18.216   4.839 -0.1470 -0.1464 -0.2335
 1154loPI    C218122  15.549  18.331   4.647 -0.0411 -0.1419 -0.0501
 1154loPI    C318123  15.494  17.945   4.738 -0.0334 -0.1274  0.0178
 1154loPI   PO418124  15.248  18.402   5.063 -0.1593 -0.0769  0.0856
 1154loPI   GL118125  15.140  18.415   5.439  0.0552 -0.1071  0.3821
 1154loPI   GL218126  14.926  18.667   5.481  0.0383  0.0715  0.1835
 1154loPI   C1A18127  15.303  18.456   5.856 -0.0307  0.0155  0.0268
 1154loPI   C2A18128  15.380  18.381   6.221  0.0120 -0.0011 -0.1252
 1154loPI   C3A18129  15.369  18.414   6.703  0.1073  0.0717 -0.0968
 1154loPI   C4A18130  15.411  18.459   7.079 -0.0207 -0.0262  0.2336
 1154loPI   C5A18131  15.462  18.543   7.564  0.1287 -0.0909  0.2043
 1154loPI   C6A18132  15.251  18.751   7.783  0.1997  0.1513 -0.1212
 1154loPI   C1B18133  14.895  18.712   5.927  0.2720  0.0669 -0.0181
 1154loPI   C2B18134  14.881  18.793   6.393 -0.2506 -0.2676  0.1618
 1154loPI   C3B18135  15.028  18.783   6.793  0.0913  0.1051 -0.2115
 1154loPI   C4B18136  15.002  18.847   7.301  0.2537 -0.1597  0.1289
 1155loPI    C118137   1.084   3.622   4.957  0.1865 -0.0523  0.0141
 1155loPI    C218138   1.309   3.403   5.206  0.1967 -0.0708 -0.0114
 1155loPI    C318139   1.015   3.230   4.997  0.0253 -0.0088  0.1749
 1155loPI   PO418140   0.992   3.856   5.129  0.0011  0.0698 -0.1171
 1155loPI   GL118141   0.908   4.040   5.601 -0.3520  0.0891  0.3638
 1155loPI   GL218142   1.128   3.840   5.635  0.2902  0.0260 -0.0658
 1155loPI   C1A18143   1.109   4.098   6.087 -0.0153  0.1906 -0.1786
 1155loPI   C2A18144   1.041   4.163   6.507  0.2237  0.2900  0.0800
 1155loPI   C3A18145   1.103   4.120   6.899  0.0068  0.1830  0.1923
 1155loPI   C4A18146   1.124   3.869   7.249 -0.1055  0.0759  0.0524
 1155loPI   C5A18147   1.014   3.993   7.608 -0.0683  0.2043  0.1443
 1155loPI   C6A18148   0.856   4.041   8.038 -0.2381 -0.0722 -0.0999
 1155loPI   C1B18149   0.932   3.575   5.938  0.0191 -0.1480 -0.0225
 1155loPI   C2B18150   0.844   3.638   6.335 -0.2849 -0.0439 -0.2804
 1155loPI   C3B18151   1.009   3.558   6.747 -0.1683  0.0052  0.1622
 1155loPI   C4B18152   1.105   3.399   7.175  0.1967  0.1748 -0.1446
 1156loPI    C118153  16.942   6.671   4.485 -0.0334  0.0920 -0.0756
 1156loPI    C218154  17.238   6.420   4.385  0.0052  0.1558 -0.1220
 1156loPI    C318155  17.283   6.814   4.333  0.1190  0.2142  0.3650
 1156loPI   PO418156  16.829   6.604   4.738  0.2120  0.1636 -0.0043
 1156loPI   GL118157  16.843   6.705   5.199 -0.1923 -0.2887  0.2404
 1156loPI   GL218158  16.656   6.888   5.319  0.0138 -0.0024  0.0815
 1156loPI   C1A18159  17.088   6.693   5.554 -0.0381  0.0101 -0.1989
 1156loPI   C2A18160  17.309   6.800   5.960 -0.0806 -0.0548  0.0019
 1156loPI   C3A18161  17.271   6.789   6.383 -0.2725 -0.4583 -0.0994
 1156loPI   C4A18162  17.413   6.773   6.789 -0.0616 -0.1508  0.0022
 1156loPI   C5A18163  17.540   6.780   7.226  0.2927 -0.0574 -0.0167
 1156loPI   C6A18164  17.404   6.583   7.634 -0.1207 -0.4125 -0.1879
 1156loPI   C1B18165  16.443   6.887   5.680 -0.1354 -0.2019 -0.2394
 1156loPI   C2B18166  16.382   6.902   6.125 -0.3508 -0.2918  0.1930
 1156loPI   C3B18167  16.335   6.964   6.607 -0.3433  0.0844 -0.2396
 1156loPI   C4B18168  16.515   7.015   7.084  0.1136 -0.0498 -0.1316
 1157loPI    C118169   8.317   2.265   5.353  0.2097  0.0405  0.0216
 1157loPI    C218170   8.477   2.025   5.076  0.3778  0.1550  0.0179
 1157loPI    C318171   8.615   2.398   5.122  0.1399  0.2417  0.0448
 1157loPI   PO418172   8.304   2.139   5.656 -0.1452  0.1797  0.0117
 1157loPI   GL118173   8.664   2.136   5.982  0.2851  0.0988  0.3757
 1157loPI   GL218174   8.944   2.309   6.009 -0.0647  0.3778  0.2317
 1157loPI   C1A18175   8.597   1.965   6.349  0.2054 -0.0361  0.1675
 1157loPI   C2A18176   8.391   2.132   6.763 -0.1269 -0.0396  0.0662
 1157loPI   C3A18177   8.420   2.217   7.214 -0.1121  0.0794  0.0362
 1157loPI   C4A18178   8.546   2.204   7.576 -0.0007  0.0200 -0.0409
 1157loPI   C5A18179   8.871   2.288   7.869 -0.0077  0.2908 -0.1181
 1157loPI   C6A18180   8.775   2.540   8.215 -0.1877  0.0574 -0.1301
 1157loPI   C1B18181   8.734   2.435   6.435 -0.1097 -0.2074  0.3860
 1157loPI   C2B18182   8.708   2.584   6.905  0.1460 -0.1748  0.0397
 1157loPI   C3B18183   8.833   2.526   7.348  0.0701  0.2613 -0.1719
 1157loPI   C4B18184   8.924   2.767   7.729 -0.1037  0.0389  0.1795
 1158loPI    C118185  17.905   2.133   4.838  0.0759  0.2521 -0.0581
 1158loPI    C218186  17.789   2.177   4.457  0.0105  0.0596 -0.0618
 1158loPI    C318187  18.056   1.895   4.554 -0.0228  0.0642  0.0448
 1158loPI   PO418188  17.750   2.344   4.937  0.3345  0.1909  0.3856
 1158loPI   GL118189  17.713   2.433   5.432 -0.1390  0.0137  0.1927
 1158loPI   GL218190  17.873   2.158   5.450 -0.1812  0.1745  0.0179
 1158loPI   C1A18191  17.696   2.638   5.894 -0.1429 -0.0947  0.1232
 1158loPI   C2A18192  17.792   2.701   6.346  0.4270  0.1192 -0.0043
 1158loPI   C3A18193  17.771   2.665   6.769 -0.1029 -0.0597 -0.1689
 1158loPI   C4A18194  17.776   2.680   7.179 -0.0024  0.1050 -0.1271
 1158loPI   C5A18195  17.934   2.661   7.549  0.0003 -0.0135  0.0945
 1158loPI   C6A18196  17.853   2.980   7.766  0.1176  0.2162  0.1040
 1158loPI   C1B18197  17.670   2.083   5.848  0.0909 -0.3607  0.1817
 1158loPI   C2B18198  17.637   2.240   6.270 -0.0222  0.0068 -0.2118
 1158loPI   C3B18199  17.675   2.186   6.670 -0.0827 -0.0940 -0.0853
 1158loPI   C4B18200  17.702   2.202   7.063  0.0465 -0.1350 -0.0075
 1159loPI    C118201   1.831   8.749   4.981  0.1007 -0.1313 -0.0230
 1159loPI    C218202   1.750   8.414   4.778  0.0880 -0.1244 -0.0295
 1159loPI    C318203   2.113   8.582   4.752  0.1035 -0.1539 -0.0031
 1159loPI   PO418204   1.758   8.670   5.321 -0.0320  0.3935 -0.0861
 1159loPI   GL118205   2.074   8.480   5.566  0.1212  0.0522  0.1004
 1159loPI   GL218206   1.897   8.238   5.699  0.1174  0.0513  0.0658
 1159loPI   C1A18207   2.049   8.809   5.985 -0.1959  0.3791  0.1390
 1159loPI   C2A18208   2.039   8.929   6.378 -0.0410  0.1872  0.0862
 1159loPI   C3A18209   1.987   9.211   6.700 -0.0819  0.2152  0.0459
 1159loPI   C4A18210   2.034   9.339   7.144 -0.1368  0.3606 -0.2579
 1159loPI   C5A18211   2.203   9.156   7.450 -0.3653  0.0583  0.0372
 1159loPI   C6A18212   2.625   9.223   7.732  0.1199  0.3476 -0.1560
 1159loPI   C1B18213   1.691   8.408   6.045 -0.0380 -0.0861  0.0644
 1159loPI   C2B18214   1.707   8.420   6.494  0.0834  0.4265  0.4472
 1159loPI   C3B18215   1.634   8.566   6.833  0.1497  0.0264  0.1162
 1159loPI   C4B18216   1.576   8.591   7.243 -0.0608 -0.1037  0.1163
 1160loPI    C118217  10.882  18.344   5.710  0.3950  0.1165  0.2282
 1160loPI    C218218  11.112  18.170   5.433 -0.0187 -0.0570 -0.0153
 1160loPI    C318219  10.888  17.945   5.676 -0.2181  0.1182 -0.0336
 1160loPI   PO418220  11.079  18.476   5.934  0.1968 -0.1138  0.0265
 1160loPI   GL118221  10.963  18.570   6.423 -0.1750 -0.3513  0.1121
 1160loPI   GL218222  10.689  18.492   6.526 -0.0934  0.0482  0.1512
 1160loPI   C1A18223  11.186  18.343   6.731 -0.0232 -0.0137 -0.1269
 1160loPI   C2A18224  11.520  18.230   6.947  0.1036 -0.2356  0.3186
 1160loPI   C3A18225  11.648  18.080   7.285 -0.1240  0.2441  0.3185
 1160loPI   C4A18226  11.536  17.969   7.581  0.0910  0.2454  0.2243
 1160loPI   C5A18227  11.352  17.804   7.924 -0.1237 -0.0181 -0.0758
 1160loPI   C6A18228  11.308  17.838   8.300 -0.2456  0.1687 -0.2499
 1160loPI   C1B18229  10.778  18.607   6.919 -0.2993  0.0241 -0.2503
 1160loPI   C2B18230  10.989  18.665   7.309  0.2342  0.3443  0.0484
 1160loPI   C3B18231  10.846  18.849   7.757  0.1561  0.0362  0.1742
 1160loPI   C4B18232  10.795  19.097   8.059 -0.1927  0.0399  0.1407
 1161loPI    C118233   0.323   8.353   4.239 -0.0094 -0.0385  0.2550
 1161loPI    C218234   0.354   8.684   4.462 -0.0632  0.1091  0.0457
 1161loPI    C318235   0.630   8.603   4.184 -0.1461  0.0724 -0.0266
 1161loPI   PO418236   0.283   8.122   4.495 -0.0038 -0.1113  0.0326
 1161loPI   GL118237   0.042   8.016   4.955  0.1829 -0.2022  0.1897
 1161loPI   GL218238  -0.079   8.365   5.139  0.0679  0.1357  0.3161
 1161loPI   C1A18239   0.152   8.070   5.402 -0.2303 -0.1605  0.2627
 1161loPI   C2A18240   0.105   8.097   5.844  0.0464  0.0221 -0.0926
 1161loPI   C3A18241   0.039   8.055   6.331  0.0666  0.1377 -0.0374
 1161loPI   C4A18242   0.149   8.216   6.759  0.0727 -0.2156  0.1513
 1161loPI   C5A18243   0.126   8.287   7.146 -0.0245 -0.1296  0.0044
 1161loPI   C6A18244   0.247   8.178   7.541  0.1952 -0.0981  0.1536
 1161loPI   C1B18245  -0.169   8.380   5.599  0.0684 -0.1178  0.3091
 1161loPI   C2B18246  -0.312   8.346   5.968  0.0314  0.1169  0.2885
 1161loPI   C3B18247  -0.349   8.363   6.390 -0.1870  0.1678 -0.0102
 1161loPI   C4B18248  -0.326   8.543   6.746 -0.1968  0.0549 -0.0903
 1162loPI    C118249  13.635   4.486   5.052  0.0073 -0.1291  0.0916
 1162loPI    C218250  13.903   4.312   4.811 -0.1114  0.0642 -0.1841
 1162loPI    C318251  14.001   4.643   5.012 -0.0384 -0.0516 -0.0270
 1162loPI   PO418252  13.504   4.356   5.238  0.3528  0.3286  0.0841
 1162loPI   GL118253  13.427   4.340   5.629 -0.0760 -0.1301 -0.1351
 1162loPI   GL218254  13.194   4.192   5.574  0.1073  0.0090 -0.2146
 1162loPI   C1A18255  13.402   4.519   6.122 -0.1223 -0.2932  0.0219
 1162loPI   C2A18256  13.504   4.756   6.528 -0.1553 -0.1074 -0.0788
 1162loPI   C3A18257  13.302   4.844   6.911 -0.1057  0.2257 -0.2179
 1162loPI   C4A18258  13.034   4.772   7.250 -0.2821  0.0357  0.0204
 1162loPI   C5A18259  12.958   4.720   7.628  0.2422 -0.3461  0.2551
 1162loPI   C6A18260  12.597   4.561   7.790 -0.2820 -0.2451  0.3342
 1162loPI   C1B18261  13.016   4.106   6.021 -0.1971 -0.1289  0.0912
 1162loPI   C2B18262  12.987   3.874   6.418  0.2293  0.0014 -0.2320
 1162loPI   C3B18263  12.762   3.836   6.836  0.3164 -0.1146  0.0896
 1162loPI   C4B18264  12.892   3.707   7.155  0.0022  0.1090 -0.2548
 1163loPI    C118265  17.695  11.527   5.120 -0.1741 -0.1470  0.0198
 1163loPI    C218266  17.383  11.735   4.981 -0.0678 -0.0068 -0.0110
 1163loPI    C318267  17.672  11.618   4.731  0.0323  0.0867  0.0600
 1163loPI   PO418268  17.771  11.551   5.330  0.1673 -0.2563  0.1700
 1163loPI   GL118269  17.839  11.652   5.746 -0.2411 -0.0649  0.0937
 1163loPI   GL218270  17.557  11.858   5.794 -0.1015 -0.2530 -0.3089
 1163loPI   C1A18271  17.901  11.731   6.130  0.0726  0.0453 -0.2573
 1163loPI   C2A18272  17.766  11.670   6.599 -0.1387 -0.0466 -0.1368
 1163loPI   C3A18273  17.741  11.651   6.980 -0.0506  0.0365 -0.1387
 1163loPI   C4A18274  17.801  11.564   7.524 -0.0738  0.0019  0.2054
 1163loPI   C5A18275  17.903  11.519   7.933 -0.4295  0.0067  0.1042
 1163loPI   C6A18276  18.219  11.583   8.183 -0.0989 -0.0068 -0.0666
 1163loPI   C1B18277  17.464  11.987   6.232 -0.2399  0.2816  0.1078
 1163loPI   C2B18278  17.392  11.996   6.686  0.0845 -0.2045  0.1225
 1163loPI   C3B18279  17.383  11.937   7.149 -0.0235 -0.0151 -0.1502
 1163loPI   C4B18280  17.418  11.954   7.582  0.0920 -0.0620  0.5408
 1164loPI    C118281   3.064   8.825   4.961 -0.0761  0.1019 -0.2590
 1164loPI    C218282   2.857   8.582   5.202  0.0127  0.0729 -0.2117
 1164loPI    C318283   3.083   8.429   4.909  0.0257  0.1010 -0.2164
 1164loPI   PO418284   3.125   8.988   5.156  0.1178  0.1056 -0.1021
 1164loPI   GL118285   2.875   8.979   5.594  0.1773 -0.1505  0.0768
 1164loPI   GL218286   2.585   8.764   5.591  0.0276  0.2509 -0.0830
 1164loPI   C1A18287   3.200   8.649   5.836 -0.3972 -0.3340 -0.1368
 1164loPI   C2A18288   3.283   8.542   6.158 -0.2137 -0.1892  0.0672
 1164loPI   C3A18289   3.223   8.548   6.630  0.0498  0.3406  0.1800
 1164loPI   C4A18290   3.086   8.621   7.024 -0.0104  0.0324 -0.2528
 1164loPI   C5A18291   3.162   8.435   7.432  0.3592 -0.3945 -0.2115
 1164loPI   C6A18292   3.421   8.514   7.815  0.1192  0.1278 -0.0287
 1164loPI   C1B18293   2.697   8.782   6.056  0.0120 -0.0397 -0.1938
 1164loPI   C2B18294   2.612   8.846   6.463 -0.0110  0.1884  0.1506
 1164loPI   C3B18295   2.410   8.931   6.884 -0.0178 -0.2843  0.0723
 1164loPI   C4B18296   2.038   8.811   7.074 -0.0781 -0.2052 -0.3564
 1165loPI    C118297   6.839  16.657   5.306  0.0532 -0.1305  0.0337
 1165loPI    C218298   7.128  16.661   5.030  0.0308  0.2315  0.0098
 1165loPI    C318299   6.749  16.590   4.922  0.0688  0.0366  0.0001
 1165loPI   PO418300   6.952  16.925   5.531 -0.0572  0.4673 -0.1101
 1165loPI   GL118301   7.065  16.832   5.889 -0.0471 -0.2803 -0.2614
 1165loPI   GL218302   7.276  16.591   5.955  0.3087  0.2034  0.0234
 1165loPI   C1A18303   6.966  17.033   6.253 -0.0447 -0.0723  0.3435
 1165loPI   C2A18304   6.626  17.240   6.486 -0.1036  0.0836  0.2725
 1165loPI   C3A18305   6.632  17.226   6.964 -0.1870  0.2747 -0.0115
 1165loPI   C4A18306   6.651  17.358   7.415 -0.3134 -0.2181  0.2508
 1165loPI   C5A18307   6.728  17.569   7.935  0.0275 -0.1841  0.0006
 1165loPI   C6A18308   6.805  17.372   8.276 -0.0651 -0.2054  0.0522
 1165loPI   C1B18309   7.312  16.684   6.324  0.0463  0.1923  0.0214
 1165loPI   C2B18310   7.498  16.760   6.719 -0.3050 -0.3613 -0.1519
 1165loPI   C3B18311   7.745  16.555   7.012  0.3785  0.1167  0.1567
 1165loPI   C4B18312   7.804  16.752   7.399  0.0462  0.1698 -0.2475
 1166loPI    C118313   6.942   3.044   5.439 -0.3216 -0.1227 -0.0951
 1166loPI    C218314   7.124   2.784   5.196  0.0876 -0.0371  0.1101
 1166loPI    C318315   7.133   3.175   5.113  0.1699 -0.0141  0.2256
 1166loPI   PO418316   7.027   2.996   5.690  0.0341 -0.1867  0.0623
 1166loPI   GL118317   6.947   2.850   6.090  0.1116  0.0169  0.0524
 1166loPI   GL218318   6.768   3.140   6.256  0.1119 -0.1580  0.0398
 1166loPI   C1A18319   6.798   2.488   6.443  0.3984 -0.1515 -0.1443
 1166loPI   C2A18320   6.629   2.251   6.763  0.1354  0.1345  0.1508
 1166loPI   C3A18321   6.211   2.063   6.917  0.1668  0.1501  0.0349
 1166loPI   C4A18322   5.790   1.926   6.939 -0.3001 -0.0898 -0.0736
 1166loPI   C5A18323   5.430   2.111   7.064 -0.0103 -0.0783 -0.2046
 1166loPI   C6A18324   5.045   2.374   7.101 -0.1700 -0.0458  0.0508
 1166loPI   C1B18325   6.883   3.038   6.699 -0.2772  0.0150  0.2703
 1166loPI   C2B18326   6.921   2.556   6.980 -0.4694 -0.1439  0.0010
 1166loPI   C3B18327   7.023   2.446   7.354  0.0650 -0.3206 -0.0846
 1166loPI   C4B18328   7.032   2.382   7.749  0.0476  0.2134 -0.1867
 1167loPI    C118329  14.015   3.386   5.044  0.0944  0.0160 -0.1408
 1167loPI    C218330  14.020   3.227   4.677 -0.0262  0.0883 -0.1741
 1167loPI    C318331  14.311   3.138   4.936  0.0692  0.0509 -0.2928
 1167loPI   PO418332  13.821   3.327   5.168  0.1353  0.0492 -0.2840
 1167loPI   GL118333  13.873   3.215   5.623  0.1696  0.1486 -0.1995
 1167loPI   GL218334  14.156   3.256   5.539 -0.1802  0.1609  0.1223
 1167loPI   C1A18335  13.750   3.239   6.026  0.1764 -0.0384 -0.0464
 1167loPI   C2A18336  13.781   3.259   6.506  0.1632  0.1024  0.1916
 1167loPI   C3A18337  13.784   3.257   6.885 -0.0385 -0.0867  0.0964
 1167loPI   C4A18338  13.697   3.487   7.159 -0.0808 -0.1903  0.1117
 1167loPI   C5A18339  13.352   3.733   7.444  0.2480  0.2878  0.1562
 1167loPI   C6A18340  12.924   3.831   7.650 -0.0939 -0.0950  0.0791
 1167loPI   C1B18341  14.267   3.361   5.913  0.0012  0.1749  0.0130
 1167loPI   C2B18342  14.260   3.458   6.386  0.3884  0.2438  0.1229
 1167loPI   C3B18343  14.262   3.490   6.788 -0.0251 -0.0449  0.0023
 1167loPI   C4B18344  14.241   3.434   7.250  0.0155 -0.1008 -0.0071
 1168loPI    C118345   6.964  13.743   5.364  0.0458  0.1470 -0.1026
 1168loPI    C218346   6.588  13.853   5.443  0.0212 -0.1396  0.2005
 1168loPI    C318347   6.660  13.507   5.256  0.1375 -0.1192  0.2070
 1168loPI   PO418348   7.066  13.764   5.542  0.1240  0.0743  0.1972
 1168loPI   GL118349   6.761  13.708   5.954 -0.1636  0.4509 -0.1577
 1168loPI   GL218350   7.071  13.756   6.071 -0.0331  0.0069  0.0747
 1168loPI   C1A18351   6.802  13.473   6.312 -0.0211 -0.2042 -0.0805
 1168loPI   C2A18352   6.992  13.486   6.759  0.1001  0.2851 -0.0467
 1168loPI   C3A18353   6.909  13.428   7.191  0.0073  0.0399 -0.0278
 1168loPI   C4A18354   6.605  13.340   7.395 -0.1219 -0.1622 -0.0387
 1168loPI   C5A18355   6.358  13.204   7.745  0.1833 -0.3090 -0.0176
 1168loPI   C6A18356   6.082  13.060   8.089  0.2221  0.0790  0.0734
 1168loPI   C1B18357   6.879  13.955   6.422 -0.0262 -0.0205  0.2087
 1168loPI   C2B18358   6.829  13.955   6.830  0.3043  0.0580  0.1787
 1168loPI   C3B18359   6.695  13.874   7.173  0.0383 -0.0784 -0.0653
 1168loPI   C4B18360   6.749  13.930   7.536  0.1726  0.1452 -0.0759
 1169loPI    C118361  10.440   2.324   5.484 -0.0047 -0.0886  0.1243
 1169loPI    C218362  10.803   2.193   5.381  0.0739  0.1639  0.0748
 1169loPI    C318363  10.648   2.515   5.201 -0.1955  0.0287  0.0614
 1169loPI   PO418364  10.388   2.128   5.716  0.0317  0.2728  0.0560
 1169loPI   GL118365  10.437   2.172   6.133 -0.4631 -0.1410  0.0305
 1169loPI   GL218366  10.357   1.807   6.154  0.5276  0.1252 -0.1753
 1169loPI   C1A18367  10.664   2.551   6.505  0.2336  0.0704 -0.1066
 1169loPI   C2A18368  10.687   2.790   6.863 -0.2506 -0.0445 -0.0411
 1169loPI   C3A18369  10.516   2.820   7.312 -0.2145  0.1403 -0.0248
 1169loPI   C4A18370  10.681   2.606   7.654 -0.2500  0.1757 -0.2215
 1169loPI   C5A18371  10.585   2.484   8.063  0.1395 -0.1952 -0.3356
 1169loPI   C6A18372  10.453   2.124   8.211 -0.2120 -0.1485 -0.0419
 1169loPI   C1B18373  10.539   1.955   6.574 -0.0573  0.1758 -0.0527
 1169loPI   C2B18374  10.588   1.889   7.016  0.1008  0.0378 -0.2316
 1169loPI   C3B18375  10.696   1.906   7.475 -0.1319 -0.1022  0.0085
 1169loPI   C4B18376  10.767   2.039   7.850 -0.0940  0.0821  0.0476
 1170loPI    C118377   8.099   5.631   5.189  0.0554  0.1352 -0.0600
 1170loPI    C218378   7.958   5.926   4.958 -0.0084  0.1046 -0.0602
 1170loPI    C318379   8.119   5.600   4.791 -0.0680  0.0759 -0.0620
 1170loPI   PO418380   8.219   5.694   5.464  0.0005 -0.2047 -0.1002
 1170loPI   GL118381   8.455   5.882   5.806 -0.0877 -0.0908 -0.0119
 1170loPI   GL218382   8.274   6.128   5.897 -0.1688  0.1113  0.1653
 1170loPI   C1A18383   8.620   5.792   6.168 -0.0262 -0.0503  0.1203
 1170loPI   C2A18384   8.750   5.911   6.564 -0.1537 -0.0723 -0.1672
 1170loPI   C3A18385   8.671   5.872   7.027 -0.3045  0.1050  0.2734
 1170loPI   C4A18386   8.444   6.246   7.214 -0.3598  0.0215  0.1011
 1170loPI   C5A18387   8.140   6.374   7.605 -0.1093  0.2557 -0.4009
 1170loPI   C6A18388   8.113   6.292   8.008 -0.0683 -0.1100  0.2082
 1170loPI   C1B18389   8.114   6.348   6.240  0.1023 -0.1611  0.0762
 1170loPI   C2B18390   8.167   6.428   6.682  0.2506  0.0234 -0.0935
 1170loPI   C3B18391   8.051   6.488   7.080  0.0808  0.0832  0.3611
 1170loPI   C4B18392   7.841   6.829   7.364 -0.1929 -0.3830  0.1632
 1171loPI    C118393  10.402  12.190   5.016  0.0205  0.0995  0.1736
 1171loPI    C218394  10.574  11.911   4.786  0.1646  0.0590  0.3289
 1171loPI    C318395  10.189  12.004   4.733  0.2125  0.0960  0.0289
 1171loPI   PO418396  10.581  12.166   5.254  0.0200 -0.2228  0.0651
 1171loPI   GL118397  10.445  11.944   5.560 -0.3196 -0.0318  0.1480
 1171loPI   GL218398  10.240  12.175   5.610  0.0542  0.0727  0.1187
 1171loPI   C1A18399  10.859  11.847   5.858 -0.2868  0.1159 -0.0404
 1171loPI   C2A18400  10.917  11.730   6.225 -0.2077 -0.0926  0.1975
 1171loPI   C3A18401  10.828  11.418   6.533 -0.1071 -0.1474 -0.1516
 1171loPI   C4A18402  10.947  11.203   6.961 -0.0805 -0.2489  0.0516
 1171loPI   C5A18403  10.976  11.130   7.406  0.2202 -0.2234  0.0138
 1171loPI   C6A18404  10.684  11.231   7.805  0.1640 -0.0417 -0.2097
 1171loPI   C1B18405  10.374  12.136   6.008  0.3609  0.1089 -0.2542
 1171loPI   C2B18406  10.600  12.139   6.342 -0.2726  0.2671  0.1451
 1171loPI   C3B18407  10.834  11.912   6.647 -0.2084 -0.1856 -0.0469
 1171loPI   C4B18408  10.920  11.746   7.023 -0.0498  0.1990 -0.0582
 1172loPI    C118409  12.457  15.997   5.660 -0.0628 -0.1258  0.0134
 1172loPI    C218410  12.661  16.308   5.809 -0.1822 -0.0915  0.1077
 1172loPI    C318411  12.714  16.197   5.428 -0.2675  0.1543  0.0223
 1172loPI   PO418412  12.472  15.813   5.838 -0.3522 -0.0717 -0.1120
 1172loPI   GL118413  12.788  15.695   6.137 -0.0647 -0.0743  0.0162
 1172loPI   GL218414  13.060  15.663   6.158 -0.1894 -0.2548 -0.2834
 1172loPI   C1A18415  12.847  15.354   6.514  0.3032 -0.0793 -0.0606
 1172loPI   C2A18416  12.848  15.211   6.874  0.0085  0.0002 -0.3396
 1172loPI   C3A18417  12.893  15.187   7.316 -0.1258 -0.1105  0.1305
 1172loPI   C4A18418  12.960  15.162   7.719 -0.0347  0.1472 -0.2127
 1172loPI   C5A18419  12.849  15.144   8.119  0.1570  0.1190  0.1002
 1172loPI   C6A18420  12.597  15.495   8.339  0.4034  0.1076 -0.2542
 1172loPI   C1B18421  13.325  15.628   6.481  0.2083 -0.2585 -0.1251
 1172loPI   C2B18422  13.560  15.617   6.813 -0.0354 -0.1588  0.1107
 1172loPI   C3B18423  13.697  15.688   7.277 -0.0208  0.1177 -0.0830
 1172loPI   C4B18424  13.955  15.610   7.618  0.2103  0.0867 -0.1064
 1173loPI    C118425  17.483  13.126   5.172  0.0017  0.2139 -0.0542
 1173loPI    C218426  17.656  13.027   4.825  0.0148 -0.0495  0.0259
 1173loPI    C318427  17.303  12.868   4.925 -0.0436  0.1137  0.0825
 1173loPI   PO418428  17.731  13.116   5.324 -0.2528 -0.1308 -0.2034
 1173loPI   GL118429  17.718  13.240   5.715 -0.0931  0.0017 -0.1177
 1173loPI   GL218430  17.957  13.391   5.702  0.2019 -0.1464  0.3932
 1173loPI   C1A18431  17.623  13.074   6.149  0.1344 -0.1459 -0.4434
 1173loPI   C2A18432  17.728  13.151   6.518  0.2655 -0.0540 -0.0631
 1173loPI   C3A18433  17.618  12.962   6.892 -0.1980 -0.2263 -0.1965
 1173loPI   C4A18434  17.498  12.938   7.347  0.1144  0.2284  0.0717
 1173loPI   C5A18435  17.743  12.862   7.758  0.0476  0.0813  0.0559
 1173loPI   C6A18436  17.640  13.019   8.227  0.1283 -0.0087 -0.0906
 1173loPI   C1B18437  18.071  13.457   6.053  0.0486  0.1639  0.1020
 1173loPI   C2B18438  18.148  13.243   6.345  0.0045  0.3730 -0.1435
 1173loPI   C3B18439  18.145  13.263   6.740 -0.1771 -0.2103  0.0766
 1173loPI   C4B18440  18.017  13.193   7.143 -0.1584 -0.1640  0.0890
 1174loPI    C118441  16.110   2.880   4.767  0.0446 -0.0936  0.0131
 1174loPI    C218442  15.729   2.761   4.745 -0.0324  0.1713 -0.1378
 1174loPI    C318443  15.922   2.875   4.414  0.1323  0.1793 -0.0401
 1174loPI   PO418444  16.255   2.743   4.932 -0.0576  0.4421 -0.1664
 1174loPI   GL118445  16.162   2.611   5.380  0.1096 -0.0864 -0.0352
 1174loPI   GL218446  15.932   2.841   5.304 -0.3059 -0.0060 -0.1157
 1174loPI   C1A18447  16.262   2.764   5.834  0.0261  0.0126 -0.0003
 1174loPI   C2A18448  16.307   2.706   6.212  0.1697  0.0716  0.1199
 1174loPI   C3A18449  16.440   2.714   6.617  0.2471 -0.1457 -0.1093
 1174loPI   C4A18450  16.458   2.810   6.938 -0.1667 -0.1608 -0.0181
 1174loPI   C5A18451  16.480   2.778   7.349 -0.1674  0.1348 -0.0046
 1174loPI   C6A18452  16.544   2.598   7.726 -0.1674 -0.0113 -0.2170
 1174loPI   C1B18453  15.786   2.591   5.742  0.2942  0.1933  0.1165
 1174loPI   C2B18454  15.826   2.607   6.161  0.2096 -0.1647 -0.0197
 1174loPI   C3B18455  15.914   2.560   6.553  0.2746  0.0113  0.0481
 1174loPI   C4B18456  15.966   2.612   7.025 -0.0250 -0.2038 -0.0862
 1175loPI    C118457   9.898   2.154   5.280  0.1491 -0.0196  0.0921
 1175loPI    C218458  10.225   1.929   5.230  0.0270 -0.1055 -0.3746
 1175loPI    C318459  10.187   2.273   5.030  0.0291  0.1336  0.0248
 1175loPI   PO418460   9.877   2.221   5.604  0.4957  0.0129 -0.4274
 1175loPI   GL118461   9.923   2.140   6.056 -0.0675 -0.3478  0.2748
 1175loPI   GL218462   9.777   2.350   6.120 -0.1200 -0.0810 -0.0824
 1175loPI   C1A18463  10.023   2.054   6.440  0.0550 -0.0361  0.1793
 1175loPI   C2A18464  10.077   1.985   6.826 -0.2652 -0.3483 -0.1398
 1175loPI   C3A18465   9.937   2.108   7.255 -0.0794 -0.1991 -0.1408
 1175loPI   C4A18466   9.784   2.071   7.686 -0.2072 -0.0733  0.0895
 1175loPI   C5A18467   9.517   1.794   7.898 -0.1391  0.0601  0.1921
 1175loPI   C6A18468   9.183   1.892   8.146 -0.1961  0.1627  0.0333
 1175loPI   C1B18469   9.653   2.386   6.559 -0.3786  0.4613  0.0187
 1175loPI   C2B18470   9.556   2.173   6.818 -0.0067  0.2780 -0.1164
 1175loPI   C3B18471   9.372   1.985   7.212 -0.0959 -0.1794 -0.0895
 1175loPI   C4B18472   9.455   1.663   7.447 -0.1586  0.1648  0.0529
 1176loPI    C118473   5.529  11.761   5.385 -0.1183  0.3110 -0.2825
 1176loPI    C218474   5.346  11.478   5.170  0.0651 -0.2370  0.2508
 1176loPI    C318475   5.727  11.572   5.093 -0.0638  0.0423 -0.0760
 1176loPI   PO418476   5.304  11.887   5.477  0.1630 -0.5073  0.1512
 1176loPI   GL118477   5.092  11.761   5.807  0.0382 -0.0735  0.2924
 1176loPI   GL218478   5.153  11.406   5.674  0.0775  0.1611  0.0659
 1176loPI   C1A18479   5.038  11.948   6.167 -0.1404 -0.1090 -0.0695
 1176loPI   C2A18480   5.075  11.837   6.629  0.4425 -0.3445  0.1102
 1176loPI   C3A18481   4.890  11.776   6.970 -0.1593 -0.2073 -0.0340
 1176loPI   C4A18482   4.812  11.767   7.462  0.0593  0.2117 -0.0960
 1176loPI   C5A18483   4.751  12.162   7.717  0.0099 -0.0334 -0.0395
 1176loPI   C6A18484   4.727  12.465   8.056  0.2815  0.0263 -0.0749
 1176loPI   C1B18485   5.053  11.429   6.132  0.1730  0.1717 -0.1910
 1176loPI   C2B18486   4.888  11.231   6.578  0.4039  0.2100  0.0488
 1176loPI   C3B18487   4.777  11.305   7.029  0.1701  0.0579 -0.2081
 1176loPI   C4B18488   4.622  11.266   7.393  0.0062  0.1865 -0.1799
 1177loPI    C118489  10.188  11.126   4.872  0.1045 -0.0899  0.1572
 1177loPI    C218490   9.893  11.272   4.644  0.0806 -0.1957  0.1198
 1177loPI    C318491  10.219  11.493   4.716  0.0618 -0.1387  0.0320
 1177loPI   PO418492  10.081  11.068   5.069  0.1758  0.3813 -0.2731
 1177loPI   GL118493   9.959  11.036   5.449  0.0550 -0.1690  0.2460
 1177loPI   GL218494   9.832  11.310   5.387  0.0699  0.0313 -0.2369
 1177loPI   C1A18495   9.944  10.798   5.851 -0.3605 -0.0779  0.1951
 1177loPI   C2A18496  10.107  10.713   6.170  0.0298 -0.0131  0.0823
 1177loPI   C3A18497  10.247  10.770   6.570 -0.0575  0.2896 -0.2865
 1177loPI   C4A18498  10.348  10.564   6.931 -0.1641  0.4055 -0.0410
 1177loPI   C5A18499  10.561  10.384   7.259  0.4640  0.0641  0.2409
 1177loPI   C6A18500  10.761  10.150   7.446  0.0477  0.0286  0.1730
 1177loPI   C1B18501   9.793  11.280   5.818  0.0069  0.0976  0.1423
 1177loPI   C2B18502   9.884  11.279   6.211 -0.2741 -0.2663  0.2983
 1177loPI   C3B18503   9.954  11.325   6.618 -0.1219  0.0827  0.0770
 1177loPI   C4B18504  10.069  11.369   7.081 -0.1498 -0.0975 -0.0314
 1178loPI    C118505  16.142   5.943   5.101  0.0210 -0.2634  0.0514
 1178loPI    C218506  15.953   5.666   4.883 -0.0251 -0.0604 -0.1712
 1178loPI    C318507  16.142   5.968   4.702 -0.1282  0.1544  0.0728
 1178loPI   PO418508  16.050   5.902   5.322  0.2183  0.1736 -0.1917
 1178loPI   GL118509  15.997   6.046   5.759  0.1896 -0.0676  0.0279
 1178loPI   GL218510  15.770   6.359   5.842  0.0572 -0.1632 -0.1799
 1178loPI   C1A18511  16.218   5.999   6.107 -0.3199 -0.3153 -0.3324
 1178loPI   C2A18512  16.238   6.025   6.518  0.1880  0.1141 -0.1723
 1178loPI   C3A18513  16.237   6.009   6.930  0.1080  0.1484 -0.0640
 1178loPI   C4A18514  16.350   6.075   7.418  0.0364 -0.0537 -0.0541
 1178loPI   C5A18515  16.359   5.743   7.685  0.0570 -0.0858 -0.0531
 1178loPI   C6A18516  16.425   5.422   7.685 -0.0392  0.0736 -0.1477
 1178loPI   C1B18517  15.658   6.304   6.265  0.1750 -0.2309 -0.1198
 1178loPI   C2B18518  15.827   6.309   6.668 -0.0052  0.1480  0.0372
 1178loPI   C3B18519  15.944   6.433   7.097  0.2335 -0.1375 -0.0475
 1178loPI   C4B18520  15.923   6.372   7.573  0.1362  0.2191 -0.2199
 1179loPI    C118521  17.814  15.255   5.057 -0.0893  0.1580 -0.1791
 1179loPI    C218522  17.570  14.939   5.027  0.0342  0.0017  0.3543
 1179loPI    C318523  17.419  15.310   5.035 -0.1278 -0.0514 -0.0408
 1179loPI   PO418524  17.985  15.120   5.329 -0.2789 -0.0837 -0.2136
 1179loPI   GL118525  18.062  14.872   5.745 -0.0368  0.4311 -0.1059
 1179loPI   GL218526  17.981  15.175   5.800 -0.2979 -0.1768  0.0597
 1179loPI   C1A18527  17.811  14.785   6.075  0.1598 -0.0620 -0.2919
 1179loPI   C2A18528  17.743  14.642   6.468 -0.1440  0.1563 -0.0878
 1179loPI   C3A18529  17.771  14.762   6.927 -0.0226  0.4291 -0.1068
 1179loPI   C4A18530  18.040  14.739   7.333  0.3391 -0.0238 -0.1800
 1179loPI   C5A18531  18.034  14.937   7.778  0.1263  0.1781  0.2337
 1179loPI   C6A18532  17.784  15.110   7.979  0.1488 -0.2589  0.0159
 1179loPI   C1B18533  18.172  15.048   6.294  0.0170 -0.1164  0.1915
 1179loPI   C2B18534  18.289  14.985   6.632  0.2609 -0.1761 -0.4698
 1179loPI   C3B18535  18.398  14.667   6.985 -0.4579 -0.0647 -0.0245
 1179loPI   C4B18536  18.474  14.529   7.495 -0.0816  0.1757  0.2020
 1180loPI    C118537  11.828   8.314   4.899 -0.1573 -0.0445  0.0142
 1180loPI    C218538  11.531   8.570   4.820 -0.2165 -0.1470 -0.0976
 1180loPI    C318539  11.838   8.535   4.566 -0.0208  0.0836  0.1015
 1180loPI   PO418540  12.041   8.375   5.108  0.2695  0.2183 -0.2790
 1180loPI   GL118541  12.067   8.395   5.545 -0.0356  0.1565  0.0826
 1180loPI   GL218542  12.399   8.546   5.541  0.0644 -0.1382  0.2113
 1180loPI   C1A18543  11.986   8.291   5.944  0.3851 -0.1148  0.3535
 1180loPI   C2A18544  11.969   8.331   6.422 -0.0320 -0.1519 -0.1294
 1180loPI   C3A18545  12.092   8.371   6.809  0.1906  0.0973 -0.0385
 1180loPI   C4A18546  12.053   8.329   7.136  0.1461  0.0498  0.2970
 1180loPI   C5A18547  12.225   8.283   7.543  0.1496  0.0086  0.0241
 1180loPI   C6A18548  12.408   8.224   7.913  0.0224  0.4541 -0.4769
 1180loPI   C1B18549  12.481   8.539   5.952  0.2780  0.3795  0.2205
 1180loPI   C2B18550  12.428   8.496   6.348 -0.4650 -0.0255 -0.2200
 1180loPI   C3B18551  12.637   8.481   6.779  0.0732  0.1188 -0.2189
 1180loPI   C4B18552  12.520   8.434   7.158  0.0807 -0.0685 -0.2148
 1181loPI    C118553  18.095   0.111   4.899 -0.1782 -0.0057 -0.0376
 1181loPI    C218554  17.996   0.081   4.513 -0.0884 -0.2564 -0.0426
 1181loPI    C318555  18.348   0.240   4.617 -0.3152  0.2648 -0.0406
 1181loPI   PO418556  18.074  -0.089   5.007 -0.1446  0.3506 -0.0391
 1181loPI   GL118557  18.028  -0.216   5.412 -0.3294 -0.1933 -0.1603
 1181loPI   GL218558  17.838  -0.295   5.495  0.2444  0.1728  0.0681
 1181loPI   C1A18559  18.214  -0.536   5.772  0.2325  0.0991 -0.4707
 1181loPI   C2A18560  18.158  -0.541   6.168  0.0234 -0.1912 -0.2203
 1181loPI   C3A18561  18.168  -0.580   6.496 -0.2895  0.1241  0.2051
 1181loPI   C4A18562  17.963  -0.542   6.918  0.3597  0.0693 -0.1275
 1181loPI   C5A18563  17.902  -0.560   7.373  0.0541  0.3576 -0.2470
 1181loPI   C6A18564  17.830  -0.506   7.770  0.2222 -0.2248  0.0741
 1181loPI   C1B18565  17.961  -0.163   5.902 -0.0524 -0.1258 -0.1930
 1181loPI   C2B18566  17.931  -0.083   6.322  0.0301 -0.2407 -0.2974
 1181loPI   C3B18567  18.100  -0.097   6.729 -0.1731 -0.1055 -0.3787
 1181loPI   C4B18568  18.193  -0.157   7.180 -0.0252  0.0244  0.3614
 1182loPI    C118569  10.235   4.145   5.190  0.1194 -0.0715  0.1274
 1182loPI    C218570  10.606   4.184   5.044  0.0158  0.0647 -0.1053
 1182loPI    C318571  10.303   4.093   4.799 -0.1040 -0.0588  0.0858
 1182loPI   PO418572  10.070   4.347   5.377 -0.0428  0.1290  0.0174
 1182loPI   GL118573  10.129   4.361   5.788  0.1272 -0.0854  0.2548
 1182loPI   GL218574   9.880   4.679   5.833 -0.0857  0.2063  0.1613
 1182loPI   C1A18575  10.096   4.370   6.157 -0.0137  0.1470 -0.1455
 1182loPI   C2A18576  10.112   4.433   6.572 -0.1023  0.1859 -0.1495
 1182loPI   C3A18577   9.935   4.550   6.891 -0.1182  0.0616 -0.2357
 1182loPI   C4A18578  10.075   4.708   7.431 -0.1311  0.1724  0.1793
 1182loPI   C5A18579  10.467   4.557   7.654 -0.1886  0.2593 -0.0949
 1182loPI   C6A18580  10.617   4.523   8.123  0.1940 -0.1618  0.1161
 1182loPI   C1B18581  10.097   4.874   6.254 -0.2119  0.1403 -0.1219
 1182loPI   C2B18582  10.182   4.911   6.666  0.3019  0.1650 -0.1464
 1182loPI   C3B18583  10.441   4.942   7.073 -0.0855  0.2644 -0.0733
 1182loPI   C4B18584  10.784   4.802   7.376  0.1986  0.0097  0.0360
 1183loPI    C118585   7.567   9.576   5.241  0.0595  0.1134  0.0206
 1183loPI    C218586   7.895   9.524   5.019 -0.0063 -0.1523 -0.0182
 1183loPI    C318587   7.573   9.702   4.862  0.0559 -0.0546 -0.0361
 1183loPI   PO418588   7.649   9.631   5.434 -0.1409 -0.2999  0.1938
 1183loPI   GL118589   7.817   9.902   5.720  0.1656 -0.0439  0.2379
 1183loPI   GL218590   7.586   9.908   5.831 -0.0811  0.0008  0.3074
 1183loPI   C1A18591   8.177   9.779   5.899 -0.0159 -0.4384 -0.0373
 1183loPI   C2A18592   8.235   9.748   6.298 -0.1613  0.3042 -0.2960
 1183loPI   C3A18593   8.418   9.838   6.681 -0.0429  0.0249 -0.2177
 1183loPI   C4A18594   8.518   9.692   6.974  0.2243 -0.0216  0.1042
 1183loPI   C5A18595   8.388   9.807   7.317 -0.0520 -0.0355 -0.1528
 1183loPI   C6A18596   8.287   9.810   7.777 -0.1086 -0.2224  0.1795
 1183loPI   C1B18597   7.816  10.025   6.232 -0.1499  0.2404 -0.1400
 1183loPI   C2B18598   7.761   9.850   6.563  0.1020  0.2640  0.1996
 1183loPI   C3B18599   7.916   9.804   6.930 -0.0415  0.2292 -0.0657
 1183loPI   C4B18600   7.895   9.773   7.384 -0.2349  0.0804  0.0772
 1184loPI    C118601  17.726  14.376   5.397  0.1105 -0.2353 -0.0132
 1184loPI    C218602  17.616  14.431   5.017  0.0235  0.0724  0.0536
 1184loPI    C318603  17.528  14.088   5.203  0.0243 -0.0607 -0.1875
 1184loPI   PO418604  17.704  14.641   5.461  0.0977  0.0285  0.1371
 1184loPI   GL118605  17.381  14.577   5.853  0.2629  0.1516  0.2415
 1184loPI   GL218606  17.095  14.444   5.725  0.0818 -0.1588 -0.0837
 1184loPI   C1A18607  17.214  14.640   6.294  0.0502 -0.1067  0.0156
 1184loPI   C2A18608  16.945  14.607   6.627  0.2631 -0.1131 -0.0115
 1184loPI   C3A18609  16.998  14.676   7.069  0.0139 -0.0006  0.1518
 1184loPI   C4A18610  17.142  14.906   7.380  0.0945 -0.0080  0.1429
 1184loPI   C5A18611  17.597  14.987   7.396 -0.0350  0.1037 -0.1127
 1184loPI   C6A18612  17.891  15.374   7.554  0.0997  0.1442 -0.0582
 1184loPI   C1B18613  16.968  14.217   6.057  0.0251  0.0009  0.0906
 1184loPI   C2B18614  16.946  14.145   6.449 -0.4048 -0.1346 -0.0221
 1184loPI   C3B18615  16.898  14.175   6.863 -0.0685  0.1715  0.3860
 1184loPI   C4B18616  16.992  14.241   7.368 -0.2055 -0.2132  0.1639
 1185loPI    C118617   6.955  12.356   5.166  0.0293 -0.1680 -0.1564
 1185loPI    C218618   7.246  12.506   5.396 -0.1422  0.1244 -0.1244
 1185loPI    C318619   7.329  12.383   5.024  0.0716 -0.0433 -0.0239
 1185loPI   PO418620   6.807  12.175   5.438  0.2324  0.1519 -0.1584
 1185loPI   GL118621   6.743  12.047   5.822  0.1698  0.3608 -0.2634
 1185loPI   GL218622   6.408  11.945   5.779 -0.2154 -0.1302  0.0098
 1185loPI   C1A18623   7.009  12.151   6.199  0.2118  0.1324  0.2002
 1185loPI   C2A18624   7.008  12.127   6.757 -0.1534  0.0887 -0.4415
 1185loPI   C3A18625   7.027  12.060   7.046 -0.0798  0.0499 -0.1504
 1185loPI   C4A18626   6.981  11.842   7.517 -0.0729 -0.2560 -0.0400
 1185loPI   C5A18627   6.859  11.962   7.925 -0.1099 -0.0807  0.0338
 1185loPI   C6A18628   6.605  11.932   8.287  0.4265 -0.1993  0.0673
 1185loPI   C1B18629   6.367  12.128   6.193 -0.0477 -0.2557 -0.1651
 1185loPI   C2B18630   6.530  12.161   6.584 -0.0824 -0.1523 -0.2818
 1185loPI   C3B18631   6.531  12.082   7.035  0.2621  0.0042  0.0892
 1185loPI   C4B18632   6.558  12.045   7.460  0.0381  0.2234  0.1512
 1186loPI    C118633  17.715  13.553   4.923  0.2336 -0.2909 -0.1710
 1186loPI    C218634  17.346  13.673   5.023  0.2599 -0.2916 -0.0713
 1186loPI    C318635  17.495  13.764   4.663  0.1707 -0.2730 -0.1038
 1186loPI   PO418636  17.825  13.606   5.232 -0.0040 -0.2064 -0.0645
 1186loPI   GL118637  17.589  13.690   5.494  0.0896 -0.1531 -0.1130
 1186loPI   GL218638  17.861  13.928   5.611 -0.2231  0.1080  0.1024
 1186loPI   C1A18639  17.550  13.633   5.888 -0.1522 -0.2630 -0.2656
 1186loPI   C2A18640  17.678  13.597   6.339  0.2665  0.0180 -0.3683
 1186loPI   C3A18641  17.707  13.495   6.838  0.1588 -0.1530 -0.0252
 1186loPI   C4A18642  17.608  13.513   7.227  0.0781  0.1183 -0.4187
 1186loPI   C5A18643  17.690  13.417   7.716 -0.0736  0.3866  0.0896
 1186loPI   C6A18644  18.011  13.318   8.041  0.1500 -0.1850  0.1590
 1186loPI   C1B18645  17.521  14.109   5.923 -0.0828 -0.0096  0.0114
 1186loPI   C2B18646  17.440  14.230   6.401  0.1427 -0.1340 -0.3387
 1186loPI   C3B18647  17.414  14.358   6.847 -0.2363  0.2370  0.2017
 1186loPI   C4B18648  17.448  14.456   7.340 -0.1135 -0.0003 -0.0377
 1187loPI    C118649  13.059  12.950   4.990 -0.1321  0.0109 -0.0478
 1187loPI    C218650  12.925  13.327   5.004 -0.0867  0.0216  0.1177
 1187loPI    C318651  12.810  13.085   4.707 -0.0395  0.1944 -0.0433
 1187loPI   PO418652  13.139  12.934   5.268 -0.2087  0.0416  0.0657
 1187loPI   GL118653  13.272  12.974   5.656 -0.1205  0.1002  0.1630
 1187loPI   GL218654  13.547  12.793   5.717 -0.1651  0.1840 -0.5139
 1187loPI   C1A18655  13.059  12.904   6.065  0.1790  0.2496 -0.1250
 1187loPI   C2A18656  12.993  12.842   6.502  0.2595  0.1101  0.1618
 1187loPI   C3A18657  13.023  12.821   6.903  0.2076  0.0002 -0.0451
 1187loPI   C4A18658  12.968  12.839   7.334 -0.0428  0.3255  0.2766
 1187loPI   C5A18659  12.753  12.729   7.665  0.0535  0.1652 -0.0094
 1187loPI   C6A18660  12.455  12.577   7.783  0.0602  0.1274 -0.1357
 1187loPI   C1B18661  13.780  12.749   6.082  0.1461 -0.1831 -0.3351
 1187loPI   C2B18662  13.794  12.714   6.584 -0.0497  0.1406 -0.1410
 1187loPI   C3B18663  13.870  12.524   6.889 -0.0919  0.2081  0.0199
 1187loPI   C4B18664  13.934  12.685   7.246 -0.2889 -0.0761 -0.0625
 1188loPI    C118665  10.377  14.499   5.382  0.0314 -0.3041  0.2813
 1188loPI    C218666  10.404  14.149   5.191  0.2016 -0.2432  0.1920
 1188loPI    C318667  10.714  14.402   5.190  0.0007  0.0069  0.0627
 1188loPI   PO418668  10.290  14.449   5.579 -0.4819  0.0411  0.1956
 1188loPI   GL118669  10.535  14.250   5.951 -0.0633  0.0829 -0.1241
 1188loPI   GL218670  10.571  14.032   6.183  0.0100 -0.0021 -0.1967
 1188loPI   C1A18671  10.878  14.417   6.256 -0.2665 -0.1776 -0.0781
 1188loPI   C2A18672  10.979  14.438   6.679 -0.1244  0.2010  0.3354
 1188loPI   C3A18673  11.029  14.607   7.212  0.2324  0.0435 -0.2748
 1188loPI   C4A18674  10.559  14.722   7.401 -0.2634 -0.1753  0.1067
 1188loPI   C5A18675  10.255  14.569   7.695 -0.0418  0.2438  0.0614
 1188loPI   C6A18676  10.273  14.256   7.921  0.0119 -0.1268 -0.1937
 1188loPI   C1B18677  10.530  14.191   6.575 -0.1094  0.0198 -0.1481
 1188loPI   C2B18678  10.582  14.432   6.949 -0.2129 -0.2545  0.0337
 1188loPI   C3B18679  10.679  14.839   6.959  0.0162 -0.1560 -0.2363
 1188loPI   C4B18680  10.708  15.263   7.042 -0.0162  0.0938  0.0624
 1189loPI    C118681   9.529  14.355   4.902 -0.1795  0.0101  0.1524
 1189loPI    C218682   9.143  14.462   4.885 -0.1598  0.0358 -0.1967
 1189loPI    C318683   9.345  14.386   4.548  0.1038 -0.1152 -0.0084
 1189loPI   PO418684   9.546  14.208   5.166  0.2597  0.0117 -0.0973
 1189loPI   GL118685   9.439  14.179   5.582 -0.1365  0.1489  0.0873
 1189loPI   GL218686   9.356  14.135   5.851 -0.1943 -0.2636  0.1060
 1189loPI   C1A18687   9.690  13.796   5.855 -0.2204  0.0432 -0.1815
 1189loPI   C2A18688   9.671  13.681   6.308  0.0389 -0.3681  0.2571
 1189loPI   C3A18689   9.740  13.972   6.684 -0.3359  0.1301  0.0471
 1189loPI   C4A18690  10.105  14.253   6.831  0.3884  0.1713  0.1788
 1189loPI   C5A18691  10.011  14.682   6.777 -0.3415  0.1878  0.0962
 1189loPI   C6A18692   9.990  14.912   6.419 -0.1644  0.1825  0.2180
 1189loPI   C1B18693   9.263  14.075   6.298 -0.0429  0.1605  0.1033
 1189loPI   C2B18694   9.293  13.989   6.823  0.0323  0.0987  0.1694
 1189loPI   C3B18695   9.209  13.945   7.191 -0.2145 -0.1732  0.1665
 1189loPI   C4B18696   9.318  14.008   7.582 -0.1454 -0.1823  0.2329
 1190loPI    C118697   2.196   6.836   5.027  0.0228  0.1728 -0.0389
 1190loPI    C218698   1.928   6.693   4.766  0.0853 -0.1829  0.0858
 1190loPI    C318699   2.314   6.592   4.733  0.1349 -0.0223  0.1644
 1190loPI   PO418700   2.073   6.716   5.261  0.1010  0.1230  0.0195
 1190loPI   GL118701   1.932   6.714   5.685  0.0811  0.0513  0.1235
 1190loPI   GL218702   2.259   6.702   5.737  0.0021  0.1015 -0.0607
 1190loPI   C1A18703   1.988   6.740   6.098  0.1597  0.0813 -0.0826
 1190loPI   C2A18704   2.286   6.836   6.417 -0.0911 -0.1471  0.0255
 1190loPI   C3A18705   2.474   7.062   6.739 -0.1689  0.4333 -0.1129
 1190loPI   C4A18706   2.484   7.228   7.225  0.1172 -0.0206 -0.1503
 1190loPI   C5A18707   2.807   7.228   7.598  0.1311  0.1694  0.1378
 1190loPI   C6A18708   2.889   6.999   7.872  0.3079  0.1800 -0.0235
 1190loPI   C1B18709   2.595   6.885   5.934 -0.0716  0.2130  0.0934
 1190loPI   C2B18710   2.813   6.843   6.406 -0.3859  0.0347  0.2188
 1190loPI   C3B18711   3.041   7.033   6.726  0.2032 -0.1994 -0.0556
 1190loPI   C4B18712   2.965   7.207   7.143 -0.0491  0.3119  0.0190
 1191loPI    C118713  16.237   9.904   5.070 -0.0400  0.0981  0.4167
 1191loPI    C218714  16.299   9.708   5.413 -0.0875 -0.3338  0.1862
 1191loPI    C318715  16.468   9.578   5.075 -0.0865  0.0545  0.0319
 1191loPI   PO418716  15.992  10.017   5.039  0.1186 -0.2736 -0.2531
 1191loPI   GL118717  15.824   9.923   5.416  0.5189 -0.0116 -0.0745
 1191loPI   GL218718  15.835   9.640   5.691  0.0774  0.2450  0.2383
 1191loPI   C1A18719  15.651  10.048   5.863 -0.0822  0.0685 -0.1223
 1191loPI   C2A18720  15.660  10.029   6.269 -0.1436  0.1014  0.0867
 1191loPI   C3A18721  15.693  10.005   6.746 -0.0850 -0.0357 -0.3607
 1191loPI   C4A18722  15.634  10.106   7.230 -0.1641  0.0250  0.0190
 1191loPI   C5A18723  15.646   9.993   7.652 -0.0452 -0.2192 -0.2093
 1191loPI   C6A18724  15.353  10.171   7.932  0.1993  0.2385  0.0745
 1191loPI   C1B18725  16.008   9.656   6.090 -0.0193  0.2879  0.2076
 1191loPI   C2B18726  16.010   9.695   6.456 -0.0861 -0.2439 -0.0949
 1191loPI   C3B18727  15.958   9.612   6.874  0.1808 -0.2833 -0.0465
 1191loPI   C4B18728  15.949   9.748   7.334  0.0455  0.0198 -0.1487
 1192loPI    C118729   5.607  17.979   5.237 -0.3231  0.0554  0.1733
 1192loPI    C218730   5.635  17.648   5.014 -0.0653  0.0558  0.2015
 1192loPI    C318731   5.355  17.922   4.931 -0.1267 -0.0570  0.0300
 1192loPI   PO418732   5.552  17.847   5.529  0.1224  0.0745  0.0475
 1192loPI   GL118733   5.689  17.917   5.885  0.0143  0.2617  0.1307
 1192loPI   GL218734   5.965  17.752   5.988 -0.1937  0.2809  0.0116
 1192loPI   C1A18735   5.726  17.998   6.383  0.1741 -0.2501 -0.1024
 1192loPI   C2A18736   5.754  17.977   6.859  0.0940 -0.0747  0.4106
 1192loPI   C3A18737   5.794  17.991   7.284 -0.0775 -0.0232  0.1190
 1192loPI   C4A18738   5.854  18.058   7.698 -0.0241  0.1302  0.1762
 1192loPI   C5A18739   5.773  17.945   8.099 -0.0310 -0.1006  0.2624
 1192loPI   C6A18740   5.558  17.642   8.269 -0.0980  0.2966  0.1407
 1192loPI   C1B18741   6.132  17.684   6.430 -0.0139 -0.0880 -0.1946
 1192loPI   C2B18742   6.313  17.593   6.810 -0.0388  0.1958 -0.1255
 1192loPI   C3B18743   6.233  17.618   7.168 -0.0325  0.0780 -0.0064
 1192loPI   C4B18744   6.112  17.693   7.532  0.0625  0.2175  0.0092
 1193loPI    C118745  13.890  17.477   5.349  0.1006 -0.0405  0.1135
 1193loPI    C218746  14.254  17.378   5.214 -0.0829 -0.3566 -0.1675
 1193loPI    C318747  14.060  17.691   5.057  0.0567 -0.1994 -0.0306
 1193loPI   PO418748  13.902  17.510   5.669 -0.1762  0.0606  0.0509
 1193loPI   GL118749  14.102  17.272   6.062  0.1510 -0.0738  0.2175
 1193loPI   GL218750  14.204  17.546   6.066  0.0330 -0.1313 -0.2070
 1193loPI   C1A18751  14.165  17.109   6.391 -0.0963 -0.1753  0.2233
 1193loPI   C2A18752  14.355  16.896   6.777 -0.1594  0.0442 -0.2348
 1193loPI   C3A18753  14.443  16.785   7.223 -0.0386 -0.1520 -0.0337
 1193loPI   C4A18754  14.546  16.822   7.685  0.0944  0.2097  0.2626
 1193loPI   C5A18755  14.754  16.818   8.074 -0.2302 -0.0870 -0.0249
 1193loPI   C6A18756  15.213  16.782   8.199  0.0289  0.2692 -0.3426
 1193loPI   C1B18757  14.312  17.577   6.392  0.1195 -0.0862  0.2567
 1193loPI   C2B18758  14.514  17.353   6.668 -0.4634 -0.1535  0.0325
 1193loPI   C3B18759  14.615  17.236   7.142 -0.3381 -0.2768 -0.0757
 1193loPI   C4B18760  14.832  17.292   7.620  0.0796  0.1096  0.1798
 1194loPI    C118761  12.756   1.082   5.398  0.1389  0.2558 -0.0677
 1194loPI    C218762  12.361   1.040   5.440  0.1137  0.3566 -0.2007
 1194loPI    C318763  12.537   0.943   5.094  0.2198  0.2150 -0.1079
 1194loPI   PO418764  12.841   1.199   5.582 -0.0293  0.4023 -0.2049
 1194loPI   GL118765  12.771   1.093   6.002  0.2590 -0.1425  0.1331
 1194loPI   GL218766  12.703   1.346   6.076 -0.0842  0.4065  0.2058
 1194loPI   C1A18767  12.758   0.776   6.331 -0.0962 -0.2531 -0.1905
 1194loPI   C2A18768  12.805   0.621   6.723 -0.0499 -0.0319 -0.0180
 1194loPI   C3A18769  12.813   0.584   7.268 -0.3327  0.0402 -0.1096
 1194loPI   C4A18770  12.636   0.739   7.566 -0.0378 -0.2149  0.0321
 1194loPI   C5A18771  12.487   1.075   7.252 -0.1743 -0.1938 -0.0828
 1194loPI   C6A18772  12.394   1.448   7.007  0.1913  0.0200  0.1516
 1194loPI   C1B18773  12.379   1.491   6.356  0.0525 -0.3237 -0.1801
 1194loPI   C2B18774  12.052   1.590   6.530 -0.2272  0.1209  0.0972
 1194loPI   C3B18775  11.962   1.605   6.979  0.1665  0.2041  0.1081
 1194loPI   C4B18776  11.892   1.471   7.376  0.1618  0.1923 -0.2694
 1195loPI    C118777  13.678  10.951   5.226 -0.1217 -0.0057  0.0349
 1195loPI    C218778  13.925  10.992   4.913  0.1329 -0.2642  0.1974
 1195loPI    C318779  13.595  10.768   4.880 -0.0573  0.0397 -0.0048
 1195loPI   PO418780  13.586  11.138   5.299  0.2607 -0.1041 -0.0434
 1195loPI   GL118781  13.745  11.332   5.578  0.0452 -0.0251 -0.2483
 1195loPI   GL218782  14.017  11.329   5.759  0.0811 -0.0599 -0.0788
 1195loPI   C1A18783  13.548  11.287   5.959  0.1982 -0.0413 -0.0894
 1195loPI   C2A18784  13.565  11.088   6.290 -0.1678  0.1112  0.0853
 1195loPI   C3A18785  13.582  10.884   6.663 -0.0337 -0.1506  0.1661
 1195loPI   C4A18786  13.506  10.699   7.024 -0.4036  0.2240  0.1459
 1195loPI   C5A18787  13.472  10.600   7.488  0.0429 -0.0243  0.0728
 1195loPI   C6A18788  13.394  10.670   7.927  0.0989 -0.0657 -0.0691
 1195loPI   C1B18789  14.043  11.273   6.079 -0.0047 -0.0625 -0.2292
 1195loPI   C2B18790  13.982  11.316   6.464 -0.0508  0.1576  0.2080
 1195loPI   C3B18791  13.998  11.466   6.815 -0.0008  0.4101 -0.0601
 1195loPI   C4B18792  14.065  11.368   7.269  0.2767  0.0069 -0.1883
 1196loPI    C118793   5.953  15.238   5.478  0.0850  0.0213 -0.0707
 1196loPI    C218794   5.688  15.356   5.202 -0.0174  0.1474  0.0793
 1196loPI    C318795   6.071  15.466   5.171  0.0271 -0.0627 -0.1561
 1196loPI   PO418796   5.908  15.314   5.773 -0.4310  0.3102 -0.2560
 1196loPI   GL118797   5.694  15.530   6.060  0.1432 -0.0758 -0.2643
 1196loPI   GL218798   5.473  15.196   6.076  0.0662 -0.1042 -0.1074
 1196loPI   C1A18799   5.835  15.608   6.437  0.1463 -0.1813 -0.1625
 1196loPI   C2A18800   5.941  15.491   6.797  0.0514 -0.0077  0.3866
 1196loPI   C3A18801   5.912  15.498   7.297 -0.1329 -0.3481 -0.0544
 1196loPI   C4A18802   5.731  15.525   7.694  0.1787  0.1421 -0.0401
 1196loPI   C5A18803   5.504  15.385   8.033 -0.0512 -0.0163  0.2107
 1196loPI   C6A18804   5.605  15.241   8.438  0.0165  0.0279  0.0039
 1196loPI   C1B18805   5.409  15.384   6.516 -0.1979 -0.0671  0.0215
 1196loPI   C2B18806   5.455  15.406   6.977  0.0195 -0.1953  0.1421
 1196loPI   C3B18807   5.403  15.129   7.320 -0.1595 -0.2913 -0.0848
 1196loPI   C4B18808   5.457  15.003   7.678 -0.0483  0.2070  0.1931
 1197loPI    C118809   4.253  15.550   5.190  0.1857 -0.0256 -0.2613
 1197loPI    C218810   3.944  15.314   5.095 -0.0108  0.0780  0.1030
 1197loPI    C318811   4.065  15.597   4.840 -0.0189 -0.1624 -0.1717
 1197loPI   PO418812   4.465  15.350   5.316  0.1854 -0.1452 -0.1406
 1197loPI   GL118813   4.485  15.279   5.685 -0.3049  0.1483  0.0383
 1197loPI   GL218814   4.552  15.039   5.830 -0.1408 -0.2339 -0.2943
 1197loPI   C1A18815   4.543  15.495   6.068  0.1502  0.3499  0.0949
 1197loPI   C2A18816   4.476  15.518   6.425  0.2435 -0.2708 -0.0129
 1197loPI   C3A18817   4.470  15.277   6.808 -0.1455 -0.2025 -0.1097
 1197loPI   C4A18818   4.390  15.305   7.227  0.0952  0.0511 -0.1599
 1197loPI   C5A18819   4.596  15.242   7.593  0.1568 -0.1433  0.1016
 1197loPI   C6A18820   4.599  15.540   7.992  0.1293 -0.0958 -0.1531
 1197loPI   C1B18821   4.395  15.035   6.241  0.0095 -0.1624  0.2022
 1197loPI   C2B18822   4.290  14.859   6.619  0.2285  0.1514  0.3747
 1197loPI   C3B18823   4.103  14.976   6.949 -0.2252  0.0959  0.2380
 1197loPI   C4B18824   3.932  15.005   7.351  0.1904  0.1138 -0.3525
 1198loPI    C118825   7.441   8.168   5.132  0.2547  0.2655 -0.0611
 1198loPI    C218826   7.419   8.346   4.775 -0.2335 -0.0324 -0.1903
 1198loPI    C318827   7.137   8.415   5.049 -0.1297 -0.1872 -0.0430
 1198loPI   PO418828   7.724   8.057   5.179  0.0243 -0.0065 -0.0301
 1198loPI   GL118829   7.957   7.839   5.531  0.0763 -0.3549  0.3645
 1198loPI   GL218830   7.758   7.805   5.751 -0.1532  0.0196  0.0123
 1198loPI   C1A18831   8.203   8.076   5.903  0.0513  0.0265 -0.0142
 1198loPI   C2A18832   8.180   7.970   6.336 -0.0475 -0.2436 -0.0710
 1198loPI   C3A18833   8.349   8.036   6.688  0.0984  0.1090  0.3226
 1198loPI   C4A18834   8.235   7.930   7.079  0.2737  0.0469  0.0446
 1198loPI   C5A18835   8.425   8.031   7.496 -0.3017  0.0958 -0.0553
 1198loPI   C6A18836   8.734   8.053   7.733  0.1538 -0.2570 -0.1402
 1198loPI   C1B18837   7.786   7.800   6.118 -0.2574  0.1369  0.1047
 1198loPI   C2B18838   7.726   7.750   6.528  0.2855  0.0844  0.0640
 1198loPI   C3B18839   7.640   8.053   6.877 -0.2819 -0.3600  0.3523
 1198loPI   C4B18840   7.454   8.319   7.148 -0.4010  0.3051 -0.2462
 1199loPI    C118841   9.709   1.280   5.532 -0.0278 -0.0493 -0.1642
 1199loPI    C218842  10.076   1.329   5.381  0.0122  0.0226 -0.0447
 1199loPI    C318843   9.830   1.057   5.223  0.0918  0.0228 -0.1701
 1199loPI   PO418844   9.700   1.246   5.886 -0.0987 -0.0369  0.1392
 1199loPI   GL118845   9.894   1.462   6.184 -0.0343 -0.2706 -0.1224
 1199loPI   GL218846   9.613   1.765   6.037  0.0009 -0.0845 -0.1575
 1199loPI   C1A18847  10.109   1.558   6.514  0.0774  0.3416 -0.2158
 1199loPI   C2A18848  10.339   1.496   6.797  0.3935  0.0306 -0.2984
 1199loPI   C3A18849  10.608   1.342   7.163 -0.0811 -0.2078  0.1379
 1199loPI   C4A18850  10.833   1.411   7.458  0.1701 -0.0528  0.2638
 1199loPI   C5A18851  10.572   1.477   7.709 -0.0780  0.0899  0.0377
 1199loPI   C6A18852  10.424   1.566   8.131  0.0629 -0.1583 -0.1257
 1199loPI   C1B18853   9.610   1.818   6.511  0.3026 -0.0448  0.4446
 1199loPI   C2B18854   9.520   1.605   6.875  0.2805  0.5563 -0.1733
 1199loPI   C3B18855   9.903   1.518   7.105 -0.0985  0.1500 -0.1116
 1199loPI   C4B18856  10.215   1.717   7.336 -0.0180  0.3716 -0.1073
 1200loPI    C118857  10.760   9.197   5.076 -0.0527 -0.0765  0.0086
 1200loPI    C218858  10.811   9.444   4.766  0.2151  0.0023  0.1125
 1200loPI    C318859  10.704   9.064   4.703  0.2508  0.0225 -0.0749
 1200loPI   PO418860  11.046   9.254   5.255  0.0867 -0.1286  0.1212
 1200loPI   GL118861  11.219   9.565   5.543 -0.2618  0.0991 -0.2261
 1200loPI   GL218862  10.945   9.576   5.669 -0.0914  0.1470  0.2386
 1200loPI   C1A18863  11.333   9.708   5.992  0.1552 -0.1195  0.1940
 1200loPI   C2A18864  11.432   9.584   6.462  0.3303 -0.0501  0.1929
 1200loPI   C3A18865  11.421   9.590   6.856 -0.0800 -0.1990  0.0993
 1200loPI   C4A18866  11.451   9.545   7.284  0.2400  0.1436 -0.0011
 1200loPI   C5A18867  11.652   9.643   7.489 -0.3009  0.0476 -0.3425
 1200loPI   C6A18868  11.906  10.025   7.569 -0.3039  0.1494 -0.2033
 1200loPI   C1B18869  10.871   9.567   6.012  0.2311 -0.4124 -0.0757
 1200loPI   C2B18870  10.929   9.450   6.415 -0.0739  0.1305  0.0283
 1200loPI   C3B18871  10.933   9.412   6.811  0.0750  0.2058 -0.0849
 1200loPI   C4B18872  10.990   9.327   7.209  0.1194  0.0691  0.1705
 1201loPI    C118873   5.639  11.085   4.938 -0.0411  0.0104  0.0006
 1201loPI    C218874   5.809  10.878   4.641 -0.1086 -0.1227  0.0539
 1201loPI    C318875   5.959  11.233   4.748 -0.1779 -0.0010 -0.2419
 1201loPI   PO418876   5.679  10.955   5.199 -0.0266  0.1514  0.0207
 1201loPI   GL118877   5.524  11.068   5.555 -0.1366  0.1956 -0.0893
 1201loPI   GL218878   5.669  11.304   5.614 -0.0013 -0.5606  0.2504
 1201loPI   C1A18879   5.391  10.933   6.008  0.3215 -0.3829  0.0716
 1201loPI   C2A18880   5.327  11.126   6.418 -0.1789  0.1472  0.0929
 1201loPI   C3A18881   5.388  11.346   6.723  0.4156  0.2148 -0.0180
 1201loPI   C4A18882   5.298  11.376   7.111  0.0273  0.0053 -0.0081
 1201loPI   C5A18883   5.561  11.573   7.479  0.3325 -0.0808 -0.3166
 1201loPI   C6A18884   5.693  11.746   7.889 -0.1407  0.1416  0.2717
 1201loPI   C1B18885   5.550  11.464   5.950  0.1244  0.1273  0.0680
 1201loPI   C2B18886   5.514  11.772   6.318 -0.2864  0.0956 -0.1708
 1201loPI   C3B18887   5.483  12.110   6.571 -0.1297  0.1400  0.2544
 1201loPI   C4B18888   5.588  12.562   6.541 -0.2198  0.3849  0.2778
 1202loPI    C118889   0.924   6.578   4.915 -0.3604 -0.1014 -0.0206
 1202loPI    C218890   0.948   6.263   4.669 -0.0366  0.0193 -0.1483
 1202loPI    C318891   1.006   6.633   4.528  0.0559  0.0983  0.0901
 1202loPI   PO418892   1.179   6.557   5.122  0.5262 -0.1626  0.0692
 1202loPI   GL118893   1.446   6.577   5.472  0.1591 -0.0556  0.2717
 1202loPI   GL218894   1.524   6.272   5.513  0.1572 -0.2814 -0.3472
 1202loPI   C1A18895   1.128   6.487   5.788 -0.1159  0.0430  0.0331
 1202loPI   C2A18896   1.073   6.524   6.155 -0.0079  0.0473  0.1095
 1202loPI   C3A18897   1.172   6.489   6.502  0.1329  0.2151  0.1671
 1202loPI   C4A18898   1.249   6.571   6.928  0.1764  0.3228  0.1176
 1202loPI   C5A18899   1.112   6.559   7.309 -0.0281  0.0384 -0.4029
 1202loPI   C6A18900   0.935   6.178   7.414  0.0685 -0.1157 -0.0189
 1202loPI   C1B18901   1.533   6.375   5.969  0.1875  0.3171 -0.0746
 1202loPI   C2B18902   1.678   6.434   6.255 -0.0517 -0.2198 -0.1237
 1202loPI   C3B18903   1.666   6.608   6.659 -0.0080  0.2652  0.0372
 1202loPI   C4B18904   1.757   6.669   7.100 -0.0034 -0.0056  0.2751
 1203loPI    C118905   7.146  11.915   4.905  0.0599  0.1967 -0.2625
 1203loPI    C218906   7.508  12.000   4.758  0.2846 -0.4346 -0.1055
 1203loPI    C318907   7.304  11.686   4.618 -0.0696 -0.2686  0.0268
 1203loPI   PO418908   7.184  11.925   5.107  0.0886  0.0133 -0.0731
 1203loPI   GL118909   7.286  12.010   5.557 -0.2839 -0.1695 -0.1539
 1203loPI   GL218910   7.184  11.798   5.647  0.0782  0.1196  0.0000
 1203loPI   C1A18911   7.498  12.048   5.996 -0.1193 -0.0137  0.2935
 1203loPI   C2A18912   7.470  12.141   6.369 -0.1617  0.0880  0.0423
 1203loPI   C3A18913   7.533  12.117   6.833  0.1594  0.0944 -0.0690
 1203loPI   C4A18914   7.514  12.014   7.268  0.3624 -0.0207 -0.0552
 1203loPI   C5A18915   7.416  11.692   7.710 -0.3418 -0.2531  0.2384
 1203loPI   C6A18916   7.128  11.506   7.869 -0.0731 -0.0993 -0.0561
 1203loPI   C1B18917   7.180  11.701   6.138  0.1314  0.0518  0.2062
 1203loPI   C2B18918   7.270  11.752   6.567 -0.0480 -0.1699 -0.0839
 1203loPI   C3B18919   7.192  11.573   7.013 -0.0127  0.1787  0.0187
 1203loPI   C4B18920   7.143  11.423   7.388 -0.1037 -0.0640 -0.0068
 1204loPI    C118921  16.751  17.783   5.023  0.1438 -0.0278  0.0744
 1204loPI    C218922  16.656  18.134   5.190 -0.0256 -0.0723  0.0741
 1204loPI    C318923  16.479  18.020   4.850  0.1559 -0.0813 -0.0185
 1204loPI   PO418924  17.007  17.770   5.094 -0.0284 -0.1223 -0.4045
 1204loPI   GL118925  17.000  17.935   5.479 -0.0119 -0.0072 -0.3319
 1204loPI   GL218926  16.924  17.555   5.515  0.1682  0.0995  0.1375
 1204loPI   C1A18927  16.807  18.183   5.893 -0.1212 -0.0820 -0.2050
 1204loPI   C2A18928  16.645  18.236   6.290  0.0468  0.0940  0.0492
 1204loPI   C3A18929  16.730  18.274   6.686  0.3017 -0.0512 -0.0156
 1204loPI   C4A18930  16.813  18.427   7.094  0.0339 -0.0320 -0.2028
 1204loPI   C5A18931  16.842  18.463   7.467  0.2128  0.3221 -0.2096
 1204loPI   C6A18932  16.683  18.653   7.748 -0.1468  0.2698 -0.1152
 1204loPI   C1B18933  16.984  17.405   5.941 -0.0348  0.1885 -0.3132
 1204loPI   C2B18934  16.900  17.417   6.360  0.3131  0.1753  0.0371
 1204loPI   C3B18935  17.004  17.502   6.801  0.1147 -0.1498  0.1941
 1204loPI   C4B18936  16.988  17.615   7.207 -0.0879  0.0050 -0.1247
 1205loPI    C118937   1.850  16.209   5.368  0.0752 -0.0847 -0.0140
 1205loPI    C218938   2.090  16.508   5.484 -0.1270  0.0848 -0.0266
 1205loPI    C318939   2.097  16.381   5.105  0.0011  0.0327 -0.0074
 1205loPI   PO418940   1.537  16.212   5.461 -0.3486 -0.1820  0.1646
 1205loPI   GL118941   1.395  15.971   5.715 -0.1025  0.1529 -0.1280
 1205loPI   GL218942   1.368  15.649   5.816 -0.0723 -0.1042  0.0505
 1205loPI   C1A18943   1.759  15.834   6.117 -0.0713 -0.1866 -0.1990
 1205loPI   C2A18944   1.611  15.833   6.561 -0.1376  0.0934 -0.0372
 1205loPI   C3A18945   1.489  15.712   6.998  0.4049 -0.0606  0.1162
 1205loPI   C4A18946   1.359  15.810   7.358  0.1355 -0.3515  0.2842
 1205loPI   C5A18947   1.244  15.996   7.761  0.0469  0.0462  0.0748
 1205loPI   C6A18948   0.761  16.091   7.994 -0.0883  0.0894 -0.0233
 1205loPI   C1B18949   1.300  15.526   6.273 -0.2456  0.0534  0.2043
 1205loPI   C2B18950   1.346  15.260   6.632 -0.1163  0.2038  0.0773
 1205loPI   C3B18951   1.459  15.138   7.022  0.0575  0.1178  0.0018
 1205loPI   C4B18952   1.547  15.380   7.403 -0.3421  0.0120 -0.0318
 1206loPI    C118953   0.154   1.046   5.414  0.0359 -0.1910 -0.0700
 1206loPI    C218954  -0.054   1.287   5.172  0.0218 -0.2586 -0.1255
 1206loPI    C318955   0.177   0.999   5.018  0.1114 -0.2214 -0.0622
 1206loPI   PO418956   0.068   1.102   5.676  0.0693  0.2252  0.2256
 1206loPI   GL118957  -0.244   0.946   5.973  0.0652  0.1170  0.0841
 1206loPI   GL218958   0.074   0.996   6.194  0.0269 -0.0460 -0.1444
 1206loPI   C1A18959  -0.471   1.197   6.228 -0.0146 -0.0763  0.1661
 1206loPI   C2A18960  -0.486   1.376   6.656  0.0624  0.1980  0.1302
 1206loPI   C3A18961  -0.528   1.267   7.173  0.0953 -0.0799 -0.3157
 1206loPI   C4A18962  -0.557   1.200   7.526 -0.2648  0.0489 -0.2928
 1206loPI   C5A18963  -0.697   0.770   7.716  0.1807  0.0827  0.3346
 1206loPI   C6A18964  -0.393   0.465   7.853  0.0205  0.1044  0.0128
 1206loPI   C1B18965  -0.096   0.978   6.574  0.2831 -0.1259  0.3848
 1206loPI   C2B18966  -0.110   0.869   7.090 -0.0356 -0.2425 -0.0563
 1206loPI   C3B18967  -0.172   0.829   7.558  0.1656  0.2216 -0.0125
 1206loPI   C4B18968   0.086   0.683   7.894  0.1481  0.1251  0.0996
 1207loPI    C118969   1.179  12.006   5.172  0.3043 -0.4463 -0.0932
 1207loPI    C218970   1.130  11.969   4.777  0.1782 -0.1030 -0.1135
 1207loPI    C318971   1.477  12.103   4.924  0.2227 -0.2240 -0.1067
 1207loPI   PO418972   1.110  11.840   5.288 -0.1427  0.0029 -0.0184
 1207loPI   GL118973   0.894  11.660   5.716 -0.2220 -0.2045 -0.0941
 1207loPI   GL218974   1.197  11.742   5.818 -0.1664 -0.2154 -0.1255
 1207loPI   C1A18975   0.890  11.648   6.162  0.5360 -0.1490  0.0935
 1207loPI   C2A18976   0.784  11.677   6.610 -0.0990  0.1530 -0.1244
 1207loPI   C3A18977   0.802  11.723   7.110  0.1594 -0.2565  0.0121
 1207loPI   C4A18978   0.674  11.782   7.605  0.0467 -0.1448  0.0717
 1207loPI   C5A18979   0.914  11.757   7.990  0.1306 -0.0550 -0.0616
 1207loPI   C6A18980   0.789  11.796   8.329  0.0719  0.1964  0.1733
 1207loPI   C1B18981   1.410  11.855   6.098 -0.0564 -0.2393  0.1484
 1207loPI   C2B18982   1.220  11.779   6.543 -0.2422  0.1647 -0.1529
 1207loPI   C3B18983   1.299  11.805   7.030  0.0608  0.0944 -0.4592
 1207loPI   C4B18984   1.238  11.964   7.517  0.0867  0.0348 -0.0762
 1208loPI    C118985  14.555   1.792   4.879  0.1380 -0.1862  0.1210
 1208loPI    C218986  14.475   2.076   4.609  0.2571 -0.0864  0.1899
 1208loPI    C318987  14.529   1.698   4.491  0.4590 -0.0178  0.0548
 1208loPI   PO418988  14.697   1.927   5.079  0.1784 -0.1834  0.0471
 1208loPI   GL118989  14.702   2.179   5.437  0.1773  0.1916  0.0823
 1208loPI   GL218990  14.544   1.916   5.571  0.0487 -0.3307 -0.1932
 1208loPI   C1A18991  14.863   2.224   5.913  0.1622 -0.0976 -0.0511
 1208loPI   C2A18992  14.795   2.159   6.397 -0.1476  0.0879  0.1929
 1208loPI   C3A18993  14.913   2.167   6.798  0.2580 -0.4343  0.2191
 1208loPI   C4A18994  14.958   2.305   7.152 -0.1228  0.2152  0.2705
 1208loPI   C5A18995  14.870   2.164   7.612  0.0397 -0.2203  0.1822
 1208loPI   C6A18996  15.050   1.829   7.901 -0.0592  0.1362 -0.2787
 1208loPI   C1B18997  14.378   2.023   6.023 -0.2280  0.0701 -0.0290
 1208loPI   C2B18998  14.328   2.086   6.560 -0.0713 -0.0718  0.2257
 1208loPI   C3B18999  14.424   2.096   6.958 -0.0572  0.0247 -0.3194
 1208loPI   C4B19000  14.429   2.088   7.407  0.0998  0.0182 -0.0778
 1209loPI    C119001  10.260   5.320   5.483 -0.0093 -0.0103 -0.0491
 1209loPI    C219002  10.314   5.706   5.573  0.1324 -0.0391 -0.0066
 1209loPI    C319003  10.586   5.513   5.352  0.1812 -0.1762  0.1709
 1209loPI   PO419004  10.086   5.223   5.765  0.0075  0.3445  0.3342
 1209loPI   GL119005  10.022   5.565   6.009  0.1022 -0.1083 -0.1117
 1209loPI   GL219006   9.787   5.886   5.971 -0.1308 -0.2052  0.0135
 1209loPI   C1A19007  10.132   5.662   6.426 -0.1233  0.1946  0.2571
 1209loPI   C2A19008  10.242   5.794   6.925  0.1305 -0.1638  0.3490
 1209loPI   C3A19009  10.115   5.833   7.374 -0.0601  0.2349 -0.0684
 1209loPI   C4A19010  10.072   5.898   7.785 -0.1242 -0.0177 -0.0303
 1209loPI   C5A19011   9.797   5.732   8.052 -0.2460 -0.1371  0.3000
 1209loPI   C6A19012   9.515   5.603   8.380 -0.2992  0.1181  0.2810
 1209loPI   C1B19013   9.719   6.077   6.296  0.1441  0.1832  0.0677
 1209loPI   C2B19014   9.820   6.391   6.532  0.1865  0.1407 -0.2580
 1209loPI   C3B19015   9.872   6.624   6.839 -0.0776 -0.2469  0.0382
 1209loPI   C4B19016   9.832   6.728   7.212  0.1468  0.1947  0.2793
 1210loPI    C119017   0.815  16.738   5.021  0.0472  0.2055 -0.0653
 1210loPI    C219018   0.523  16.933   4.829  0.0440  0.1407 -0.1262
 1210loPI    C319019   0.905  17.037   4.771  0.0404  0.1487 -0.1358
 1210loPI   PO419020   0.731  16.690   5.295  0.0970 -0.1603 -0.0414
 1210loPI   GL119021   0.883  16.617   5.764  0.0787  0.0314  0.1113
 1210loPI   GL219022   1.232  16.547   5.785  0.3061  0.1302 -0.1283
 1210loPI   C1A19023   0.833  16.815   6.132  0.1562 -0.1907  0.0598
 1210loPI   C2A19024   0.687  16.814   6.466  0.2411  0.0966 -0.0342
 1210loPI   C3A19025   0.655  16.488   6.736 -0.0533  0.3563 -0.0652
 1210loPI   C4A19026   0.575  16.352   7.114  0.1476  0.1442  0.0252
 1210loPI   C5A19027   0.389  16.220   7.460 -0.0412 -0.1107  0.0373
 1210loPI   C6A19028   0.300  16.056   7.778  0.2534  0.1172 -0.1973
 1210loPI   C1B19029   1.183  16.488   6.218 -0.3513  0.0655 -0.0041
 1210loPI   C2B19030   1.158  16.401   6.664 -0.0258  0.1164 -0.1465
 1210loPI   C3B19031   1.125  16.389   7.174  0.4287 -0.1051  0.0800
 1210loPI   C4B19032   0.833  16.519   7.521  0.2178 -0.2147  0.0888
 1211loPI    C119033   6.377   2.483   5.435 -0.2813  0.0229 -0.3433
 1211loPI    C219034   6.596   2.771   5.264  0.1453 -0.0239  0.1031
 1211loPI    C319035   6.564   2.414   5.088  0.1471  0.0908 -0.1330
 1211loPI   PO419036   6.177   2.583   5.551  0.0271 -0.0836  0.1055
 1211loPI   GL119037   6.170   2.474   5.927  0.1646  0.0053 -0.1122
 1211loPI   GL219038   6.523   2.305   5.977  0.0752 -0.1255 -0.1068
 1211loPI   C1A19039   6.331   2.737   6.267 -0.1387  0.1722  0.0388
 1211loPI   C2A19040   6.413   2.727   6.849 -0.1741  0.0730  0.3588
 1211loPI   C3A19041   6.451   2.384   7.211  0.1571 -0.2901  0.1767
 1211loPI   C4A19042   6.171   2.333   7.674 -0.1439  0.2337  0.1838
 1211loPI   C5A19043   5.863   2.220   8.020  0.1104  0.0522 -0.2400
 1211loPI   C6A19044   5.468   2.205   8.314  0.1570  0.0226  0.0420
 1211loPI   C1B19045   6.882   2.027   6.230 -0.2353 -0.0149  0.1018
 1211loPI   C2B19046   7.050   2.005   6.653 -0.0757  0.1803  0.0936
 1211loPI   C3B19047   7.054   2.063   7.015 -0.0835  0.2069  0.2889
 1211loPI   C4B19048   7.249   1.942   7.393  0.3709  0.2482 -0.2761
 1212loPI    C119049  15.011  12.770   4.854 -0.0793  0.0140 -0.0180
 1212loPI    C219050  15.239  12.492   4.679  0.0334  0.1440 -0.0797
 1212loPI    C319051  14.873  12.568   4.537 -0.0265 -0.0231 -0.0175
 1212loPI   PO419052  15.005  12.719   5.130 -0.1359 -0.2508 -0.1220
 1212loPI   GL119053  14.893  12.890   5.494  0.4316  0.2958  0.0540
 1212loPI   GL219054  15.050  13.050   5.753 -0.4050  0.1728 -0.0520
 1212loPI   C1A19055  14.832  12.629   5.892 -0.1522  0.0535 -0.1216
 1212loPI   C2A19056  14.800  12.602   6.334 -0.2850  0.1169  0.3160
 1212loPI   C3A19057  14.774  12.675   6.731  0.1262  0.0067 -0.1409
 1212loPI   C4A19058  14.780  12.539   7.223 -0.1747  0.2275  0.1665
 1212loPI   C5A19059  14.801  12.435   7.710  0.0372  0.2537 -0.1616
 1212loPI   C6A19060  14.557  12.299   8.153 -0.0011  0.1888  0.1262
 1212loPI   C1B19061  14.860  13.091   6.209 -0.2352 -0.1761  0.1801
 1212loPI   C2B19062  14.791  13.162   6.553  0.1399 -0.1651  0.0852
 1212loPI   C3B19063  14.868  13.068   7.019 -0.1950  0.0985 -0.0678
 1212loPI   C4B19064  14.959  13.001   7.442 -0.1263  0.1266 -0.0818
 1213loPI    C119065   8.757  14.611   5.245 -0.1355  0.0651  0.0400
 1213loPI    C219066   8.792  14.884   4.954  0.0011  0.1374  0.1228
 1213loPI    C319067   8.617  14.532   4.879 -0.0575  0.1961 -0.0190
 1213loPI   PO419068   8.762  14.865   5.516 -0.0792  0.3692  0.0207
 1213loPI   GL119069   8.689  14.767   5.989  0.0884  0.1452  0.1147
 1213loPI   GL219070   8.454  14.695   6.135  0.2632 -0.1596 -0.0665
 1213loPI   C1A19071   8.901  15.038   6.276  0.0616 -0.0009  0.1015
 1213loPI   C2A19072   8.853  15.122   6.670  0.1613  0.1407 -0.1749
 1213loPI   C3A19073   9.161  15.183   6.981  0.0607 -0.0672  0.3956
 1213loPI   C4A19074   9.068  14.977   7.312 -0.2252  0.4240 -0.0245
 1213loPI   C5A19075   9.177  14.805   7.676  0.0007  0.1802  0.1644
 1213loPI   C6A19076   9.311  14.548   7.979 -0.0973  0.0898 -0.0405
 1213loPI   C1B19077   8.524  14.779   6.558  0.1207  0.1151 -0.1804
 1213loPI   C2B19078   8.636  14.774   6.995  0.2565  0.2507  0.0730
 1213loPI   C3B19079   8.483  14.455   7.354 -0.0901  0.1026  0.0451
 1213loPI   C4B19080   8.290  14.473   7.702  0.1328 -0.1262 -0.0528
 1214loPI    C119081   1.450   4.796   5.198  0.0634  0.2175 -0.0823
 1214loPI    C219082   1.396   4.608   4.849  0.1720  0.0828 -0.0276
 1214loPI    C319083   1.641   4.453   5.124 -0.0413  0.1011  0.1758
 1214loPI   PO419084   1.236   4.813   5.297 -0.3390  0.4852  0.3459
 1214loPI   GL119085   1.075   4.970   5.599 -0.0937  0.1972  0.0936
 1214loPI   GL219086   1.380   5.026   5.777  0.0816  0.1026  0.2215
 1214loPI   C1A19087   0.823   4.951   5.987 -0.3120  0.1447 -0.2057
 1214loPI   C2A19088   0.770   4.983   6.358 -0.0009  0.1554  0.1323
 1214loPI   C3A19089   0.883   5.085   6.798 -0.3209 -0.0261  0.3741
 1214loPI   C4A19090   0.803   5.107   7.207 -0.1370  0.1835  0.2273
 1214loPI   C5A19091   0.937   5.319   7.613  0.0760  0.1086 -0.1406
 1214loPI   C6A19092   0.944   5.456   7.977 -0.0103 -0.1880  0.4794
 1214loPI   C1B19093   1.233   5.096   6.250  0.4538 -0.1465 -0.1056
 1214loPI   C2B19094   1.337   5.084   6.637  0.0422  0.0092  0.2405
 1214loPI   C3B19095   1.286   5.139   7.155  0.0136  0.3078 -0.0045
 1214loPI   C4B19096   1.416   5.208   7.636 -0.2162  0.0355 -0.0220
 1215loPI    C119097   5.355  16.994   5.239  0.1259 -0.0690  0.3029
 1215loPI    C219098   5.633  16.741   5.103 -0.1873 -0.2130 -0.0886
 1215loPI    C319099   5.658  17.130   5.017  0.0549 -0.1754  0.1389
 1215loPI   PO419100   5.280  16.961   5.412 -0.0329 -0.0392 -0.0241
 1215loPI   GL119101   5.360  16.870   5.846 -0.0487 -0.1274  0.1151
 1215loPI   GL219102   5.088  16.935   5.980  0.1201  0.1275  0.0727
 1215loPI   C1A19103   5.573  16.933   6.231  0.2532  0.0421  0.0327
 1215loPI   C2A19104   5.622  16.930   6.650  0.1922  0.0545 -0.0586
 1215loPI   C3A19105   5.645  16.950   7.179  0.3164  0.0850 -0.2283
 1215loPI   C4A19106   5.702  17.048   7.516  0.0039  0.3048 -0.1683
 1215loPI   C5A19107   5.910  16.958   7.891  0.2798  0.1220 -0.0938
 1215loPI   C6A19108   5.844  16.481   8.047 -0.0936  0.3328 -0.0186
 1215loPI   C1B19109   5.175  16.767   6.419  0.1004 -0.1817  0.2167
 1215loPI   C2B19110   5.190  16.781   6.878  0.2505 -0.2017  0.3663
 1215loPI   C3B19111   5.176  16.748   7.318  0.1091 -0.0472 -0.0740
 1215loPI   C4B19112   5.323  16.773   7.739  0.2872  0.0985  0.2027
 1216loPI    C119113   5.703   6.352   5.123 -0.0803  0.0123  0.0159
 1216loPI    C219114   5.496   6.684   5.039  0.1185  0.1925  0.2260
 1216loPI    C319115   5.730   6.518   4.760 -0.4729 -0.1441 -0.0913
 1216loPI   PO419116   5.857   6.399   5.411 -0.2455 -0.0001 -0.2886
 1216loPI   GL119117   6.068   6.071   5.723  0.0592 -0.2288 -0.2809
 1216loPI   GL219118   5.850   5.935   5.844  0.0374 -0.2027 -0.0115
 1216loPI   C1A19119   6.024   6.357   6.150  0.0611  0.0765 -0.0841
 1216loPI   C2A19120   5.889   6.383   6.494  0.1791  0.1153  0.4973
 1216loPI   C3A19121   5.816   6.452   6.860  0.1408 -0.0729 -0.0236
 1216loPI   C4A19122   5.713   6.450   7.253 -0.1373 -0.1369  0.2365
 1216loPI   C5A19123   5.841   6.384   7.736 -0.3870 -0.0908  0.3036
 1216loPI   C6A19124   6.159   6.746   7.806 -0.2074 -0.0400  0.0734
 1216loPI   C1B19125   5.809   5.815   6.261  0.1349  0.1172 -0.1544
 1216loPI   C2B19126   5.721   5.903   6.647  0.3188 -0.1344 -0.0249
 1216loPI   C3B19127   5.612   5.990   6.949  0.1478 -0.1325 -0.1453
 1216loPI   C4B19128   5.287   5.987   7.237  0.1260  0.0997 -0.0643
 1217loPI    C119129   9.075   0.115   5.530 -0.0182 -0.2154 -0.0442
 1217loPI    C219130   8.999   0.336   5.205 -0.0538 -0.1103  0.0347
 1217loPI    C319131   9.332   0.114   5.223  0.0480  0.0388  0.0079
 1217loPI   PO419132   8.890   0.134   5.732  0.2429  0.0053  0.1656
 1217loPI   GL119133   8.524  -0.070   5.881 -0.1409 -0.0522  0.3174
 1217loPI   GL219134   8.216  -0.198   5.657 -0.0364  0.0877  0.1521
 1217loPI   C1A19135   8.436  -0.289   6.382  0.2533  0.0416 -0.1306
 1217loPI   C2A19136   8.565  -0.361   6.819 -0.0866  0.0219  0.3111
 1217loPI   C3A19137   8.662  -0.569   7.267 -0.1392 -0.0645 -0.0922
 1217loPI   C4A19138   8.854  -0.636   7.683  0.2580 -0.0018 -0.3419
 1217loPI   C5A19139   8.905  -0.661   8.202 -0.0345  0.0648 -0.1759
 1217loPI   C6A19140   9.053  -0.815   8.569  0.0143  0.2768 -0.0178
 1217loPI   C1B19141   8.061  -0.335   6.040  0.2427 -0.0470 -0.2209
 1217loPI   C2B19142   7.991  -0.499   6.390 -0.1170 -0.0045 -0.0745
 1217loPI   C3B19143   8.064  -0.541   6.798  0.1221 -0.1193  0.1096
 1217loPI   C4B19144   8.188  -0.653   7.210  0.1221  0.1423  0.2277
 1218loPI    C119145   4.442  17.619   5.427 -0.2858  0.0107  0.1655
 1218loPI    C219146   4.334  17.400   5.744  0.0071 -0.2117  0.1161
 1218loPI    C319147   4.268  17.262   5.374 -0.1438 -0.0465  0.0796
 1218loPI   PO419148   4.656  17.696   5.494  0.1297  0.0638 -0.3836
 1218loPI   GL119149   4.785  17.605   6.017 -0.1486  0.0637  0.1571
 1218loPI   GL219150   5.009  17.796   5.795 -0.0369 -0.1644 -0.1120
 1218loPI   C1A19151   4.811  17.621   6.426 -0.1251  0.0835  0.1736
 1218loPI   C2A19152   4.873  17.524   6.944  0.1079  0.2294  0.1960
 1218loPI   C3A19153   4.866  17.616   7.386 -0.0901 -0.0175  0.1625
 1218loPI   C4A19154   5.066  17.633   7.790 -0.1373  0.0510  0.2745
 1218loPI   C5A19155   5.294  18.071   7.982 -0.3602  0.1462  0.0172
 1218loPI   C6A19156   5.518  18.398   7.963 -0.3794 -0.0440  0.1707
 1218loPI   C1B19157   5.251  17.793   6.171  0.2270 -0.0777  0.3168
 1218loPI   C2B19158   5.302  17.809   6.615  0.1373  0.0029 -0.0083
 1218loPI   C3B19159   5.310  17.753   7.058  0.1169  0.0821  0.2005
 1218loPI   C4B19160   5.425  17.829   7.529  0.2498  0.4417 -0.0317
 1219loPI    C119161  18.031   9.089   4.878  0.0612  0.2925 -0.2551
 1219loPI    C219162  18.078   9.013   4.488 -0.1154  0.0174 -0.2254
 1219loPI    C319163  17.732   9.162   4.622 -0.1188 -0.0556 -0.1513
 1219loPI   PO419164  18.109   8.873   4.990 -0.0916  0.1952  0.2239
 1219loPI   GL119165  17.985   8.769   5.344  0.3500  0.1395 -0.2281
 1219loPI   GL219166  18.302   8.867   5.543  0.0148 -0.1039 -0.0104
 1219loPI   C1A19167  17.750   8.718   5.715 -0.0007 -0.2446  0.0196
 1219loPI   C2A19168  17.751   8.754   6.097 -0.0112 -0.0812  0.2012
 1219loPI   C3A19169  17.680   8.787   6.565  0.2064  0.0777  0.0938
 1219loPI   C4A19170  17.626   8.860   6.994  0.1520  0.1739 -0.0848
 1219loPI   C5A19171  17.654   8.896   7.484  0.2267  0.1180 -0.0711
 1219loPI   C6A19172  17.894   9.051   7.839 -0.0871  0.1668 -0.0520
 1219loPI   C1B19173  18.201   8.996   5.957 -0.2349  0.0813 -0.1229
 1219loPI   C2B19174  18.147   8.994   6.428  0.4322  0.3842  0.0674
 1219loPI   C3B19175  18.105   9.046   6.944 -0.1381  0.2786 -0.1676
 1219loPI   C4B19176  18.164   9.019   7.381  0.0620  0.2896  0.0305
 1220loPI    C119177   0.447   6.347   4.751  0.0375  0.0802 -0.0703
 1220loPI    C219178   0.514   6.615   4.462 -0.0741  0.1011 -0.0774
 1220loPI    C319179   0.189   6.383   4.448 -0.0803  0.1028  0.0318
 1220loPI   PO419180   0.421   6.408   5.003  0.2401 -0.0164 -0.1494
 1220loPI   GL119181   0.385   6.216   5.295 -0.2813  0.0438 -0.1789
 1220loPI   GL219182   0.721   6.460   5.474  0.0532 -0.1502 -0.0277
 1220loPI   C1A19183   0.233   6.421   5.729 -0.0386 -0.0969 -0.0303
 1220loPI   C2A19184   0.259   6.714   6.045 -0.1463  0.2445  0.0502
 1220loPI   C3A19185   0.327   6.786   6.494 -0.1432  0.4029 -0.3229
 1220loPI   C4A19186   0.292   6.913   6.983 -0.1007 -0.0793  0.2226
 1220loPI   C5A19187   0.200   6.905   7.540  0.3741 -0.4406  0.0593
 1220loPI   C6A19188   0.202   6.937   7.937  0.0279  0.0326  0.1941
 1220loPI   C1B19189   0.655   6.325   5.955 -0.2265 -0.1847 -0.2077
 1220loPI   C2B19190   0.609   6.386   6.403  0.1500 -0.2982 -0.0187
 1220loPI   C3B19191   0.670   6.450   6.802  0.0848  0.1885  0.3425
 1220loPI   C4B19192   0.649   6.484   7.228 -0.1722 -0.1958 -0.2047
 1221loPI    C119193  17.624  12.012   5.274 -0.0060  0.1609  0.3039
 1221loPI    C219194  17.961  12.015   5.489  0.1652 -0.0949  0.0470
 1221loPI    C319195  17.979  11.990   5.091 -0.1500  0.2839  0.0033
 1221loPI   PO419196  17.493  12.172   5.358  0.3570  0.2039  0.0715
 1221loPI   GL119197  17.131  12.189   5.603 -0.0135 -0.2313  0.0983
 1221loPI   GL219198  17.081  11.910   5.859  0.0304 -0.2442 -0.2242
 1221loPI   C1A19199  17.007  12.318   6.056  0.4662 -0.2328  0.0909
 1221loPI   C2A19200  17.005  12.322   6.484 -0.1657  0.3389  0.0057
 1221loPI   C3A19201  16.868  12.327   6.939 -0.0569 -0.2456 -0.1086
 1221loPI   C4A19202  17.105  12.317   7.376 -0.3303  0.1034  0.3033
 1221loPI   C5A19203  17.152  12.553   7.688 -0.0573 -0.0939  0.2750
 1221loPI   C6A19204  17.288  12.653   8.185  0.1538 -0.0260 -0.0056
 1221loPI   C1B19205  16.966  11.832   6.384 -0.2596  0.0874  0.0315
 1221loPI   C2B19206  16.925  11.874   6.805  0.0465  0.1806 -0.1009
 1221loPI   C3B19207  16.883  11.788   7.265 -0.2132  0.0727  0.0857
 1221loPI   C4B19208  16.887  11.971   7.706  0.1635 -0.1526 -0.0699
 1222loPI    C119209   6.214   1.669   5.513 -0.1073 -0.1172 -0.2338
 1222loPI    C219210   6.115   2.045   5.608 -0.0555 -0.1696  0.0357
 1222loPI    C319211   6.185   1.947   5.226  0.0481  0.1216 -0.0228
 1222loPI   PO419212   6.020   1.537   5.659  0.2948 -0.0404  0.0181
 1222loPI   GL119213   5.989   1.597   6.031  0.2798  0.0668 -0.0311
 1222loPI   GL219214   6.034   2.001   6.095  0.4745  0.2700 -0.0106
 1222loPI   C1A19215   6.138   1.364   6.351 -0.1551 -0.0202  0.0972
 1222loPI   C2A19216   6.022   1.091   6.801 -0.0877 -0.1303 -0.1859
 1222loPI   C3A19217   6.105   1.083   7.160 -0.2758 -0.1916  0.0827
 1222loPI   C4A19218   6.238   1.137   7.569 -0.2438 -0.0010 -0.0967
 1222loPI   C5A19219   6.315   1.354   7.897 -0.2229 -0.2384 -0.0431
 1222loPI   C6A19220   6.091   1.791   7.887  0.0335  0.3546  0.1726
 1222loPI   C1B19221   6.055   1.793   6.523  0.2979  0.3240 -0.2102
 1222loPI   C2B19222   6.164   1.545   6.872 -0.0290 -0.3586 -0.1324
 1222loPI   C3B19223   6.149   1.609   7.269 -0.0349 -0.2235  0.2957
 1222loPI   C4B19224   6.258   1.950   7.404  0.0992 -0.1297  0.0740
 1223loPI    C119225  14.275  10.600   5.104  0.1125  0.0397 -0.0281
 1223loPI    C219226  14.403  10.285   4.893 -0.1780  0.0477 -0.2231
 1223loPI    C319227  14.438  10.654   4.743  0.2737  0.1265  0.0569
 1223loPI   PO419228  14.365  10.527   5.390  0.0200 -0.0758 -0.0953
 1223loPI   GL119229  14.356  10.327   5.786  0.2989 -0.0275  0.3295
 1223loPI   GL219230  14.651  10.141   5.855  0.1397  0.0881  0.1906
 1223loPI   C1A19231  14.308  10.455   6.153  0.0653  0.1849 -0.0455
 1223loPI   C2A19232  14.373  10.446   6.529  0.1238  0.0246 -0.3379
 1223loPI   C3A19233  14.302  10.516   6.919 -0.1414  0.1810  0.0572
 1223loPI   C4A19234  14.332  10.522   7.322  0.3018  0.2138  0.1242
 1223loPI   C5A19235  14.455  10.595   7.719  0.0405  0.0223  0.1413
 1223loPI   C6A19236  14.594  10.430   8.199  0.2628 -0.6293  0.1366
 1223loPI   C1B19237  14.814  10.174   6.138  0.2419  0.1059 -0.2327
 1223loPI   C2B19238  14.797  10.252   6.583  0.1586  0.3396 -0.1580
 1223loPI   C3B19239  14.718  10.231   6.946 -0.1694  0.1705  0.0018
 1223loPI   C4B19240  14.708  10.213   7.344 -0.2061 -0.2625  0.0671
 1224loPI    C119241  14.862  14.944   5.400 -0.2348  0.0078  0.4253
 1224loPI    C219242  14.798  15.337   5.440 -0.2344  0.0659 -0.0834
 1224loPI    C319243  15.164  15.201   5.352 -0.2461 -0.0458  0.0370
 1224loPI   PO419244  14.662  14.814   5.560  0.0079 -0.1225  0.1653
 1224loPI   GL119245  14.790  14.660   5.912 -0.1090 -0.3111  0.1347
 1224loPI   GL219246  14.505  14.436   5.850 -0.0268 -0.4269  0.1278
 1224loPI   C1A19247  14.827  14.673   6.425 -0.1024 -0.1135 -0.0350
 1224loPI   C2A19248  14.675  14.487   6.739  0.0512  0.0376  0.0405
 1224loPI   C3A19249  14.636  14.440   7.248 -0.1579 -0.0237 -0.1938
 1224loPI   C4A19250  14.637  14.164   7.628 -0.0479  0.0399 -0.3373
 1224loPI   C5A19251  14.919  13.985   7.796  0.1900  0.0448  0.0696
 1224loPI   C6A19252  15.030  13.647   8.026  0.3044 -0.1806 -0.0184
 1224loPI   C1B19253  14.668  14.254   6.188 -0.0133 -0.0084  0.1967
 1224loPI   C2B19254  14.626  13.925   6.395  0.1252  0.2420  0.1710
 1224loPI   C3B19255  14.576  13.982   6.757  0.2120  0.1015 -0.0802
 1224loPI   C4B19256  14.580  13.891   7.209  0.0712  0.2884  0.1632
 1225loPI    C119257   4.098   0.571   5.004 -0.1290 -0.2118  0.1121
 1225loPI    C219258   4.087   0.429   4.630  0.2486 -0.0928  0.0520
 1225loPI    C319259   4.408   0.363   4.859  0.0691 -0.0626  0.3160
 1225loPI   PO419260   4.086   0.910   5.120 -0.0292  0.0570  0.0109
 1225loPI   GL119261   3.943   1.063   5.537  0.0144 -0.6147 -0.0923
 1225loPI   GL219262   3.989   1.241   5.752  0.2826 -0.2431  0.0479
 1225loPI   C1A19263   4.082   0.812   5.943  0.1994  0.1135  0.1498
 1225loPI   C2A19264   3.988   0.785   6.442  0.0683 -0.0322  0.0522
 1225loPI   C3A19265   4.135   0.827   6.779 -0.2064 -0.0661 -0.2181
 1225loPI   C4A19266   4.175   0.727   7.230 -0.1834 -0.0440  0.1367
 1225loPI   C5A19267   4.152   0.642   7.717 -0.0437 -0.0923  0.0888
 1225loPI   C6A19268   4.087   0.534   8.079 -0.0606  0.0693  0.1412
 1225loPI   C1B19269   4.053   1.306   6.181  0.1576  0.0032 -0.2362
 1225loPI   C2B19270   4.120   1.320   6.597 -0.2389 -0.3470 -0.0508
 1225loPI   C3B19271   4.192   1.296   7.018 -0.1555 -0.1662 -0.2507
 1225loPI   C4B19272   4.288   1.345   7.411 -0.1237 -0.0751  0.3382
 1226loPI    C119273  12.129   6.312   4.608  0.2148 -0.1862  0.0371
 1226loPI    C219274  12.219   6.004   4.370  0.0393 -0.0918 -0.1546
 1226loPI    C319275  11.939   6.267   4.259  0.2524  0.1900 -0.0362
 1226loPI   PO419276  12.092   6.188   4.925  0.1452  0.3187 -0.0170
 1226loPI   GL119277  12.003   6.291   5.382  0.2714 -0.4101  0.0276
 1226loPI   GL219278  12.240   6.296   5.512  0.2791 -0.0470  0.2760
 1226loPI   C1A19279  11.867   6.388   5.797 -0.0572 -0.0932 -0.1267
 1226loPI   C2A19280  12.054   6.415   6.225 -0.1603  0.0306 -0.0487
 1226loPI   C3A19281  12.117   6.489   6.639  0.0737  0.1501 -0.0186
 1226loPI   C4A19282  12.225   6.413   7.027 -0.1688 -0.2321 -0.2178
 1226loPI   C5A19283  12.227   6.407   7.458 -0.1157  0.0540 -0.0274
 1226loPI   C6A19284  12.270   6.712   7.708 -0.1685  0.1182 -0.2261
 1226loPI   C1B19285  12.428   6.148   5.888  0.1038 -0.1194 -0.2668
 1226loPI   C2B19286  12.517   6.064   6.291 -0.0201  0.0170 -0.0838
 1226loPI   C3B19287  12.569   6.247   6.654 -0.0716 -0.0675  0.0727
 1226loPI   C4B19288  12.646   6.160   7.111  0.2890  0.0257  0.3051
 1227loPI    C119289  16.026  18.328   4.780  0.3173 -0.2238 -0.1060
 1227loPI    C219290  16.304  18.419   4.507  0.0218  0.3377 -0.2361
 1227loPI    C319291  15.976  18.218   4.398  0.2034 -0.0126 -0.1534
 1227loPI   PO419292  16.169  18.325   5.083  0.0081 -0.3573  0.1915
 1227loPI   GL119293  16.207  18.314   5.485 -0.1683  0.2005  0.0207
 1227loPI   GL219294  16.435  18.487   5.466  0.0728 -0.0380  0.1428
 1227loPI   C1A19295  16.251  18.090   5.925  0.1409 -0.0366 -0.0786
 1227loPI   C2A19296  16.180  18.122   6.332 -0.2609  0.2437  0.0617
 1227loPI   C3A19297  16.260  18.122   6.718  0.1062  0.0607  0.1225
 1227loPI   C4A19298  16.255  18.273   7.049  0.1285  0.0645 -0.0869
 1227loPI   C5A19299  16.286  18.340   7.503  0.0647 -0.0783 -0.1735
 1227loPI   C6A19300  16.333  18.175   7.906 -0.0073 -0.1101  0.2348
 1227loPI   C1B19301  16.268  18.564   5.968  0.0697  0.0070  0.1942
 1227loPI   C2B19302  16.328  18.611   6.379 -0.0500 -0.0203  0.0717
 1227loPI   C3B19303  16.377  18.681   6.793 -0.3960 -0.0520  0.0294
 1227loPI   C4B19304  16.502  18.794   7.263  0.1091 -0.1032 -0.1849
 1228loPI    C119305  17.027  15.020   4.802 -0.2223  0.0397  0.1186
 1228loPI    C219306  17.252  14.749   4.612 -0.0887  0.1001  0.1899
 1228loPI    C319307  17.039  15.014   4.402 -0.2863 -0.1119  0.1181
 1228loPI   PO419308  17.068  14.980   5.059  0.1188  0.2052  0.0269
 1228loPI   GL119309  16.959  14.900   5.508  0.2180  0.1265 -0.1955
 1228loPI   GL219310  17.322  14.960   5.521 -0.0497  0.1926  0.0947
 1228loPI   C1A19311  16.903  14.929   6.012 -0.0188 -0.0868 -0.1224
 1228loPI   C2A19312  16.744  15.067   6.467  0.0476  0.1320  0.0851
 1228loPI   C3A19313  16.636  15.112   6.857  0.3095  0.0041 -0.3606
 1228loPI   C4A19314  16.544  15.090   7.345 -0.0005  0.0565  0.1655
 1228loPI   C5A19315  16.704  14.752   7.597 -0.0119  0.0780 -0.0653
 1228loPI   C6A19316  17.114  14.517   7.764  0.1489 -0.0795  0.1249
 1228loPI   C1B19317  17.345  15.045   5.903  0.1298 -0.2075 -0.0146
 1228loPI   C2B19318  17.608  15.298   6.136 -0.0753  0.1947  0.0252
 1228loPI   C3B19319  17.765  15.140   6.561 -0.3088  0.0344  0.1705
 1228loPI   C4B19320  17.995  15.234   7.037  0.1545 -0.0068 -0.1036
 1229loPI    C119321   9.658   5.016   5.581  0.0914  0.0285 -0.0316
 1229loPI    C219322   9.850   5.087   5.238  0.0912  0.1699 -0.0032
 1229loPI    C319323   9.748   4.713   5.337  0.0227  0.1370 -0.1932
 1229loPI   PO419324   9.417   5.185   5.656  0.1005  0.0923 -0.1981
 1229loPI   GL119325   9.538   5.377   6.054 -0.1475  0.0601  0.0981
 1229loPI   GL219326   9.676   5.074   6.064 -0.1654  0.2855 -0.2551
 1229loPI   C1A19327   9.557   5.588   6.417  0.1187  0.0803 -0.0571
 1229loPI   C2A19328   9.780   5.798   6.753  0.0087  0.1212  0.1661
 1229loPI   C3A19329   9.860   6.128   6.990 -0.0158  0.1931 -0.2339
 1229loPI   C4A19330   9.780   6.241   7.397 -0.1682 -0.1085  0.0454
 1229loPI   C5A19331   9.677   6.204   7.778  0.1715  0.3252  0.0750
 1229loPI   C6A19332   9.463   6.108   8.197 -0.1613 -0.1686  0.2636
 1229loPI   C1B19333   9.877   5.219   6.470 -0.2252 -0.1415 -0.1469
 1229loPI   C2B19334  10.023   5.300   6.905 -0.0560  0.1299  0.3272
 1229loPI   C3B19335  10.105   5.291   7.418  0.2265 -0.2629 -0.1348
 1229loPI   C4B19336  10.500   5.131   7.650 -0.0033  0.2005  0.0583
 1230loPI    C119337  12.426  14.236   5.119  0.1712  0.2668 -0.1832
 1230loPI    C219338  12.430  14.110   4.740  0.0642 -0.1624 -0.0477
 1230loPI    C319339  12.774  14.168   4.934  0.1224  0.1868 -0.2462
 1230loPI   PO419340  12.180  14.046   5.277  0.0287 -0.0556 -0.0740
 1230loPI   GL119341  12.126  14.038   5.748  0.1039  0.0627 -0.0690
 1230loPI   GL219342  12.261  13.704   5.644  0.1846 -0.2946  0.1904
 1230loPI   C1A19343  12.383  13.952   6.120  0.0817  0.1298 -0.0395
 1230loPI   C2A19344  12.407  13.643   6.501  0.2722  0.2205  0.0460
 1230loPI   C3A19345  12.240  13.537   6.895  0.1147 -0.2189  0.0423
 1230loPI   C4A19346  12.146  13.460   7.320 -0.3755 -0.0018 -0.1748
 1230loPI   C5A19347  12.152  13.406   7.813  0.2183  0.0000  0.1543
 1230loPI   C6A19348  12.291  13.389   8.186 -0.1549  0.0767 -0.1662
 1230loPI   C1B19349  12.301  13.467   6.002  0.0393  0.1531  0.0302
 1230loPI   C2B19350  12.162  13.125   6.179 -0.2510  0.0421 -0.0357
 1230loPI   C3B19351  12.191  13.070   6.651  0.1131 -0.2364  0.3247
 1230loPI   C4B19352  12.016  13.042   7.018  0.4010 -0.0598  0.2756
 1231loPI    C119353   5.366   0.082   4.896 -0.1730  0.1064 -0.0439
 1231loPI    C219354   5.649  -0.067   4.655 -0.2360 -0.1295  0.0260
 1231loPI    C319355   5.676   0.310   4.785  0.0874 -0.1738  0.0945
 1231loPI   PO419356   5.317  -0.012   5.173 -0.1149  0.2936  0.3016
 1231loPI   GL119357   5.478   0.048   5.550  0.0598 -0.1657 -0.1201
 1231loPI   GL219358   5.232  -0.203   5.756  0.1954 -0.1849  0.1172
 1231loPI   C1A19359   5.674   0.000   5.961 -0.2824  0.0880 -0.6431
 1231loPI   C2A19360   5.805   0.121   6.311 -0.1837 -0.0000  0.1361
 1231loPI   C3A19361   5.956   0.075   6.742 -0.2123  0.0644 -0.1128
 1231loPI   C4A19362   5.917   0.062   7.179  0.2034  0.0681  0.0071
 1231loPI   C5A19363   5.873   0.108   7.588 -0.1835 -0.0542 -0.3728
 1231loPI   C6A19364   5.560   0.413   7.757 -0.1777 -0.0143 -0.1372
 1231loPI   C1B19365   5.258  -0.121   6.181  0.1964 -0.1550  0.0393
 1231loPI   C2B19366   5.421  -0.051   6.634  0.0937  0.1295  0.0708
 1231loPI   C3B19367   5.381  -0.118   7.045 -0.3014  0.3263 -0.0357
 1231loPI   C4B19368   5.468  -0.068   7.479  0.2706 -0.0333  0.0664
 1232loPI    C119369  11.046  15.539   5.469 -0.2055  0.0796 -0.0278
 1232loPI    C219370  11.015  15.657   5.088 -0.1397 -0.1719 -0.1131
 1232loPI    C319371  11.027  15.929   5.381 -0.1384  0.0251 -0.2932
 1232loPI   PO419372  10.920  15.291   5.404 -0.0079  0.3617  0.0371
 1232loPI   GL119373  10.775  15.279   5.822 -0.0953  0.1537 -0.0076
 1232loPI   GL219374  10.981  15.498   6.084  0.4999 -0.1137  0.0514
 1232loPI   C1A19375  10.440  15.625   6.057  0.1704 -0.1750 -0.0219
 1232loPI   C2A19376  10.324  15.691   6.499  0.0184 -0.0094  0.0929
 1232loPI   C3A19377  10.338  15.665   6.966  0.0764  0.2228  0.3852
 1232loPI   C4A19378  10.366  15.560   7.360 -0.4316  0.1139  0.0177
 1232loPI   C5A19379  10.504  15.256   7.511 -0.1645 -0.0800  0.0002
 1232loPI   C6A19380  10.937  15.097   7.544  0.3384  0.0376 -0.1853
 1232loPI   C1B19381  11.055  15.397   6.472 -0.2084 -0.2882 -0.2037
 1232loPI   C2B19382  11.375  15.726   6.615  0.0091  0.3221 -0.0161
 1232loPI   C3B19383  11.489  15.756   7.058  0.1977 -0.0208  0.0772
 1232loPI   C4B19384  11.617  15.900   7.434 -0.0684 -0.0534 -0.2021
 1233loPI    C119385  10.307   1.412   5.819 -0.1063 -0.1516  0.0385
 1233loPI    C219386  10.566   1.262   5.554 -0.0679 -0.2369  0.1238
 1233loPI    C319387  10.500   1.657   5.568  0.0172 -0.2202  0.0657
 1233loPI   PO419388  10.361   1.286   6.033 -0.1873 -0.0984  0.1268
 1233loPI   GL119389  10.227   0.969   6.382 -0.1304 -0.1746  0.1952
 1233loPI   GL219390  10.415   1.083   6.460 -0.0214 -0.0207  0.3335
 1233loPI   C1A19391   9.942   0.663   6.601  0.0608  0.3830 -0.0105
 1233loPI   C2A19392   9.683   0.460   6.860 -0.3641 -0.1454  0.0077
 1233loPI   C3A19393   9.769   0.239   7.179  0.1314  0.2350 -0.0693
 1233loPI   C4A19394  10.050   0.437   7.541  0.1267 -0.1459  0.1946
 1233loPI   C5A19395  10.204   0.508   7.970  0.0565  0.3248  0.1042
 1233loPI   C6A19396  10.289   0.584   8.433 -0.0635  0.2096  0.1384
 1233loPI   C1B19397  10.596   1.041   6.825  0.1060  0.0409  0.3117
 1233loPI   C2B19398  10.726   0.747   7.142  0.0396 -0.0568  0.1373
 1233loPI   C3B19399  10.521   0.361   7.322 -0.0146  0.3236  0.3134
 1233loPI   C4B19400  10.449   0.164   7.660 -0.1575  0.0797 -0.0096
 1234loPI    C119401   6.242   4.661   5.516  0.1579  0.0768 -0.2142
 1234loPI    C219402   6.488   4.355   5.589  0.0322  0.0078 -0.0745
 1234loPI    C319403   6.595   4.726   5.691  0.0904 -0.0183 -0.0403
 1234loPI   PO419404   6.069   4.550   5.728  0.0088 -0.2434  0.0979
 1234loPI   GL119405   5.762   4.506   6.079 -0.2042 -0.2228  0.1303
 1234loPI   GL219406   5.703   4.172   6.288 -0.0585  0.0979 -0.0603
 1234loPI   C1A19407   5.989   4.473   6.496  0.0171  0.0584  0.0573
 1234loPI   C2A19408   6.197   4.633   6.862  0.3529  0.1116 -0.1174
 1234loPI   C3A19409   6.422   4.687   7.322 -0.1123 -0.2001 -0.0686
 1234loPI   C4A19410   6.591   4.702   7.681 -0.1195 -0.0972  0.0651
 1234loPI   C5A19411   6.563   5.054   7.969  0.0028 -0.0787  0.1308
 1234loPI   C6A19412   6.397   5.459   7.963 -0.1391  0.0615 -0.0941
 1234loPI   C1B19413   5.760   3.906   6.709  0.1451  0.0721 -0.1307
 1234loPI   C2B19414   5.753   3.482   6.853  0.0679  0.1448 -0.1052
 1234loPI   C3B19415   5.975   3.491   7.300 -0.4083  0.1044  0.0997
 1234loPI   C4B19416   6.360   3.349   7.537  0.0239  0.0599  0.1980
 1235loPI    C119417   6.874  13.062   5.239 -0.2145  0.1524 -0.0373
 1235loPI    C219418   7.194  13.287   5.322 -0.0360 -0.1394  0.0798
 1235loPI    C319419   7.043  13.282   4.952  0.0567  0.0467  0.0384
 1235loPI   PO419420   6.892  12.888   5.404  0.1231 -0.0972 -0.0474
 1235loPI   GL119421   6.690  12.836   5.831  0.1974  0.0871  0.0303
 1235loPI   GL219422   6.549  12.581   5.939  0.1027  0.1875 -0.0319
 1235loPI   C1A19423   6.443  12.936   6.218  0.0328 -0.0159  0.1636
 1235loPI   C2A19424   6.393  13.096   6.604  0.2402 -0.2074 -0.0677
 1235loPI   C3A19425   6.559  12.979   7.006 -0.2338 -0.0594  0.4690
 1235loPI   C4A19426   6.632  12.838   7.474  0.1414  0.1566  0.2544
 1235loPI   C5A19427   6.831  12.551   7.737 -0.0114 -0.0671  0.0713
 1235loPI   C6A19428   6.441  12.301   7.894 -0.4718  0.0426 -0.0396
 1235loPI   C1B19429   6.731  12.523   6.344  0.0358  0.0503 -0.0963
 1235loPI   C2B19430   6.791  12.572   6.720  0.1336 -0.0332 -0.0030
 1235loPI   C3B19431   6.742  12.512   7.178  0.0357 -0.1814  0.1198
 1235loPI   C4B19432   6.231  12.444   7.386  0.0886  0.0373 -0.0474
 1236loPI    C119433  16.276  10.231   4.665  0.3111 -0.0372  0.0855
 1236loPI    C219434  16.469   9.895   4.565  0.1628 -0.0857 -0.0415
 1236loPI    C319435  16.072   9.918   4.523  0.1644  0.0840  0.0261
 1236loPI   PO419436  16.405  10.322   4.904 -0.1722 -0.0511  0.0752
 1236loPI   GL119437  16.427  10.300   5.302 -0.1900  0.1201 -0.0019
 1236loPI   GL219438  16.188  10.262   5.461  0.0499 -0.1312 -0.0266
 1236loPI   C1A19439  16.621  10.257   5.712 -0.1129  0.0844 -0.0908
 1236loPI   C2A19440  16.603  10.309   6.081  0.1951 -0.1161  0.0862
 1236loPI   C3A19441  16.677  10.370   6.559 -0.1928  0.3178 -0.0274
 1236loPI   C4A19442  16.652  10.258   6.994 -0.1576  0.1053  0.0465
 1236loPI   C5A19443  16.550  10.283   7.407  0.0708  0.2956 -0.0963
 1236loPI   C6A19444  16.585  10.369   7.793  0.2215  0.1906 -0.3233
 1236loPI   C1B19445  16.160  10.074   5.740  0.0253  0.0748  0.0199
 1236loPI   C2B19446  16.138  10.196   6.238  0.1171  0.0447 -0.2236
 1236loPI   C3B19447  16.213  10.141   6.708  0.4330 -0.1427  0.1280
 1236loPI   C4B19448  16.149  10.145   7.077  0.0587 -0.2672  0.0514
 1237loPI    C119449  16.330  14.334   5.023  0.1352 -0.1343 -0.0296
 1237loPI    C219450  16.295  14.412   4.632 -0.0829 -0.1273 -0.0100
 1237loPI    C319451  16.027  14.560   4.890  0.0459 -0.1526  0.1398
 1237loPI   PO419452  16.414  14.030   5.111 -0.1481 -0.0256 -0.3190
 1237loPI   GL119453  16.604  14.031   5.527 -0.1242 -0.1413 -0.0370
 1237loPI   GL219454  16.685  14.345   5.385  0.0420  0.1123  0.1586
 1237loPI   C1A19455  16.492  14.065   5.916  0.1291 -0.3114 -0.0160
 1237loPI   C2A19456  16.478  14.067   6.274 -0.0415  0.0900  0.1404
 1237loPI   C3A19457  16.413  13.989   6.710  0.1102 -0.0687  0.0304
 1237loPI   C4A19458  16.487  14.022   7.093  0.0311 -0.1548 -0.0765
 1237loPI   C5A19459  16.489  14.128   7.479 -0.1130  0.0235  0.3647
 1237loPI   C6A19460  16.654  14.280   7.766  0.1836  0.0301  0.0329
 1237loPI   C1B19461  16.504  14.510   5.744 -0.2101  0.0610 -0.1417
 1237loPI   C2B19462  16.625  14.591   6.227 -0.0792 -0.0097  0.0677
 1237loPI   C3B19463  16.481  14.561   6.699  0.1973  0.1933 -0.0692
 1237loPI   C4B19464  16.532  14.570   7.174 -0.0487 -0.1814  0.1067
 1238loPI    C119465   0.882  15.297   5.130 -0.0511  0.2225  0.0342
 1238loPI    C219466   0.835  15.615   4.892  0.0477  0.1744 -0.0507
 1238loPI    C319467   0.631  15.279   4.818 -0.0446  0.2120  0.0296
 1238loPI   PO419468   0.783  15.352   5.361 -0.0217  0.1608 -0.1205
 1238loPI   GL119469   0.506  15.172   5.681 -0.1239 -0.3230  0.2284
 1238loPI   GL219470   0.449  15.345   5.920 -0.1922 -0.1100 -0.1181
 1238loPI   C1A19471   0.842  14.993   5.944  0.0933 -0.2005  0.0648
 1238loPI   C2A19472   0.972  15.045   6.378 -0.0564  0.1141 -0.2541
 1238loPI   C3A19473   0.963  15.004   6.852 -0.0577  0.1809 -0.2689
 1238loPI   C4A19474   1.034  14.948   7.319  0.1075 -0.1603 -0.1765
 1238loPI   C5A19475   1.245  15.140   7.735  0.0056 -0.1245  0.0557
 1238loPI   C6A19476   1.286  15.505   7.946  0.0050  0.0215  0.2398
 1238loPI   C1B19477   0.649  15.455   6.286  0.2530 -0.0343 -0.1227
 1238loPI   C2B19478   0.940  15.560   6.674 -0.2005 -0.1372 -0.0355
 1238loPI   C3B19479   1.081  15.438   7.090  0.1355 -0.1282 -0.0633
 1238loPI   C4B19480   1.043  15.468   7.450 -0.1664 -0.0816  0.1993
 1239loPI    C119481   5.529  10.434   5.150 -0.2285  0.0769  0.1094
 1239loPI    C219482   5.347  10.661   4.876 -0.0630  0.0797  0.0003
 1239loPI    C319483   5.503  10.308   4.771 -0.1567 -0.0013  0.1300
 1239loPI   PO419484   5.363  10.486   5.373  0.0095  0.1666 -0.0136
 1239loPI   GL119485   5.072  10.441   5.612 -0.2353 -0.1679  0.1837
 1239loPI   GL219486   4.896  10.113   5.509  0.1737 -0.2247  0.1572
 1239loPI   C1A19487   5.204  10.426   6.077  0.0072 -0.2549  0.2005
 1239loPI   C2A19488   5.120  10.649   6.527 -0.2319  0.0222 -0.1791
 1239loPI   C3A19489   5.110  10.936   6.871  0.1976  0.3203 -0.1049
 1239loPI   C4A19490   4.875  10.897   7.202  0.2251  0.0984  0.0481
 1239loPI   C5A19491   4.758  10.677   7.483  0.1373 -0.1601 -0.0815
 1239loPI   C6A19492   4.735  10.185   7.500  0.0298  0.0450  0.0969
 1239loPI   C1B19493   4.987   9.997   5.864 -0.0728  0.2139  0.0158
 1239loPI   C2B19494   4.929  10.048   6.286  0.1603 -0.2207 -0.1847
 1239loPI   C3B19495   4.817  10.152   6.687  0.0128 -0.0694 -0.0630
 1239loPI   C4B19496   4.618  10.422   7.024  0.0760 -0.0179 -0.0956
 1240loPI    C119497   1.285   9.435   5.003 -0.0009  0.2841  0.0582
 1240loPI    C219498   1.075   9.277   5.305  0.1612 -0.0323  0.0108
 1240loPI    C319499   0.943   9.241   4.929  0.0640  0.1824  0.0224
 1240loPI   PO419500   1.512   9.580   5.186 -0.0216  0.1045 -0.1973
 1240loPI   GL119501   1.485   9.559   5.534  0.1013  0.1584  0.3410
 1240loPI   GL219502   1.346   9.432   5.704 -0.3002  0.2659 -0.0314
 1240loPI   C1A19503   1.567   9.842   5.821 -0.0007  0.1153 -0.0412
 1240loPI   C2A19504   1.396   9.930   6.333 -0.1020  0.0333 -0.1940
 1240loPI   C3A19505   1.302   9.968   6.807  0.0611 -0.1472 -0.1508
 1240loPI   C4A19506   1.234   9.997   7.282 -0.5506  0.2863  0.2399
 1240loPI   C5A19507   1.222   9.904   7.694 -0.0048  0.0844  0.2292
 1240loPI   C6A19508   1.339   9.490   7.871 -0.1172 -0.3544 -0.0016
 1240loPI   C1B19509   1.250   9.491   6.176 -0.0136  0.3016  0.1729
 1240loPI   C2B19510   1.157   9.480   6.611 -0.1916  0.1423 -0.3506
 1240loPI   C3B19511   1.193   9.486   6.992 -0.0536 -0.1116 -0.0712
 1240loPI   C4B19512   1.173   9.510   7.378  0.1988 -0.2862  0.0705
 1241loPI    C119513   4.848  11.597   5.150 -0.1214  0.1338 -0.1449
 1241loPI    C219514   4.988  11.494   4.790 -0.2486 -0.0095 -0.1543
 1241loPI    C319515   4.812  11.849   4.842 -0.0009  0.1185 -0.1724
 1241loPI   PO419516   4.808  11.394   5.293 -0.0415  0.0461 -0.4446
 1241loPI   GL119517   4.657  11.423   5.601 -0.0145  0.4899  0.0036
 1241loPI   GL219518   4.609  11.593   5.867 -0.2459  0.1569  0.0030
 1241loPI   C1A19519   4.681  11.155   6.054 -0.0529 -0.0690  0.1767
 1241loPI   C2A19520   4.407  11.123   6.390  0.1357 -0.3119  0.3950
 1241loPI   C3A19521   4.185  10.769   6.599  0.2829  0.0092 -0.0802
 1241loPI   C4A19522   3.895  10.758   6.974  0.3836  0.1003  0.4335
 1241loPI   C5A19523   3.804  10.764   7.374 -0.3258 -0.0063 -0.2289
 1241loPI   C6A19524   3.555  10.743   7.744  0.0203 -0.0277 -0.3354
 1241loPI   C1B19525   4.673  11.620   6.344 -0.3701 -0.3421 -0.1327
 1241loPI   C2B19526   4.398  11.532   6.718 -0.0474 -0.1381  0.0599
 1241loPI   C3B19527   4.324  11.550   7.116  0.4397 -0.0038 -0.3645
 1241loPI   C4B19528   4.368  11.631   7.633 -0.2526 -0.0702  0.5323
 1242loPI    C119529  11.010   8.714   4.986 -0.2320  0.0140  0.0518
 1242loPI    C219530  11.214   8.980   4.768  0.3473 -0.1888  0.3243
 1242loPI    C319531  11.025   8.677   4.588 -0.1106  0.2515  0.0324
 1242loPI   PO419532  11.091   8.714   5.169 -0.0295  0.2184 -0.1803
 1242loPI   GL119533  11.340   9.036   5.574 -0.1928 -0.2115 -0.0397
 1242loPI   GL219534  11.549   9.176   5.665  0.2215 -0.3700 -0.1709
 1242loPI   C1A19535  11.288   9.191   6.067 -0.0118 -0.3229  0.1478
 1242loPI   C2A19536  11.262   9.126   6.542  0.1565 -0.2490 -0.2307
 1242loPI   C3A19537  11.339   9.001   6.848 -0.2504 -0.2198  0.0459
 1242loPI   C4A19538  11.371   9.031   7.274  0.1048  0.0672 -0.0947
 1242loPI   C5A19539  11.258   9.245   7.647 -0.0333  0.0634 -0.1016
 1242loPI   C6A19540  11.013   9.172   7.934  0.2337  0.0226 -0.0866
 1242loPI   C1B19541  11.648   8.797   5.917 -0.2141 -0.2148 -0.0798
 1242loPI   C2B19542  12.030   8.775   6.113  0.0302 -0.0279  0.0149
 1242loPI   C3B19543  12.138   8.884   6.565  0.2787  0.2625  0.1509
 1242loPI   C4B19544  12.171   8.819   6.988 -0.0634  0.0334 -0.0996
 1243loPI    C119545   7.258   6.401   4.749  0.1142 -0.1144  0.1358
 1243loPI    C219546   7.532   6.112   4.785  0.0485 -0.1854  0.0687
 1243loPI    C319547   7.276   6.108   4.477  0.0805 -0.0277  0.0394
 1243loPI   PO419548   7.207   6.482   4.986 -0.2106  0.0378  0.0795
 1243loPI   GL119549   7.043   6.622   5.396 -0.0402 -0.1414 -0.3733
 1243loPI   GL219550   7.014   6.230   5.335 -0.2847 -0.0710 -0.0395
 1243loPI   C1A19551   6.982   6.536   5.814 -0.1890  0.1877 -0.0439
 1243loPI   C2A19552   7.017   6.497   6.304  0.0913 -0.1548  0.0331
 1243loPI   C3A19553   7.152   6.412   6.733  0.0658  0.1288  0.0166
 1243loPI   C4A19554   7.076   6.139   7.156  0.0918 -0.0496 -0.1341
 1243loPI   C5A19555   6.893   6.051   7.589 -0.0840  0.4804 -0.1941
 1243loPI   C6A19556   6.989   5.629   7.738  0.0269 -0.0864  0.1548
 1243loPI   C1B19557   7.257   6.179   5.724 -0.3008 -0.3674  0.0676
 1243loPI   C2B19558   7.344   6.018   5.983 -0.1280  0.1186  0.2214
 1243loPI   C3B19559   7.332   6.049   6.423  0.0996  0.3249  0.0057
 1243loPI   C4B19560   7.607   6.102   6.818 -0.0549  0.0140 -0.1089
 1244loPI    C119561  10.399   8.728   5.182 -0.1888 -0.0071 -0.0804
 1244loPI    C219562  10.587   8.544   4.881 -0.2176  0.0425 -0.1288
 1244loPI    C319563  10.287   8.798   4.804 -0.1713  0.1173 -0.0628
 1244loPI   PO419564  10.545   8.802   5.337 -0.1678 -0.3912 -0.1638
 1244loPI   GL119565  10.827   8.811   5.580 -0.4151 -0.2441  0.1274
 1244loPI   GL219566  10.815   9.103   5.724 -0.0276 -0.0897  0.0442
 1244loPI   C1A19567  11.077   8.744   5.908  0.0294 -0.2199  0.1736
 1244loPI   C2A19568  11.191   8.672   6.346 -0.2097  0.2249 -0.3461
 1244loPI   C3A19569  11.179   8.564   6.740 -0.2287  0.0854  0.0598
 1244loPI   C4A19570  11.216   8.495   7.139 -0.1416 -0.2461  0.0197
 1244loPI   C5A19571  11.247   8.629   7.606  0.1517 -0.1867  0.1858
 1244loPI   C6A19572  11.492   8.895   7.913  0.0970  0.2334 -0.1340
 1244loPI   C1B19573  10.828   9.071   6.155 -0.1063  0.0136  0.1470
 1244loPI   C2B19574  10.753   9.023   6.558  0.2564  0.0401  0.1441
 1244loPI   C3B19575  10.847   8.886   6.989 -0.1621  0.1792  0.5177
 1244loPI   C4B19576  10.830   8.879   7.430 -0.0415 -0.2334 -0.0976
 1245loPI    C119577   6.481   6.131   4.795  0.1769  0.0180  0.0568
 1245loPI    C219578   6.800   6.262   4.593  0.1463  0.2292  0.1434
 1245loPI    C319579   6.437   6.408   4.510  0.0504 -0.1067 -0.0463
 1245loPI   PO419580   6.642   6.041   5.067 -0.0133  0.2780 -0.0679
 1245loPI   GL119581   6.479   6.343   5.423  0.1629  0.0973 -0.2269
 1245loPI   GL219582   6.526   6.704   5.487 -0.2194  0.3564  0.0311
 1245loPI   C1A19583   6.475   6.400   5.920  0.0028  0.3012  0.1049
 1245loPI   C2A19584   6.501   6.509   6.357  0.0007  0.1792 -0.1255
 1245loPI   C3A19585   6.270   6.499   6.820 -0.0338 -0.1230 -0.0305
 1245loPI   C4A19586   6.284   6.546   7.305 -0.3344 -0.1445  0.1139
 1245loPI   C5A19587   6.606   6.736   7.669 -0.0626  0.1767  0.0836
 1245loPI   C6A19588   6.977   6.944   7.758  0.0024  0.3463 -0.3677
 1245loPI   C1B19589   6.630   6.887   5.966  0.0790  0.2119  0.0677
 1245loPI   C2B19590   6.610   6.994   6.359 -0.2894  0.4207  0.1427
 1245loPI   C3B19591   6.732   6.689   6.781  0.0256 -0.0483 -0.0418
 1245loPI   C4B19592   6.852   6.576   7.203 -0.0431  0.0277  0.2010
 1246loPI    C119593   3.048  15.823   5.113 -0.1254  0.1781  0.1752
 1246loPI    C219594   3.122  15.903   4.728  0.1042 -0.2130  0.1319
 1246loPI    C319595   2.759  15.777   4.840 -0.0471  0.1733  0.0925
 1246loPI   PO419596   3.220  15.977   5.353  0.1770  0.1097 -0.0726
 1246loPI   GL119597   3.065  16.037   5.783  0.1841  0.0132 -0.2161
 1246loPI   GL219598   2.684  16.260   5.756  0.4078  0.1904  0.0652
 1246loPI   C1A19599   3.025  16.139   6.184  0.0114 -0.2211 -0.1957
 1246loPI   C2A19600   2.951  16.119   6.582 -0.0911  0.1981  0.0164
 1246loPI   C3A19601   2.928  15.893   7.018 -0.3317  0.0459  0.3989
 1246loPI   C4A19602   2.721  15.720   7.390  0.0407 -0.0951 -0.2851
 1246loPI   C5A19603   2.876  15.873   7.812  0.0578  0.1508  0.3988
 1246loPI   C6A19604   2.955  16.052   8.191  0.0918  0.0529  0.0173
 1246loPI   C1B19605   2.557  16.294   6.271 -0.0913 -0.4428  0.0406
 1246loPI   C2B19606   2.518  16.167   6.806 -0.0264  0.0199  0.0427
 1246loPI   C3B19607   2.539  16.132   7.195  0.2444  0.1655 -0.4167
 1246loPI   C4B19608   2.658  16.214   7.548  0.0358 -0.1028 -0.3853
 1247loPI    C119609  18.254   2.350   5.095 -0.1483  0.0503  0.0539
 1247loPI    C219610  18.416   2.626   4.856 -0.1156  0.0602  0.0874
 1247loPI    C319611  18.409   2.243   4.742 -0.3590  0.1050 -0.0568
 1247loPI   PO419612  18.316   2.380   5.305  0.0400  0.3233  0.3387
 1247loPI   GL119613  18.327   2.154   5.695 -0.0772 -0.2480  0.0192
 1247loPI   GL219614  18.539   2.517   5.730  0.0671 -0.1904 -0.3599
 1247loPI   C1A19615  18.116   2.352   5.964 -0.1165 -0.0524 -0.1234
 1247loPI   C2A19616  18.126   2.306   6.395 -0.0959  0.1354 -0.2296
 1247loPI   C3A19617  18.164   2.344   6.776  0.0493  0.1248 -0.2542
 1247loPI   C4A19618  18.208   2.363   7.242  0.0462  0.0817 -0.0653
 1247loPI   C5A19619  18.355   2.312   7.697 -0.1338  0.1444 -0.0571
 1247loPI   C6A19620  18.299   2.364   8.191  0.0068  0.1233 -0.0742
 1247loPI   C1B19621  18.534   2.530   6.176 -0.0315  0.1312 -0.3318
 1247loPI   C2B19622  18.605   2.508   6.546 -0.0601 -0.0374  0.0274
 1247loPI   C3B19623  18.674   2.425   6.954 -0.2631  0.1249  0.0807
 1247loPI   C4B19624  18.782   2.417   7.441 -0.3553 -0.1276  0.2014
 1248loPI    C119625   9.562  11.034   4.900  0.0818  0.0458  0.2252
 1248loPI    C219626   9.365  11.353   4.759 -0.2129 -0.1572  0.1682
 1248loPI    C319627   9.388  11.019   4.540  0.0581 -0.1920  0.2453
 1248loPI   PO419628   9.529  11.027   5.128 -0.0037 -0.1360 -0.0345
 1248loPI   GL119629   9.507  10.921   5.560  0.2087 -0.3237  0.1381
 1248loPI   GL219630   9.485  10.582   5.686 -0.2182  0.2359  0.0407
 1248loPI   C1A19631   9.458  10.906   6.018 -0.2019 -0.0573 -0.1867
 1248loPI   C2A19632   9.513  11.016   6.415 -0.2105  0.0104 -0.0758
 1248loPI   C3A19633   9.339  10.821   6.766  0.2137 -0.1377  0.0171
 1248loPI   C4A19634   9.365  10.635   7.139  0.0966  0.2668  0.0016
 1248loPI   C5A19635   9.588  10.587   7.477  0.1277 -0.0067  0.1361
 1248loPI   C6A19636   9.813  10.830   7.759 -0.0033 -0.0011 -0.3099
 1248loPI   C1B19637   9.658  10.475   6.088  0.1885  0.1137 -0.2789
 1248loPI   C2B19638   9.695  10.469   6.559  0.1615  0.1583 -0.2291
 1248loPI   C3B19639   9.812  10.622   6.863  0.0645  0.2390 -0.0647
 1248loPI   C4B19640  10.030  10.812   7.263 -0.0589  0.3288 -0.2407
 1249loPI    C119641   3.823   7.687   4.697 -0.0168 -0.0046  0.1135
 1249loPI    C219642   4.205   7.804   4.701 -0.0917  0.2461  0.1435
 1249loPI    C319643   3.917   8.067   4.614 -0.2539  0.0449  0.0637
 1249loPI   PO419644   3.831   7.566   4.972  0.2093 -0.0740 -0.3634
 1249loPI   GL119645   3.789   7.467   5.438  0.0731 -0.2355  0.2787
 1249loPI   GL219646   4.106   7.576   5.466  0.0228 -0.0660 -0.0419
 1249loPI   C1A19647   3.660   7.663   5.891 -0.0250 -0.0894 -0.1466
 1249loPI   C2A19648   3.754   7.527   6.436 -0.2497 -0.0357 -0.1408
 1249loPI   C3A19649   3.796   7.500   6.932  0.0085  0.0674 -0.2805
 1249loPI   C4A19650   3.556   7.637   7.347 -0.0725 -0.2069 -0.1723
 1249loPI   C5A19651   3.578   7.602   7.763 -0.0611 -0.0885  0.1093
 1249loPI   C6A19652   3.881   7.786   8.039 -0.2171  0.2119 -0.1426
 1249loPI   C1B19653   4.223   7.623   5.866 -0.0511  0.0336  0.0475
 1249loPI   C2B19654   4.468   7.568   6.284  0.0663 -0.0038  0.1135
 1249loPI   C3B19655   4.369   7.600   6.677 -0.0312  0.2402  0.0995
 1249loPI   C4B19656   4.368   7.596   7.087 -0.1977 -0.1718 -0.0430
 1250loPI    C119657   9.421  12.019   5.019 -0.0730 -0.0954  0.1614
 1250loPI    C219658   9.715  12.113   4.766 -0.0983  0.0016  0.1677
 1250loPI    C319659   9.456  11.823   4.672 -0.1304  0.0627  0.0653
 1250loPI   PO419660   9.480  11.949   5.206  0.1729 -0.4127 -0.0306
 1250loPI   GL119661   9.603  11.900   5.530  0.2300 -0.0096  0.1743
 1250loPI   GL219662   9.906  11.752   5.529  0.2312  0.3690 -0.2484
 1250loPI   C1A19663   9.440  12.061   6.049 -0.1205  0.1751  0.3697
 1250loPI   C2A19664   9.564  12.154   6.487 -0.0067  0.0200 -0.0653
 1250loPI   C3A19665   9.776  12.315   6.844 -0.1521 -0.0691 -0.0940
 1250loPI   C4A19666   9.972  11.909   7.074  0.0629  0.0195  0.0850
 1250loPI   C5A19667  10.109  11.714   7.479  0.1825  0.3084  0.2534
 1250loPI   C6A19668  10.205  11.249   7.595 -0.4066 -0.1422 -0.0911
 1250loPI   C1B19669   9.849  11.769   6.093  0.0003 -0.0851  0.1938
 1250loPI   C2B19670   9.982  11.929   6.500 -0.4610  0.2967  0.2438
 1250loPI   C3B19671  10.312  12.117   6.760  0.1525  0.0708  0.4447
 1250loPI   C4B19672  10.465  12.027   7.137 -0.0956  0.1482 -0.2589
 1251loPI    C119673   2.779  13.306   5.032  0.0106  0.1115  0.1848
 1251loPI    C219674   3.050  13.491   4.804 -0.3668  0.1388 -0.2567
 1251loPI    C319675   2.966  13.106   4.740 -0.2725  0.0682  0.0298
 1251loPI   PO419676   2.852  13.450   5.261  0.2124  0.0043  0.1057
 1251loPI   GL119677   2.998  13.226   5.674  0.2058  0.1058 -0.1321
 1251loPI   GL219678   3.261  13.256   5.749  0.0308 -0.1540 -0.0571
 1251loPI   C1A19679   2.759  13.448   6.049 -0.0818  0.1497  0.4076
 1251loPI   C2A19680   2.645  13.489   6.487 -0.0027 -0.0400 -0.2721
 1251loPI   C3A19681   2.461  13.753   6.837 -0.1672  0.0911 -0.0720
 1251loPI   C4A19682   2.467  13.653   7.220  0.1076 -0.0272 -0.2419
 1251loPI   C5A19683   2.501  13.731   7.650 -0.0589  0.0621  0.2676
 1251loPI   C6A19684   2.440  13.894   8.129  0.0802  0.1782  0.3008
 1251loPI   C1B19685   3.192  13.278   6.157  0.3938  0.2943  0.1559
 1251loPI   C2B19686   3.150  13.473   6.522 -0.3459 -0.2385 -0.3325
 1251loPI   C3B19687   3.051  13.304   6.783 -0.1577  0.1967 -0.1855
 1251loPI   C4B19688   2.910  13.398   7.223  0.2239 -0.0409  0.1066
 1252loPI    C119689   7.899   7.361   5.442  0.0999  0.0106  0.0948
 1252loPI    C219690   8.115   7.226   5.133 -0.1129 -0.2577  0.0597
 1252loPI    C319691   7.941   7.586   5.113 -0.0271 -0.2235 -0.0843
 1252loPI   PO419692   7.760   7.179   5.503  0.2294 -0.1927  0.1750
 1252loPI   GL119693   7.831   7.296   5.967  0.0622  0.0856 -0.1025
 1252loPI   GL219694   8.073   7.465   5.916  0.2063 -0.0086 -0.0702
 1252loPI   C1A19695   7.585   7.330   6.236 -0.1075 -0.2953 -0.1567
 1252loPI   C2A19696   7.664   7.222   6.603 -0.0214 -0.1288 -0.1964
 1252loPI   C3A19697   7.682   7.133   6.975 -0.0432 -0.0689 -0.0711
 1252loPI   C4A19698   7.678   7.285   7.345  0.3286 -0.0834  0.1866
 1252loPI   C5A19699   7.534   7.690   7.729 -0.1024  0.0736  0.0048
 1252loPI   C6A19700   7.793   7.948   7.974  0.1192 -0.0503 -0.2700
 1252loPI   C1B19701   8.164   7.459   6.313 -0.0193 -0.2346  0.0271
 1252loPI   C2B19702   8.185   7.498   6.707  0.0581 -0.0868 -0.0369
 1252loPI   C3B19703   7.854   7.631   6.999  0.0631  0.0139  0.0726
 1252loPI   C4B19704   7.703   7.884   7.302  0.2538  0.1205 -0.3110
 1253loPI    C119705   2.615   4.695   5.341 -0.1095  0.2047 -0.1388
 1253loPI    C219706   2.925   4.765   5.098  0.0519  0.0807  0.0280
 1253loPI    C319707   2.639   4.507   4.989 -0.1756  0.4499 -0.2770
 1253loPI   PO419708   2.621   4.527   5.552  0.1451  0.0464  0.2334
 1253loPI   GL119709   2.524   4.211   5.764 -0.1828  0.0462 -0.0665
 1253loPI   GL219710   2.410   4.008   5.786 -0.1414  0.0794  0.3903
 1253loPI   C1A19711   2.726   4.291   6.141 -0.0472  0.0034  0.2094
 1253loPI   C2A19712   2.555   4.529   6.579  0.3143  0.2242  0.2330
 1253loPI   C3A19713   2.488   4.751   6.938  0.0371  0.2094 -0.0207
 1253loPI   C4A19714   2.526   4.999   7.404 -0.1957 -0.0133 -0.0998
 1253loPI   C5A19715   2.765   4.834   7.778  0.0508  0.0978  0.2905
 1253loPI   C6A19716   2.765   4.915   8.158 -0.4622 -0.2371  0.0607
 1253loPI   C1B19717   2.432   3.855   6.235 -0.2166  0.2340  0.1700
 1253loPI   C2B19718   2.498   3.981   6.662  0.3346  0.0713  0.0632
 1253loPI   C3B19719   2.532   4.237   7.069  0.4210  0.1977 -0.1510
 1253loPI   C4B19720   2.559   4.527   7.345  0.4614 -0.1142  0.1576
 1254loPI    C119721   7.341   5.440   5.264  0.2129  0.1789  0.1606
 1254loPI    C219722   7.368   5.412   5.663 -0.1157 -0.1543  0.1650
 1254loPI    C319723   7.463   5.098   5.433  0.3009  0.1105 -0.0380
 1254loPI   PO419724   7.515   5.753   5.278 -0.2041 -0.1808 -0.1272
 1254loPI   GL119725   7.723   5.909   5.534 -0.0254  0.2262  0.2281
 1254loPI   GL219726   7.784   5.738   5.787  0.2570 -0.1170 -0.0822
 1254loPI   C1A19727   7.745   6.247   5.823 -0.1111 -0.0201  0.1232
 1254loPI   C2A19728   7.615   6.443   6.187  0.0600 -0.1391 -0.1906
 1254loPI   C3A19729   7.591   6.720   6.525 -0.2311 -0.3247  0.0584
 1254loPI   C4A19730   7.523   6.679   6.990 -0.0234  0.1197 -0.0354
 1254loPI   C5A19731   7.398   6.464   7.293 -0.0284  0.4699  0.2773
 1254loPI   C6A19732   7.172   6.559   7.570 -0.2736 -0.1905 -0.1684
 1254loPI   C1B19733   7.875   5.959   6.147  0.0286  0.4282  0.1433
 1254loPI   C2B19734   8.239   5.946   6.460  0.2337 -0.0120  0.1179
 1254loPI   C3B19735   8.188   5.992   6.906  0.1993 -0.2289 -0.0275
 1254loPI   C4B19736   7.897   6.037   7.293  0.0048 -0.0856  0.2963
 1255loPI    C119737  13.581   4.929   4.912  0.1140 -0.1352  0.0896
 1255loPI    C219738  13.479   5.230   4.670 -0.0107 -0.2827 -0.0442
 1255loPI    C319739  13.841   5.062   4.639  0.1404 -0.0088  0.1753
 1255loPI   PO419740  13.478   4.991   5.155  0.0295  0.1436 -0.1729
 1255loPI   GL119741  13.650   4.823   5.580  0.1349  0.1844 -0.0909
 1255loPI   GL219742  13.928   4.978   5.443  0.1252 -0.0956  0.0271
 1255loPI   C1A19743  13.852   4.788   6.007 -0.1626 -0.0663  0.0917
 1255loPI   C2A19744  14.064   4.822   6.372  0.0065 -0.0681  0.2592
 1255loPI   C3A19745  14.128   4.911   6.815  0.0133  0.0659  0.1475
 1255loPI   C4A19746  14.188   4.853   7.117  0.0723 -0.4488  0.1287
 1255loPI   C5A19747  14.138   4.810   7.519  0.3279 -0.0889 -0.1478
 1255loPI   C6A19748  13.840   5.059   7.750  0.0300  0.2853 -0.2481
 1255loPI   C1B19749  14.056   5.253   5.724 -0.1927 -0.0134 -0.1029
 1255loPI   C2B19750  14.141   5.390   6.251  0.2485  0.0298  0.3701
 1255loPI   C3B19751  14.154   5.346   6.570  0.0386 -0.2610 -0.1259
 1255loPI   C4B19752  14.269   5.358   7.006  0.0858 -0.0347  0.0287
 1256loPI    C119753   3.940   0.060   5.160  0.1309 -0.2808  0.2404
 1256loPI    C219754   4.220  -0.113   4.932 -0.0299  0.0466 -0.2209
 1256loPI    C319755   3.838  -0.227   4.900 -0.0488  0.0711 -0.0880
 1256loPI   PO419756   4.082   0.225   5.310  0.2482  0.1359 -0.0164
 1256loPI   GL119757   4.324   0.070   5.666 -0.1528 -0.0809  0.0150
 1256loPI   GL219758   4.103  -0.033   5.823  0.1667  0.3180  0.0700
 1256loPI   C1A19759   4.475   0.448   5.917  0.1992 -0.0168 -0.0225
 1256loPI   C2A19760   4.407   0.496   6.400  0.0558 -0.2309 -0.0900
 1256loPI   C3A19761   4.552   0.468   6.851  0.3442  0.0461  0.3882
 1256loPI   C4A19762   4.580   0.406   7.230 -0.2667 -0.4260  0.0780
 1256loPI   C5A19763   4.606   0.396   7.694  0.0445  0.1102  0.1560
 1256loPI   C6A19764   4.555   0.649   8.099  0.0010 -0.0169 -0.0576
 1256loPI   C1B19765   4.391  -0.032   6.186 -0.0532  0.1949 -0.0154
 1256loPI   C2B19766   4.478  -0.052   6.633 -0.1726 -0.3174  0.0139
 1256loPI   C3B19767   4.526  -0.138   7.095  0.0079  0.1013 -0.0567
 1256loPI   C4B19768   4.524  -0.100   7.477  0.0778  0.0318 -0.1464
 1257loPI    C119769   3.586  11.800   4.989 -0.2109  0.2219 -0.0166
 1257loPI    C219770   3.610  11.504   4.722 -0.0810 -0.0281  0.2658
 1257loPI    C319771   3.328  11.785   4.685 -0.0579 -0.0523 -0.1366
 1257loPI   PO419772   3.515  11.663   5.214  0.3362 -0.0384 -0.0672
 1257loPI   GL119773   3.378  11.741   5.621 -0.0587  0.1335 -0.1513
 1257loPI   GL219774   3.081  11.728   5.426  0.3698 -0.1055  0.3431
 1257loPI   C1A19775   3.101  11.481   5.891 -0.0102 -0.0359  0.4506
 1257loPI   C2A19776   3.061  11.413   6.284  0.0363 -0.0240 -0.1373
 1257loPI   C3A19777   3.079  11.361   6.753 -0.1294 -0.2058 -0.0781
 1257loPI   C4A19778   3.096  11.479   7.174  0.1099  0.0198 -0.0692
 1257loPI   C5A19779   3.162  12.006   7.342 -0.0624  0.0810  0.0572
 1257loPI   C6A19780   2.924  12.192   7.689 -0.0446  0.1473 -0.1415
 1257loPI   C1B19781   3.039  12.005   5.796 -0.0203  0.1910  0.0891
 1257loPI   C2B19782   2.931  11.976   6.192 -0.3108  0.0598 -0.0992
 1257loPI   C3B19783   2.626  11.898   6.657 -0.3288 -0.1791  0.0145
 1257loPI   C4B19784   2.628  11.792   7.112 -0.0398 -0.1443 -0.0776
 1258loPI    C119785  13.508   8.775   5.014  0.1805 -0.0169  0.0322
 1258loPI    C219786  13.412   8.472   5.256 -0.1707  0.0816  0.0220
 1258loPI    C319787  13.461   8.407   4.864 -0.0855  0.0103  0.0440
 1258loPI   PO419788  13.743   8.869   5.093 -0.1308 -0.2794  0.4793
 1258loPI   GL119789  13.841   8.618   5.428 -0.0873  0.1108 -0.2198
 1258loPI   GL219790  13.775   8.360   5.574 -0.0413  0.0504 -0.1205
 1258loPI   C1A19791  13.857   8.728   5.905 -0.0978  0.1282 -0.0844
 1258loPI   C2A19792  13.885   8.453   6.202  0.1211 -0.1677  0.2597
 1258loPI   C3A19793  13.984   8.543   6.611 -0.3074 -0.3674 -0.0726
 1258loPI   C4A19794  13.926   8.510   7.018 -0.2312 -0.0522 -0.0989
 1258loPI   C5A19795  13.832   8.564   7.454  0.2434  0.1144 -0.0428
 1258loPI   C6A19796  13.846   8.485   7.837 -0.1114  0.1039  0.3769
 1258loPI   C1B19797  13.752   8.128   5.896  0.2466  0.1388 -0.0767
 1258loPI   C2B19798  13.779   7.975   6.348 -0.2765 -0.1153 -0.2150
 1258loPI   C3B19799  13.839   8.026   6.792  0.1817  0.0142  0.0545
 1258loPI   C4B19800  13.824   8.090   7.224 -0.0072  0.0421  0.1065
 1259loPI    C119801   3.035   7.045   5.022 -0.0843  0.3121  0.1383
 1259loPI    C219802   2.699   6.882   4.880  0.1863 -0.0121 -0.1474
 1259loPI    C319803   2.832   7.229   4.731 -0.0297  0.1282 -0.0181
 1259loPI   PO419804   2.992   7.164   5.251  0.0308  0.1761 -0.1743
 1259loPI   GL119805   2.985   7.226   5.682  0.4493  0.0148  0.0947
 1259loPI   GL219806   2.631   7.458   5.626  0.2792  0.1493  0.2918
 1259loPI   C1A19807   2.843   7.312   6.112 -0.1812  0.1509 -0.2044
 1259loPI   C2A19808   2.770   7.490   6.456  0.2276  0.1557 -0.1099
 1259loPI   C3A19809   2.711   7.601   6.939 -0.1501  0.1338  0.0074
 1259loPI   C4A19810   2.785   7.682   7.265 -0.3931 -0.1041 -0.0974
 1259loPI   C5A19811   3.086   7.662   7.590 -0.3229 -0.1937 -0.0015
 1259loPI   C6A19812   3.103   7.452   7.967  0.3123 -0.2951 -0.0940
 1259loPI   C1B19813   2.606   7.731   5.882 -0.0369  0.1671 -0.0035
 1259loPI   C2B19814   2.457   7.953   6.306  0.1742 -0.1481  0.2645
 1259loPI   C3B19815   2.388   7.962   6.770 -0.0559  0.5019  0.0433
 1259loPI   C4B19816   2.405   7.963   7.206 -0.0134 -0.1747 -0.1292
 1260loPI    C119817  15.752  14.948   5.130  0.1052  0.0035 -0.0142
 1260loPI    C219818  16.125  15.091   5.146  0.0592  0.1508 -0.2239
 1260loPI    C319819  15.836  15.303   4.966 -0.1416  0.0701 -0.0020
 1260loPI   PO419820  15.658  14.912   5.333 -0.0870  0.2863 -0.0855
 1260loPI   GL119821  15.276  14.759   5.637 -0.0776 -0.0106 -0.0908
 1260loPI   GL219822  15.477  14.988   5.762  0.0354  0.3060  0.1991
 1260loPI   C1A19823  15.273  14.544   6.038  0.2259  0.2471 -0.1284
 1260loPI   C2A19824  15.312  14.583   6.448  0.1658 -0.1043  0.0055
 1260loPI   C3A19825  15.138  14.634   6.933 -0.0017 -0.0522 -0.0995
 1260loPI   C4A19826  15.167  14.570   7.391 -0.0919  0.0052 -0.2101
 1260loPI   C5A19827  15.273  14.849   7.849 -0.3450  0.3061 -0.3415
 1260loPI   C6A19828  15.259  14.658   8.226  0.4297  0.1510 -0.0607
 1260loPI   C1B19829  15.705  15.287   5.968 -0.1214  0.0263 -0.1940
 1260loPI   C2B19830  15.816  15.267   6.401 -0.1662  0.0163 -0.1228
 1260loPI   C3B19831  15.755  15.265   6.787 -0.0958  0.0872 -0.0411
 1260loPI   C4B19832  15.716  15.358   7.208 -0.0834 -0.0991 -0.1372
 1261loPI    C119833  10.771   4.783   5.261  0.1713 -0.0413 -0.0922
 1261loPI    C219834  10.892   4.991   4.941  0.0032  0.0750 -0.0811
 1261loPI    C319835  11.091   4.663   5.052  0.1377  0.1046 -0.2304
 1261loPI   PO419836  10.678   5.030   5.524 -0.0188  0.0286  0.3652
 1261loPI   GL119837  10.869   5.354   5.790  0.1220 -0.0691  0.3298
 1261loPI   GL219838  10.587   5.460   5.918  0.2834  0.1493 -0.1976
 1261loPI   C1A19839  10.963   5.276   6.217 -0.1724 -0.1067 -0.0488
 1261loPI   C2A19840  10.936   4.970   6.476  0.0499 -0.1400 -0.1472
 1261loPI   C3A19841  10.927   4.949   6.852 -0.3529  0.1304  0.0168
 1261loPI   C4A19842  10.937   5.230   7.169 -0.2280  0.1199 -0.1421
 1261loPI   C5A19843  10.973   5.297   7.578  0.0794 -0.0316  0.0812
 1261loPI   C6A19844  11.294   5.454   7.861 -0.0114  0.1375  0.0340
 1261loPI   C1B19845  10.658   5.710   6.229 -0.1529  0.1805 -0.0293
 1261loPI   C2B19846  10.663   5.911   6.660  0.1604  0.4104 -0.1462
 1261loPI   C3B19847  10.721   6.057   7.096 -0.1065 -0.1161 -0.2519
 1261loPI   C4B19848  10.658   6.077   7.500 -0.0384 -0.0322 -0.3371
 1262loPI    C119849   1.997  17.713   5.505  0.0554  0.2314  0.4464
 1262loPI    C219850   2.282  17.884   5.283  0.0922 -0.1109  0.2221
 1262loPI    C319851   1.898  17.930   5.184  0.1083 -0.2590  0.0873
 1262loPI   PO419852   2.032  17.762   5.710 -0.2213  0.2676  0.0675
 1262loPI   GL119853   2.283  17.624   6.164  0.5936 -0.0602  0.2576
 1262loPI   GL219854   2.429  17.359   6.084 -0.1814 -0.0342 -0.3452
 1262loPI   C1A19855   1.942  17.535   6.539 -0.0754 -0.1142  0.1135
 1262loPI   C2A19856   1.580  17.627   6.858  0.1287 -0.0975  0.2653
 1262loPI   C3A19857   1.559  17.769   7.328 -0.0592  0.0172 -0.1055
 1262loPI   C4A19858   1.402  17.710   7.654 -0.0039  0.2826  0.0866
 1262loPI   C5A19859   1.516  17.492   8.027  0.2478 -0.0971 -0.0224
 1262loPI   C6A19860   1.446  17.038   8.089 -0.0126  0.0752  0.1784
 1262loPI   C1B19861   2.542  17.350   6.559  0.0145 -0.1800 -0.2669
 1262loPI   C2B19862   2.399  17.434   6.976 -0.0175  0.2834 -0.2040
 1262loPI   C3B19863   2.014  17.488   7.084 -0.2814 -0.1810  0.0015
 1262loPI   C4B19864   1.920  17.464   7.504  0.0810  0.0804  0.1725
 1263loPI    C119865   8.253   3.790   5.066  0.2697 -0.0341  0.2550
 1263loPI    C219866   8.348   4.166   5.164 -0.2282  0.1198  0.1762
 1263loPI    C319867   8.489   4.005   4.826 -0.1567  0.2969  0.1209
 1263loPI   PO419868   8.266   3.611   5.275  0.0069  0.0106  0.1428
 1263loPI   GL119869   8.077   3.621   5.697  0.0639 -0.0522 -0.1327
 1263loPI   GL219870   8.007   3.375   5.758  0.1212 -0.2139 -0.1608
 1263loPI   C1A19871   8.417   3.777   6.049  0.0779 -0.3629 -0.0883
 1263loPI   C2A19872   8.441   3.948   6.477  0.0965  0.1123 -0.2838
 1263loPI   C3A19873   8.385   4.084   6.863  0.2844 -0.1495 -0.3473
 1263loPI   C4A19874   8.154   4.084   7.240  0.0150  0.0846  0.0168
 1263loPI   C5A19875   8.371   3.887   7.689  0.2744  0.0734  0.1061
 1263loPI   C6A19876   8.567   3.895   8.100  0.0428 -0.1072  0.2187
 1263loPI   C1B19877   7.842   3.443   6.127 -0.2849 -0.1691  0.0358
 1263loPI   C2B19878   7.655   3.346   6.340 -0.1031 -0.1348 -0.0257
 1263loPI   C3B19879   7.735   3.211   6.634 -0.1494  0.1447  0.3394
 1263loPI   C4B19880   7.833   2.936   6.904  0.0991 -0.2058  0.1254
 1264loPI    C119881   9.057  11.137   5.112 -0.1012  0.0899  0.1562
 1264loPI    C219882   8.981  10.849   4.844  0.0360  0.0925  0.1135
 1264loPI    C319883   8.839  11.219   4.787 -0.0088  0.0715  0.0890
 1264loPI   PO419884   8.998  11.060   5.426  0.4665  0.1271 -0.0681
 1264loPI   GL119885   9.189  11.291   5.756  0.6693 -0.3630 -0.3032
 1264loPI   GL219886   8.948  11.497   5.658  0.3166  0.1153  0.1684
 1264loPI   C1A19887   9.428  11.469   6.068 -0.3847 -0.0188 -0.0067
 1264loPI   C2A19888   9.525  11.569   6.450  0.1389  0.0585 -0.3012
 1264loPI   C3A19889   9.528  11.791   6.820  0.2831  0.2665  0.1483
 1264loPI   C4A19890   9.410  11.999   7.124 -0.0306 -0.0303 -0.0095
 1264loPI   C5A19891   9.116  12.076   7.474 -0.0397 -0.1230 -0.0920
 1264loPI   C6A19892   8.893  12.416   7.751 -0.1870 -0.3839 -0.0802
 1264loPI   C1B19893   8.995  11.712   6.071  0.1255  0.2776  0.3439
 1264loPI   C2B19894   9.073  11.784   6.404  0.2583  0.0203  0.1157
 1264loPI   C3B19895   9.008  11.734   6.853 -0.1820  0.0352  0.0101
 1264loPI   C4B19896   9.093  11.602   7.182 -0.0289  0.1732  0.0422
 1265loPI    C119897   6.124  17.663   5.162  0.0552 -0.0669 -0.1559
 1265loPI    C219898   6.454  17.459   5.066 -0.0323 -0.1617 -0.2586
 1265loPI    C319899   6.116  17.399   4.862 -0.1151 -0.0698 -0.1498
 1265loPI   PO419900   6.126  17.567   5.521  0.2318 -0.2078 -0.0074
 1265loPI   GL119901   6.157  17.181   5.766  0.2081 -0.0983 -0.1508
 1265loPI   GL219902   6.361  17.426   5.993  0.0032  0.0498  0.2136
 1265loPI   C1A19903   6.060  17.145   6.186  0.1827  0.0012  0.0858
 1265loPI   C2A19904   6.094  17.098   6.613  0.0769 -0.1980 -0.0980
 1265loPI   C3A19905   6.140  17.062   6.976  0.2138 -0.1634 -0.0703
 1265loPI   C4A19906   6.210  17.098   7.473 -0.0538  0.0545  0.0390
 1265loPI   C5A19907   6.335  17.315   7.807  0.1572 -0.3338 -0.0947
 1265loPI   C6A19908   6.229  17.747   8.046 -0.1289  0.0650  0.0362
 1265loPI   C1B19909   6.556  17.826   6.208 -0.1020 -0.1560 -0.2536
 1265loPI   C2B19910   6.697  17.849   6.672  0.1812 -0.0510 -0.3849
 1265loPI   C3B19911   6.620  17.871   7.098 -0.2625  0.0312 -0.1833
 1265loPI   C4B19912   6.806  17.980   7.382 -0.0795 -0.1480 -0.0961
 1266loPI    C119913  15.927   7.376   5.042 -0.0569 -0.3212 -0.0662
 1266loPI    C219914  16.198   7.161   5.243  0.1702  0.0112 -0.0087
 1266loPI    C319915  16.229   7.201   4.846  0.0815 -0.1261 -0.0301
 1266loPI   PO419916  15.765   7.398   5.099  0.1871  0.0462  0.0813
 1266loPI   GL119917  15.784   7.575   5.532 -0.2182  0.5010 -0.0761
 1266loPI   GL219918  15.612   7.764   5.600 -0.1117  0.1628 -0.1413
 1266loPI   C1A19919  16.029   7.751   5.844 -0.3886 -0.1298  0.0949
 1266loPI   C2A19920  16.161   7.780   6.260  0.0707  0.0406 -0.1412
 1266loPI   C3A19921  16.098   7.867   6.696  0.0452 -0.1344 -0.0074
 1266loPI   C4A19922  16.297   7.813   7.167 -0.1308  0.0558 -0.0606
 1266loPI   C5A19923  16.155   7.862   7.530  0.3129  0.0576 -0.3671
 1266loPI   C6A19924  16.153   7.827   7.910 -0.2223 -0.2095 -0.0950
 1266loPI   C1B19925  15.526   7.612   5.963 -0.2295  0.4213 -0.1093
 1266loPI   C2B19926  15.622   7.721   6.411 -0.2055 -0.1080  0.6477
 1266loPI   C3B19927  15.569   7.667   6.836  0.0443  0.2012  0.1983
 1266loPI   C4B19928  15.640   7.774   7.236 -0.2332  0.2300  0.1420
 1267loPI    C119929   9.480   8.553   5.210  0.0917  0.2530  0.1122
 1267loPI    C219930   9.771   8.763   5.033 -0.0063  0.1463 -0.1804
 1267loPI    C319931   9.396   8.787   4.896 -0.0310 -0.1661 -0.1760
 1267loPI   PO419932   9.570   8.320   5.268 -0.0277 -0.0474  0.1546
 1267loPI   GL119933   9.657   8.153   5.691  0.0224  0.1832  0.0058
 1267loPI   GL219934   9.956   8.027   5.800 -0.0204 -0.0713  0.0420
 1267loPI   C1A19935   9.718   8.349   6.130 -0.2880  0.0283 -0.0732
 1267loPI   C2A19936   9.784   8.140   6.548  0.2380  0.2073  0.3949
 1267loPI   C3A19937   9.762   8.115   6.992 -0.1756 -0.1971  0.0081
 1267loPI   C4A19938   9.722   8.155   7.437  0.1979 -0.2730  0.2069
 1267loPI   C5A19939   9.701   8.166   7.878  0.0402 -0.0805 -0.1219
 1267loPI   C6A19940   9.504   7.916   8.144 -0.1617  0.0872  0.1131
 1267loPI   C1B19941   9.998   7.790   6.199  0.0080  0.0025  0.1277
 1267loPI   C2B19942  10.083   7.706   6.554  0.0638 -0.1240  0.0178
 1267loPI   C3B19943  10.056   7.680   6.940 -0.1513  0.3441 -0.1702
 1267loPI   C4B19944  10.097   7.801   7.446 -0.0247  0.3788  0.1466
 1268loPI    C119945   5.412   5.513   5.205 -0.0257 -0.1381  0.1920
 1268loPI    C219946   5.136   5.315   4.994 -0.0504  0.1387 -0.0411
 1268loPI    C319947   5.511   5.340   4.858  0.0161  0.0309  0.1191
 1268loPI   PO419948   5.203   5.733   5.377 -0.3066  0.1180  0.1953
 1268loPI   GL119949   5.101   5.745   5.800  0.3132 -0.0876 -0.0755
 1268loPI   GL219950   4.990   5.428   5.729  0.2031 -0.3578  0.1042
 1268loPI   C1A19951   5.030   5.825   6.229 -0.2784 -0.1438  0.1258
 1268loPI   C2A19952   5.167   5.856   6.738 -0.2158  0.1497  0.0346
 1268loPI   C3A19953   5.372   5.536   6.983 -0.0051 -0.0150 -0.2667
 1268loPI   C4A19954   5.279   5.515   7.439 -0.0289 -0.0164  0.0644
 1268loPI   C5A19955   5.118   5.909   7.823  0.1223 -0.4602  0.0056
 1268loPI   C6A19956   5.112   6.029   8.278 -0.2431 -0.0050  0.1700
 1268loPI   C1B19957   4.909   5.354   6.174  0.0103  0.3668  0.1795
 1268loPI   C2B19958   4.924   5.348   6.651 -0.0977 -0.4098  0.4257
 1268loPI   C3B19959   4.885   5.208   7.099  0.1734  0.1717  0.2823
 1268loPI   C4B19960   4.851   5.191   7.513 -0.1495 -0.1407  0.0419
 1269loPI    C119961   2.412   1.908   5.024  0.0164 -0.0680  0.0716
 1269loPI    C219962   2.475   2.289   4.917 -0.0588 -0.0920 -0.0592
 1269loPI    C319963   2.784   2.055   5.015 -0.0144  0.0087  0.0420
 1269loPI   PO419964   2.325   1.834   5.263 -0.1601  0.0574  0.1662
 1269loPI   GL119965   2.326   1.676   5.660 -0.3055 -0.1993 -0.3008
 1269loPI   GL219966   2.665   1.650   5.855 -0.0023 -0.2738 -0.1136
 1269loPI   C1A19967   2.494   2.069   5.995 -0.2177 -0.1957  0.2385
 1269loPI   C2A19968   2.617   2.142   6.453 -0.1313  0.0820  0.0711
 1269loPI   C3A19969   2.599   2.099   6.855  0.0241  0.1624 -0.0428
 1269loPI   C4A19970   2.867   2.227   7.164  0.1357  0.1002  0.0251
 1269loPI   C5A19971   2.886   2.356   7.562  0.0955 -0.2953  0.1657
 1269loPI   C6A19972   3.045   2.625   7.926 -0.0608 -0.3608 -0.2079
 1269loPI   C1B19973   2.757   1.652   6.274  0.2829 -0.2030  0.1181
 1269loPI   C2B19974   2.832   1.675   6.636  0.0104 -0.2306 -0.1836
 1269loPI   C3B19975   2.787   1.691   7.058 -0.3860 -0.2040 -0.0067
 1269loPI   C4B19976   2.862   1.659   7.489 -0.2030  0.2211 -0.1373
 1270loPI    C119977   6.820   8.986   5.467 -0.0025  0.0930 -0.0757
 1270loPI    C219978   6.807   8.614   5.321 -0.2259 -0.0063  0.1873
 1270loPI    C319979   7.030   8.893   5.140 -0.0896 -0.2556 -0.0359
 1270loPI   PO419980   6.967   8.997   5.645 -0.1538  0.2174 -0.0663
 1270loPI   GL119981   7.249   8.966   5.979  0.3752 -0.2976  0.1343
 1270loPI   GL219982   7.474   8.722   5.965 -0.0361  0.0590  0.0235
 1270loPI   C1A19983   7.339   8.849   6.470  0.0052 -0.0857 -0.1039
 1270loPI   C2A19984   7.208   8.731   6.859 -0.2871 -0.0518  0.1890
 1270loPI   C3A19985   7.026   8.781   7.267  0.2439  0.1485  0.2152
 1270loPI   C4A19986   7.253   8.660   7.613  0.1408 -0.1759  0.3299
 1270loPI   C5A19987   7.216   8.151   7.624 -0.0885 -0.1253 -0.0429
 1270loPI   C6A19988   6.892   7.845   7.591  0.2971 -0.2671  0.1242
 1270loPI   C1B19989   7.857   8.763   6.239  0.0775  0.0206  0.2505
 1270loPI   C2B19990   8.109   8.902   6.581  0.0844  0.0781  0.0512
 1270loPI   C3B19991   8.179   8.778   7.030  0.0790 -0.2498 -0.0674
 1270loPI   C4B19992   8.075   8.896   7.436  0.0282 -0.1278  0.0722
 1271loPI    C119993   3.457  17.755   5.765 -0.1135 -0.1002  0.1408
 1271loPI    C219994   3.332  17.973   6.076  0.0077  0.1152  0.0417
 1271loPI    C319995   3.193  18.051   5.709  0.2169  0.1709 -0.0269
 1271loPI   PO419996   3.414  17.521   5.847  0.0205 -0.0071 -0.3384
 1271loPI   GL119997   3.343  17.503   6.237 -0.0817  0.2139  0.0352
 1271loPI   GL219998   3.418  17.300   6.348  0.1809  0.3690  0.0309
 1271loPI   C1A19999   3.509  17.869   6.532  0.1331 -0.1563  0.2307
 1271loPI   C2A20000   3.602  17.992   6.988 -0.0369 -0.1373  0.2991
 1271loPI   C3A20001   3.647  17.879   7.356 -0.0595  0.0235 -0.0687
 1271loPI   C4A20002   3.604  17.607   7.670 -0.0738  0.0511 -0.2558
 1271loPI   C5A20003   3.309  17.431   7.965 -0.2902 -0.1442  0.1642
 1271loPI   C6A20004   3.291  17.405   8.410  0.3720 -0.0956 -0.0668
 1271loPI   C1B20005   3.330  17.484   6.811  0.0067  0.2679  0.2138
 1271loPI   C2B20006   3.225  17.598   7.173 -0.1315 -0.2865  0.2054
 1271loPI   C3B20007   3.117  17.762   7.540  0.1882 -0.1748 -0.2056
 1271loPI   C4B20008   2.728  17.812   7.780 -0.4692  0.0653 -0.1497
 1272loPI    C120009  17.047   0.632   4.619  0.1553  0.0031 -0.2651
 1272loPI    C220010  16.887   0.967   4.473  0.1701  0.1404  0.0264
 1272loPI    C320011  17.253   0.854   4.358  0.1884  0.2551 -0.0288
 1272loPI   PO420012  16.982   0.662   4.840  0.1463 -0.3638  0.2029
 1272loPI   GL120013  16.987   0.689   5.321  0.0489  0.0706 -0.1904
 1272loPI   GL220014  17.257   0.578   5.462 -0.2643 -0.1729 -0.1613
 1272loPI   C1A20015  16.915   0.941   5.728 -0.0308 -0.0066  0.1561
 1272loPI   C2A20016  16.882   1.054   6.083  0.1442  0.2386 -0.1779
 1272loPI   C3A20017  17.013   1.021   6.525  0.2258  0.0429  0.1029
 1272loPI   C4A20018  16.916   1.153   7.005  0.1566  0.6325 -0.1417
 1272loPI   C5A20019  16.813   1.119   7.445 -0.1495  0.1004 -0.1140
 1272loPI   C6A20020  16.513   1.399   7.657 -0.2087  0.1162  0.2368
 1272loPI   C1B20021  17.261   0.643   5.879 -0.1564  0.1956  0.3423
 1272loPI   C2B20022  17.219   0.634   6.318  0.0652 -0.3395  0.0710
 1272loPI   C3B20023  17.278   0.676   6.747  0.2734  0.1446  0.2591
 1272loPI   C4B20024  17.360   0.672   7.175 -0.2304  0.1440 -0.1611
 1273loPI    C120025   4.964  15.159   5.145  0.2814 -0.1399  0.3109
 1273loPI    C220026   5.325  14.998   5.078  0.2633 -0.0314 -0.0734
 1273loPI    C320027   5.027  14.936   4.818 -0.0044 -0.1367  0.2511
 1273loPI   PO420028   5.029  15.305   5.403  0.0082  0.0347  0.2270
 1273loPI   GL120029   5.027  15.303   5.824 -0.2640  0.0417 -0.0826
 1273loPI   GL220030   5.064  15.567   5.928 -0.2590 -0.1687  0.2077
 1273loPI   C1A20031   4.909  15.236   6.295 -0.0857  0.2106 -0.0174
 1273loPI   C2A20032   4.937  15.272   6.679 -0.0936 -0.3644 -0.2133
 1273loPI   C3A20033   4.977  15.266   7.094 -0.1214 -0.1510  0.0302
 1273loPI   C4A20034   4.979  14.925   7.352  0.2206  0.0652 -0.2034
 1273loPI   C5A20035   4.947  14.808   7.807  0.0059 -0.2108  0.2428
 1273loPI   C6A20036   4.637  14.532   8.061  0.2580 -0.1468  0.0260
 1273loPI   C1B20037   5.070  15.681   6.402 -0.0812 -0.1555 -0.0319
 1273loPI   C2B20038   4.991  15.755   6.820  0.0051 -0.2201 -0.1511
 1273loPI   C3B20039   4.728  15.701   7.166  0.2760  0.2129  0.5591
 1273loPI   C4B20040   4.698  15.737   7.540  0.0154 -0.0223  0.0997
 1274loPI    C120041   0.572  15.848   5.284  0.1388  0.0311 -0.0858
 1274loPI    C220042   0.340  15.537   5.185 -0.0244  0.1191  0.0158
 1274loPI    C320043   0.412  15.826   4.918  0.1241 -0.0027 -0.0773
 1274loPI   PO420044   0.533  15.782   5.545  0.1555 -0.0555 -0.2982
 1274loPI   GL120045   0.532  15.902   5.916  0.0481  0.1731  0.0095
 1274loPI   GL220046   0.875  16.041   5.869  0.2472  0.0395 -0.2388
 1274loPI   C1A20047   0.237  15.722   6.276  0.3215 -0.0237  0.0075
 1274loPI   C2A20048   0.134  15.449   6.551  0.0398  0.1699  0.1003
 1274loPI   C3A20049   0.175  15.290   6.942  0.1351  0.2057 -0.2604
 1274loPI   C4A20050   0.120  15.045   7.291 -0.0676  0.1112  0.2105
 1274loPI   C5A20051   0.063  15.210   7.651  0.2103  0.1231  0.1073
 1274loPI   C6A20052  -0.202  15.443   7.991 -0.2025 -0.1656 -0.0205
 1274loPI   C1B20053   1.122  15.991   6.135 -0.3066  0.1306 -0.2426
 1274loPI   C2B20054   1.145  15.939   6.518  0.0116 -0.1683 -0.0361
 1274loPI   C3B20055   0.964  15.933   6.992  0.1708 -0.3544 -0.2146
 1274loPI   C4B20056   0.895  16.013   7.433 -0.0822  0.1006  0.0301
 1275loPI    C120057   0.617   7.294   4.999  0.0238 -0.1201  0.0242
 1275loPI    C220058   0.709   7.139   4.642  0.1041 -0.0008 -0.0077
 1275loPI    C320059   0.566   6.903   4.932 -0.0334 -0.0846 -0.1425
 1275loPI   PO420060   0.839   7.480   5.069 -0.0237 -0.2199 -0.2658
 1275loPI   GL120061   0.947   7.455   5.442 -0.0248 -0.0496 -0.2847
 1275loPI   GL220062   0.679   7.693   5.559  0.1787  0.1269 -0.0051
 1275loPI   C1A20063   0.863   7.343   5.881 -0.0412 -0.0194  0.3563
 1275loPI   C2A20064   0.890   7.318   6.409 -0.0071 -0.3413  0.1732
 1275loPI   C3A20065   0.957   7.355   6.853  0.3917  0.1029 -0.0729
 1275loPI   C4A20066   1.236   7.318   7.162 -0.1790  0.0151 -0.1423
 1275loPI   C5A20067   1.627   7.555   7.509 -0.0217 -0.0025  0.2148
 1275loPI   C6A20068   1.890   7.843   7.744 -0.0382  0.2025 -0.1080
 1275loPI   C1B20069   0.503   7.732   5.953  0.0862 -0.0452 -0.0047
 1275loPI   C2B20070   0.510   7.754   6.356 -0.0965  0.1406  0.1716
 1275loPI   C3B20071   0.497   7.768   6.731 -0.0679  0.1285  0.0389
 1275loPI   C4B20072   0.566   7.928   7.177  0.0012 -0.2253  0.1320
 1276loPI    C120073  16.854  13.264   4.865 -0.0522  0.2239 -0.2216
 1276loPI    C220074  16.512  13.104   4.731  0.0441 -0.1601 -0.0230
 1276loPI    C320075  16.818  13.162   4.480 -0.1258  0.0839 -0.1783
 1276loPI   PO420076  16.919  13.118   5.158  0.2208 -0.4172  0.0753
 1276loPI   GL120077  17.210  13.038   5.582  0.0476 -0.0919 -0.0308
 1276loPI   GL220078  17.181  13.338   5.556  0.2277 -0.1253 -0.3405
 1276loPI   C1A20079  17.143  12.831   5.993  0.1607  0.1839  0.2130
 1276loPI   C2A20080  17.448  12.610   6.196 -0.0380  0.0031  0.2251
 1276loPI   C3A20081  17.452  12.544   6.594 -0.3698  0.0612  0.1205
 1276loPI   C4A20082  17.537  12.487   7.022 -0.3249  0.0544 -0.2643
 1276loPI   C5A20083  17.577  12.456   7.436  0.1593 -0.2529  0.2311
 1276loPI   C6A20084  17.624  12.357   7.847  0.0092  0.2995 -0.1145
 1276loPI   C1B20085  17.218  13.330   6.056 -0.2047 -0.4080 -0.0705
 1276loPI   C2B20086  17.204  13.293   6.525  0.1277  0.2376  0.2756
 1276loPI   C3B20087  17.227  13.235   6.977 -0.2745  0.0784  0.0821
 1276loPI   C4B20088  17.160  13.410   7.419  0.1255  0.0759  0.1278
 1277loPI    C120089  17.545   0.780   4.769  0.0059 -0.3163  0.4513
 1277loPI    C220090  17.600   0.407   4.635  0.2317 -0.1364  0.0197
 1277loPI    C320091  17.914   0.650   4.683  0.0630  0.0766  0.0608
 1277loPI   PO420092  17.481   0.850   5.077 -0.0511 -0.0023  0.0976
 1277loPI   GL120093  17.435   1.023   5.601  0.1302  0.0054  0.3863
 1277loPI   GL220094  17.680   0.849   5.622 -0.0631 -0.0262  0.3031
 1277loPI   C1A20095  17.449   1.068   6.053 -0.0331  0.0189 -0.0141
 1277loPI   C2A20096  17.485   1.227   6.428  0.2472 -0.0424 -0.3288
 1277loPI   C3A20097  17.359   1.355   6.762 -0.2186  0.0468 -0.2180
 1277loPI   C4A20098  17.320   1.282   7.249 -0.1885 -0.0489 -0.0019
 1277loPI   C5A20099  17.337   1.163   7.627 -0.0168 -0.1775 -0.0973
 1277loPI   C6A20100  17.228   0.817   7.798  0.0196 -0.0201 -0.2205
 1277loPI   C1B20101  17.704   0.621   6.015  0.1303 -0.3644  0.1685
 1277loPI   C2B20102  17.718   0.814   6.424 -0.2701 -0.1887  0.2325
 1277loPI   C3B20103  17.800   0.896   6.846  0.0257  0.3156 -0.0490
 1277loPI   C4B20104  17.876   0.711   7.219 -0.1015 -0.3479  0.1419
 1278loPI    C120105   0.991   0.405   5.247  0.0433 -0.0330 -0.1138
 1278loPI    C220106   1.115   0.692   4.998  0.3633 -0.0234  0.0518
 1278loPI    C320107   1.373   0.416   5.128  0.0833 -0.3247 -0.0203
 1278loPI   PO420108   0.968   0.522   5.510 -0.1666 -0.1296  0.2069
 1278loPI   GL120109   0.741   0.400   5.916  0.1772  0.2577  0.3929
 1278loPI   GL220110   0.803   0.087   6.044 -0.0952 -0.3684 -0.0525
 1278loPI   C1A20111   0.787   0.447   6.409  0.1147 -0.1209 -0.2205
 1278loPI   C2A20112   0.859   0.823   6.767  0.1048  0.3577 -0.0270
 1278loPI   C3A20113   1.117   0.922   7.056 -0.0115 -0.0917  0.1093
 1278loPI   C4A20114   1.320   1.211   7.208  0.2389  0.2054 -0.0613
 1278loPI   C5A20115   1.531   1.500   7.603  0.0794 -0.1172  0.0485
 1278loPI   C6A20116   1.599   2.054   7.741  0.2845  0.2464  0.2743
 1278loPI   C1B20117   0.494  -0.107   6.273 -0.0945 -0.0807  0.0406
 1278loPI   C2B20118   0.273   0.135   6.684  0.1688  0.2337 -0.0430
 1278loPI   C3B20119   0.165   0.145   7.115 -0.3364  0.1418 -0.2221
 1278loPI   C4B20120   0.241   0.017   7.489  0.3138  0.0576 -0.3658
 1279loPI    C120121   1.839  17.206   5.421  0.2515  0.1048  0.0675
 1279loPI    C220122   1.625  17.476   5.219  0.1997  0.0503  0.0492
 1279loPI    C320123   2.015  17.433   5.143  0.2132  0.1359  0.0687
 1279loPI   PO420124   1.581  17.201   5.696 -0.4063 -0.3201 -0.0807
 1279loPI   GL120125   1.881  17.231   6.129  0.1364 -0.3974  0.1055
 1279loPI   GL220126   1.742  17.516   6.088 -0.0741  0.0872 -0.0173
 1279loPI   C1A20127   2.081  17.078   6.487 -0.3204 -0.1606 -0.2236
 1279loPI   C2A20128   2.054  17.033   6.856  0.0019 -0.2283  0.1059
 1279loPI   C3A20129   2.087  16.990   7.320 -0.1021  0.1701  0.2429
 1279loPI   C4A20130   2.386  17.087   7.505  0.2789  0.0934 -0.3244
 1279loPI   C5A20131   2.730  17.324   7.778 -0.1191  0.0587 -0.1813
 1279loPI   C6A20132   2.878  17.149   8.254  0.0586  0.2885  0.1530
 1279loPI   C1B20133   1.475  17.323   6.420 -0.1137 -0.0177  0.0664
 1279loPI   C2B20134   1.524  17.147   6.815 -0.0929  0.1254 -0.0214
 1279loPI   C3B20135   1.550  17.246   7.198  0.1636  0.1687  0.0789
 1279loPI   C4B20136   1.562  17.089   7.627 -0.3099 -0.3081  0.1847
 1280loPI    C120137  12.476   0.554   5.442  0.0547 -0.2389  0.2064
 1280loPI    C220138  12.436   0.480   5.051  0.0549  0.0834  0.1420
 1280loPI    C320139  12.749   0.333   5.252  0.1577  0.0766 -0.0217
 1280loPI   PO420140  12.312   0.554   5.667  0.1467  0.0415  0.1522
 1280loPI   GL120141  12.256   0.366   6.097 -0.1927  0.1335 -0.2453
 1280loPI   GL220142  12.581   0.339   6.044 -0.1915  0.0397  0.1822
 1280loPI   C1A20143  12.323   0.550   6.503 -0.2201 -0.0915  0.0537
 1280loPI   C2A20144  12.367   0.650   6.982  0.1531 -0.2083  0.0752
 1280loPI   C3A20145  12.344   0.432   7.326  0.0740  0.1572  0.1732
 1280loPI   C4A20146  12.357   0.140   7.702  0.1244 -0.3595  0.0231
 1280loPI   C5A20147  12.466   0.225   8.226  0.0158  0.0785 -0.1411
 1280loPI   C6A20148  12.124   0.507   8.400 -0.2430 -0.2165 -0.0620
 1280loPI   C1B20149  12.668   0.204   6.460  0.4952 -0.3138 -0.1021
 1280loPI   C2B20150  12.575   0.188   6.935  0.1458  0.0241  0.0266
 1280loPI   C3B20151  12.723   0.093   7.338 -0.0426 -0.1155  0.0196
 1280loPI   C4B20152  12.872   0.165   7.825  0.1399 -0.0060 -0.2851
 1281loPI    C120153  13.350   6.787   4.991  0.1590  0.0612  0.2673
 1281loPI    C220154  12.981   6.722   4.852  0.2429 -0.0484  0.0920
 1281loPI    C320155  13.285   6.771   4.597  0.3912 -0.2032  0.2361
 1281loPI   PO420156  13.287   6.971   5.239  0.1295  0.3074  0.1710
 1281loPI   GL120157  13.390   7.141   5.577  0.1969 -0.1244 -0.1598
 1281loPI   GL220158  13.585   6.931   5.642 -0.0329  0.2115 -0.1238
 1281loPI   C1A20159  13.146   7.346   5.964 -0.1521  0.0189  0.0107
 1281loPI   C2A20160  13.156   7.281   6.313  0.1818  0.3672 -0.1297
 1281loPI   C3A20161  13.181   7.311   6.717  0.1427  0.0437  0.1902
 1281loPI   C4A20162  13.302   7.337   7.155  0.0179 -0.0789 -0.0056
 1281loPI   C5A20163  13.369   7.327   7.543 -0.0028  0.0846  0.2719
 1281loPI   C6A20164  13.748   7.154   7.868 -0.1203 -0.3896  0.6480
 1281loPI   C1B20165  13.572   7.074   6.039  0.2806 -0.0947 -0.0918
 1281loPI   C2B20166  13.593   7.025   6.464  0.2715 -0.1112  0.1261
 1281loPI   C3B20167  13.670   6.980   6.784 -0.2955 -0.0256 -0.0586
 1281loPI   C4B20168  13.733   7.029   7.267 -0.1436  0.1855 -0.0549
 1282POPI    C120169   8.854   0.906   5.808  0.0049  0.1487 -0.0788
 1282POPI    C220170   8.685   0.546   5.851 -0.0836  0.1828 -0.1393
 1282POPI    C320171   8.727   0.706   5.487  0.0046  0.2106 -0.1174
 1282POPI   PO420172   9.169   0.881   6.075  0.1639  0.0047 -0.2020
 1282POPI   GL120173   8.995   0.782   6.422 -0.1089 -0.1856 -0.0907
 1282POPI   GL220174   8.859   0.493   6.359  0.1578  0.0638  0.1959
 1282POPI   C1A20175   9.198   0.681   6.899  0.1056  0.0040  0.1177
 1282POPI   D2A20176   8.986   1.007   7.255 -0.4299  0.2883  0.0120
 1282POPI   C3A20177   8.899   0.842   7.663  0.0389 -0.4059  0.1358
 1282POPI   C4A20178   8.621   0.645   8.039  0.1541 -0.0962 -0.3311
 1282POPI   C1B20179   8.754   0.561   6.792 -0.0104  0.1966  0.1798
 1282POPI   C2B20180   8.872   0.540   7.186 -0.0640 -0.0121 -0.0511
 1282POPI   C3B20181   8.990   0.374   7.589  0.1261 -0.0253 -0.0724
 1282POPI   C4B20182   9.039   0.306   8.046 -0.1415  0.0035  0.0013
 1283POPI    C120183  11.533  13.391   5.137 -0.1470  0.0983  0.2461
 1283POPI    C220184  11.311  13.220   4.851  0.0717  0.0593  0.0967
 1283POPI    C320185  11.293  13.616   4.909  0.1992  0.0996 -0.1283
 1283POPI   PO420186  11.596  13.139   5.346 -0.3648  0.1354  0.0675
 1283POPI   GL120187  11.936  13.153   5.755 -0.1126  0.0711  0.1511
 1283POPI   GL220188  12.253  13.070   5.603 -0.3230  0.1082  0.1632
 1283POPI   C1A20189  11.675  13.107   6.061  0.0616  0.2538 -0.2317
 1283POPI   D2A20190  11.716  12.956   6.425  0.1391  0.1443  0.4749
 1283POPI   C3A20191  11.581  12.892   6.772  0.1478  0.0474  0.1732
 1283POPI   C4A20192  11.510  12.825   7.222 -0.0173  0.0304  0.2328
 1283POPI   C1B20193  12.452  12.783   5.930 -0.0269  0.1004  0.0552
 1283POPI   C2B20194  12.446  12.770   6.363 -0.1553  0.1637 -0.1993
 1283POPI   C3B20195  12.482  12.660   6.790  0.0333  0.1474 -0.1100
 1283POPI   C4B20196  12.606  12.588   7.148  0.4111  0.0713  0.1630
 1284POPI    C120197   7.954  14.903   5.315 -0.1465  0.0692 -0.2133
 1284POPI    C220198   8.338  14.876   5.207 -0.0750  0.0937  0.0283
 1284POPI    C320199   8.049  14.805   4.939  0.0976 -0.0293 -0.1278
 1284POPI   PO420200   7.957  14.582   5.549 -0.0859 -0.0190 -0.0798
 1284POPI   GL120201   7.977  14.411   5.947 -0.0994  0.0911  0.2663
 1284POPI   GL220202   7.855  14.136   6.105  0.5716  0.1826  0.1701
 1284POPI   C1A20203   7.986  14.551   6.440  0.0764  0.0386  0.0946
 1284POPI   D2A20204   8.171  14.555   6.839 -0.0028 -0.3238  0.1052
 1284POPI   C3A20205   8.161  14.151   7.053 -0.1882  0.0644  0.0350
 1284POPI   C4A20206   8.183  13.973   7.386 -0.0468  0.0204 -0.0751
 1284POPI   C1B20207   7.814  14.028   6.570 -0.1052 -0.3756  0.1470
 1284POPI   C2B20208   7.800  13.717   6.910 -0.0875 -0.1364  0.0668
 1284POPI   C3B20209   7.806  13.702   7.397 -0.0631 -0.0818  0.1255
 1284POPI   C4B20210   8.146  13.611   7.716  0.0578 -0.1588 -0.2541
 1285POPI    C120211  11.747  16.722   5.605  0.0856 -0.0563 -0.1333
 1285POPI    C220212  11.416  16.744   5.382  0.0931  0.0162 -0.1373
 1285POPI    C320213  11.723  16.989   5.309  0.1089  0.0172 -0.0690
 1285POPI   PO420214  11.574  16.748   5.847  0.0310 -0.0723  0.0672
 1285POPI   GL120215  11.480  16.748   6.310  0.1637  0.2378  0.2159
 1285POPI   GL220216  11.161  16.902   6.342  0.0786 -0.1777 -0.2190
 1285POPI   C1A20217  11.617  16.855   6.673 -0.1319  0.1159 -0.0231
 1285POPI   D2A20218  11.641  17.103   7.066 -0.0284 -0.0510 -0.2154
 1285POPI   C3A20219  11.831  16.882   7.365 -0.0036 -0.3588 -0.2861
 1285POPI   C4A20220  11.849  16.785   7.803 -0.1739  0.0306 -0.1516
 1285POPI   C1B20221  11.032  16.841   6.771 -0.2843 -0.1119  0.0105
 1285POPI   C2B20222  11.272  16.791   7.126 -0.0718 -0.0004  0.0455
 1285POPI   C3B20223  11.388  16.728   7.503 -0.2555  0.0060 -0.0799
 1285POPI   C4B20224  11.353  16.563   7.957  0.4763  0.1433  0.0818
 1286POPI    C120225  16.779   0.259   5.104  0.1395  0.0354 -0.1729
 1286POPI    C220226  16.548   0.569   5.205 -0.0107 -0.0837 -0.1454
 1286POPI    C320227  16.429   0.317   4.919  0.1784 -0.0346 -0.2690
 1286POPI   PO420228  16.947   0.198   5.304  0.1372 -0.1278 -0.0111
 1286POPI   GL120229  16.920   0.340   5.677 -0.0942  0.1209 -0.1734
 1286POPI   GL220230  16.677   0.493   5.665  0.0329 -0.0018 -0.0839
 1286POPI   C1A20231  17.040   0.164   6.054  0.0606 -0.2689 -0.1318
 1286POPI   D2A20232  17.212  -0.033   6.401 -0.1234  0.2169  0.2594
 1286POPI   C3A20233  17.253   0.122   6.807 -0.0287  0.1760 -0.0540
 1286POPI   C4A20234  17.259   0.223   7.232 -0.2034 -0.1547 -0.1839
 1286POPI   C1B20235  16.701   0.526   6.133  0.0942 -0.1123  0.0592
 1286POPI   C2B20236  16.891   0.354   6.543 -0.2819 -0.0788 -0.2536
 1286POPI   C3B20237  16.909   0.537   7.001  0.0575  0.3195 -0.1352
 1286POPI   C4B20238  16.916   0.602   7.422 -0.1303  0.1663 -0.0286
 1287POPI    C120239  18.357  11.085   4.882 -0.1083 -0.2150 -0.0556
 1287POPI    C220240  18.518  10.737   4.999  0.1945 -0.0163  0.1321
 1287POPI    C320241  18.710  10.968   4.735 -0.0933 -0.0736 -0.1334
 1287POPI   PO420242  18.218  11.163   5.208 -0.2406  0.0627  0.0493
 1287POPI   GL120243  18.045  11.229   5.598  0.2278 -0.0769  0.5159
 1287POPI   GL220244  17.980  10.905   5.701 -0.1906 -0.1600  0.1103
 1287POPI   C1A20245  18.209  11.373   5.981  0.0918 -0.0292 -0.0472
 1287POPI   D2A20246  18.146  11.420   6.439 -0.0299 -0.2369  0.3215
 1287POPI   C3A20247  18.160  11.390   6.850 -0.4123  0.0030  0.0358
 1287POPI   C4A20248  18.212  11.288   7.297  0.1533  0.0578  0.0435
 1287POPI   C1B20249  18.048  10.803   6.130  0.0620 -0.0755  0.2941
 1287POPI   C2B20250  18.038  10.974   6.528  0.0295 -0.0527  0.0902
 1287POPI   C3B20251  17.987  10.924   7.050 -0.0280  0.0950  0.1322
 1287POPI   C4B20252  17.983  10.836   7.534  0.2393 -0.1640 -0.0686
 1288POPI    C120253  15.792  11.926   5.032  0.1662 -0.0699 -0.0022
 1288POPI    C220254  16.071  12.121   4.821 -0.0169 -0.0775 -0.2548
 1288POPI    C320255  15.687  12.141   4.712 -0.1354  0.0386  0.1658
 1288POPI   PO420256  15.788  12.052   5.268 -0.0143  0.2362 -0.0299
 1288POPI   GL120257  15.500  12.411   5.482  0.0851  0.1587 -0.3174
 1288POPI   GL220258  15.123  12.402   5.506  0.1935  0.0163 -0.1942
 1288POPI   C1A20259  15.449  12.662   5.862 -0.1956  0.0925  0.1430
 1288POPI   D2A20260  15.285  12.720   6.137  0.1351 -0.2076  0.1570
 1288POPI   C3A20261  15.252  12.628   6.527  0.1171  0.3761 -0.0254
 1288POPI   C4A20262  15.297  12.658   7.018 -0.0192  0.1112 -0.1481
 1288POPI   C1B20263  15.187  12.264   5.911 -0.2530 -0.0079 -0.0878
 1288POPI   C2B20264  15.249  12.135   6.276  0.0383  0.1737 -0.0628
 1288POPI   C3B20265  15.214  12.183   6.761  0.0049  0.3320  0.2962
 1288POPI   C4B20266  15.147  12.176   7.179  0.1916 -0.1189 -0.1760
 1289POPI    C120267   8.496  10.971   5.052 -0.0375 -0.1262 -0.0995
 1289POPI    C220268   8.274  10.713   5.261 -0.0323  0.0077  0.0736
 1289POPI    C320269   8.136  10.861   4.916 -0.2473  0.1489  0.2173
 1289POPI   PO420270   8.499  11.164   5.358 -0.0386 -0.0841  0.2490
 1289POPI   GL120271   8.420  11.413   5.760  0.1062 -0.0151  0.2439
 1289POPI   GL220272   8.672  11.060   5.800  0.2180 -0.0374  0.3142
 1289POPI   C1A20273   8.641  11.434   6.248 -0.0925  0.1586 -0.3813
 1289POPI   D2A20274   8.556  11.130   6.527 -0.0683  0.3484 -0.1823
 1289POPI   C3A20275   8.691  11.251   6.967  0.1676  0.0627 -0.4048
 1289POPI   C4A20276   9.075  11.132   7.128 -0.2525  0.3146 -0.1010
 1289POPI   C1B20277   8.975  11.117   6.239 -0.0516 -0.2913 -0.0341
 1289POPI   C2B20278   9.110  11.293   6.626  0.1558 -0.0926 -0.0884
 1289POPI   C3B20279   9.424  11.315   6.870 -0.2228 -0.1402  0.0768
 1289POPI   C4B20280   9.663  11.081   7.108 -0.1218  0.1376  0.4319
 1290POPI    C120281   2.544  16.727   5.612  0.0260 -0.0244 -0.0099
 1290POPI    C220282   2.718  16.847   5.273 -0.2105  0.0889 -0.0934
 1290POPI    C320283   2.533  16.493   5.289 -0.0623  0.0138 -0.0349
 1290POPI   PO420284   2.787  16.789   5.755  0.3647 -0.0203  0.0261
 1290POPI   GL120285   3.017  16.596   5.974 -0.0096 -0.1364  0.2526
 1290POPI   GL220286   3.236  16.802   6.087 -0.1691 -0.2895  0.3635
 1290POPI   C1A20287   2.942  16.658   6.483 -0.0606 -0.2229  0.1175
 1290POPI   D2A20288   2.893  16.526   6.881  0.1652 -0.3901  0.1814
 1290POPI   C3A20289   3.137  16.783   7.174 -0.2122  0.1120  0.3351
 1290POPI   C4A20290   3.425  17.159   7.216 -0.0885 -0.1734  0.2621
 1290POPI   C1B20291   3.380  16.883   6.640 -0.3458  0.1082 -0.1439
 1290POPI   C2B20292   3.637  16.761   6.919  0.1869 -0.0623 -0.3490
 1290POPI   C3B20293   3.547  16.592   7.314  0.1366  0.0701 -0.3064
 1290POPI   C4B20294   3.289  16.401   7.755 -0.0827  0.1639  0.0973
 1291POPI    C120295  16.216   1.148   4.886 -0.1668  0.0371  0.1086
 1291POPI    C220296  16.606   1.069   4.849 -0.1464  0.2016 -0.0439
 1291POPI    C320297  16.371   1.069   4.526 -0.2960 -0.0108  0.0629
 1291POPI   PO420298  16.118   0.995   5.098  0.2806 -0.1087 -0.0692
 1291POPI   GL120299  16.085   0.967   5.502  0.0465 -0.1265 -0.1534
 1291POPI   GL220300  16.227   0.798   5.500  0.0797 -0.0001  0.0772
 1291POPI   C1A20301  16.025   1.325   5.775 -0.1009 -0.2803  0.0461
 1291POPI   D2A20302  15.991   1.166   6.236 -0.0907  0.1936  0.1727
 1291POPI   C3A20303  16.057   1.097   6.593 -0.1762 -0.0958  0.2480
 1291POPI   C4A20304  16.022   1.275   6.986  0.0326  0.1342  0.0118
 1291POPI   C1B20305  16.432   0.925   5.953 -0.0432  0.3614  0.1738
 1291POPI   C2B20306  16.553   0.894   6.447 -0.1263  0.1657 -0.2076
 1291POPI   C3B20307  16.549   0.898   6.853  0.1306  0.0133 -0.1284
 1291POPI   C4B20308  16.394   0.905   7.222 -0.0825  0.3376 -0.1160
 1292POPI    C120309   2.132  14.356   5.404  0.1639  0.2640 -0.1023
 1292POPI    C220310   2.024  14.029   5.199  0.1349  0.0173  0.2966
 1292POPI    C320311   2.151  14.354   5.004  0.1509 -0.2244 -0.1072
 1292POPI   PO420312   2.060  14.342   5.629  0.0653  0.0603  0.2008
 1292POPI   GL120313   2.051  14.171   5.979  0.1988  0.0823  0.1461
 1292POPI   GL220314   2.400  14.048   5.909 -0.2614  0.1254  0.1520
 1292POPI   C1A20315   1.789  13.839   6.159  0.1974  0.3001  0.0747
 1292POPI   D2A20316   1.639  13.370   6.320  0.0966 -0.2003 -0.2788
 1292POPI   C3A20317   1.579  13.314   6.805  0.1472 -0.1086  0.1202
 1292POPI   C4A20318   1.583  13.252   7.249 -0.0819 -0.0090 -0.2978
 1292POPI   C1B20319   2.277  13.676   6.100 -0.0021 -0.3409  0.1854
 1292POPI   C2B20320   2.121  13.526   6.547  0.1781 -0.2426  0.1563
 1292POPI   C3B20321   2.075  13.501   7.006 -0.1240  0.3734  0.1480
 1292POPI   C4B20322   1.949  13.625   7.439 -0.1109 -0.2664 -0.1150
 1293POPI    C120323   5.152   2.687   5.511  0.2630  0.3566 -0.0870
 1293POPI    C220324   5.166   2.628   5.116  0.1093 -0.1020 -0.0303
 1293POPI    C320325   5.171   3.000   5.263  0.2281  0.0720 -0.4577
 1293POPI   PO420326   5.017   2.512   5.622  0.0642 -0.3326 -0.1429
 1293POPI   GL120327   4.870   2.444   6.039  0.1120  0.0808 -0.1449
 1293POPI   GL220328   4.679   2.689   5.978 -0.0355 -0.1557 -0.1585
 1293POPI   C1A20329   4.897   2.600   6.550 -0.2127  0.0402 -0.1641
 1293POPI   D2A20330   4.523   2.568   6.859  0.0793 -0.5618  0.0748
 1293POPI   C3A20331   4.463   2.469   7.312  0.0118 -0.2467 -0.2651
 1293POPI   C4A20332   4.815   2.343   7.579  0.0886 -0.2456  0.0308
 1293POPI   C1B20333   4.455   2.721   6.373 -0.0549  0.0264  0.1893
 1293POPI   C2B20334   4.082   2.635   6.643  0.1909  0.0831 -0.0158
 1293POPI   C3B20335   3.947   2.917   6.912 -0.2976 -0.0669 -0.1529
 1293POPI   C4B20336   3.469   2.926   7.103  0.0502 -0.1868 -0.0216
 1294POPI    C120337   2.883  17.759   5.265 -0.0113 -0.0041 -0.0477
 1294POPI    C220338   3.096  17.701   4.931  0.0917  0.1061 -0.0020
 1294POPI    C320339   2.696  17.696   4.917  0.0933  0.2908 -0.1607
 1294POPI   PO420340   2.992  17.615   5.467 -0.0162 -0.1339  0.1759
 1294POPI   GL120341   2.934  17.604   5.911  0.1334 -0.1535 -0.3755
 1294POPI   GL220342   2.959  17.234   6.070 -0.1742  0.1858  0.0768
 1294POPI   C1A20343   2.815  17.677   6.379 -0.3204  0.1001  0.2131
 1294POPI   D2A20344   2.834  17.652   6.803  0.0275 -0.3470  0.2078
 1294POPI   C3A20345   2.739  17.710   7.292  0.0581 -0.0316  0.0151
 1294POPI   C4A20346   2.312  17.880   7.435  0.2238  0.2831  0.1168
 1294POPI   C1B20347   2.975  17.136   6.511 -0.1580 -0.0208 -0.1392
 1294POPI   C2B20348   2.916  17.193   6.842  0.2553  0.1268 -0.4336
 1294POPI   C3B20349   2.870  17.201   7.325  0.0893  0.0851  0.2322
 1294POPI   C4B20350   3.135  17.006   7.670  0.1379  0.0627 -0.1982
 1295POPI    C120351   3.237   6.468   5.108  0.1664 -0.0776  0.1029
 1295POPI    C220352   3.126   6.506   4.726 -0.1267 -0.0910  0.1845
 1295POPI    C320353   3.418   6.736   4.873 -0.0899 -0.0067 -0.0171
 1295POPI   PO420354   2.974   6.570   5.225 -0.0559 -0.0794  0.0405
 1295POPI   GL120355   2.876   6.503   5.647  0.2051  0.0014  0.1601
 1295POPI   GL220356   2.951   6.272   5.832  0.0115 -0.2254 -0.0862
 1295POPI   C1A20357   3.127   6.808   5.924 -0.2312  0.0458 -0.1671
 1295POPI   D2A20358   3.286   6.940   6.304 -0.4571 -0.0038  0.1558
 1295POPI   C3A20359   3.674   7.045   6.298  0.2105  0.1148 -0.0824
 1295POPI   C4A20360   3.940   7.272   6.033  0.1371 -0.0229  0.3532
 1295POPI   C1B20361   3.056   6.458   6.248  0.1035 -0.2182 -0.1544
 1295POPI   C2B20362   3.085   6.485   6.719  0.0856  0.1442 -0.1684
 1295POPI   C3B20363   3.207   6.690   7.104 -0.2262  0.0123  0.0456
 1295POPI   C4B20364   3.482   7.120   7.190 -0.2026 -0.0636  0.0381
 1296POPI    C120365   0.896  10.302   5.219  0.2382  0.3224  0.0300
 1296POPI    C220366   0.858  10.188   4.838 -0.3114 -0.0399  0.1806
 1296POPI    C320367   0.917  10.574   4.927 -0.0870  0.0361 -0.2686
 1296POPI   PO420368   0.746  10.208   5.315  0.1223 -0.3156  0.1844
 1296POPI   GL120369   0.772  10.199   5.733  0.1462 -0.1709  0.1778
 1296POPI   GL220370   0.631   9.898   5.708 -0.0625 -0.1162  0.1398
 1296POPI   C1A20371   0.878  10.271   6.151  0.0132 -0.0196 -0.1597
 1296POPI   D2A20372   1.081  10.271   6.513  0.2339  0.3525  0.2127
 1296POPI   C3A20373   0.880  10.399   6.828  0.0643 -0.1955  0.0480
 1296POPI   C4A20374   0.848  10.315   7.222 -0.2593  0.0647 -0.0071
 1296POPI   C1B20375   0.420  10.153   6.085  0.0270  0.0220  0.1273
 1296POPI   C2B20376   0.495  10.243   6.507  0.0572 -0.0887 -0.2150
 1296POPI   C3B20377   0.462  10.195   6.875 -0.2907  0.0549  0.0451
 1296POPI   C4B20378   0.341  10.280   7.338 -0.2578  0.2721  0.1992
 1297POPI    C120379  17.996  15.653   5.292 -0.0202  0.2581  0.1495
 1297POPI    C220380  18.275  15.476   5.068 -0.2937 -0.0071  0.0125
 1297POPI    C320381  18.134  15.835   4.964  0.2601  0.3045  0.2892
 1297POPI   PO420382  18.048  15.738   5.517  0.0235  0.1760 -0.2696
 1297POPI   GL120383  17.805  15.802   5.915 -0.2386 -0.1941 -0.2159
 1297POPI   GL220384  17.846  16.079   5.847 -0.0118 -0.1339 -0.0512
 1297POPI   C1A20385  17.576  15.723   6.315  0.0336 -0.3533  0.0397
 1297POPI   D2A20386  17.358  15.714   6.660 -0.0690  0.2802 -0.0961
 1297POPI   C3A20387  16.908  15.490   6.615  0.0146  0.1765  0.3969
 1297POPI   C4A20388  16.643  15.503   6.273 -0.5066  0.0708 -0.0565
 1297POPI   C1B20389  17.867  16.122   6.278 -0.1913  0.1784  0.1512
 1297POPI   C2B20390  17.745  16.131   6.782 -0.1392 -0.0543  0.0489
 1297POPI   C3B20391  17.697  16.411   7.164  0.4477  0.2233 -0.0207
 1297POPI   C4B20392  17.805  16.601   7.625 -0.0006  0.0811 -0.0978
 1298DPPI    C120393  12.531  17.855   5.395  0.2342 -0.2159 -0.0395
 1298DPPI    C220394  12.176  17.686   5.324  0.1965 -0.0916 -0.1519
 1298DPPI    C320395  12.371  17.872   5.029  0.1730  0.1805  0.0004
 1298DPPI   PO420396  12.610  17.777   5.632  0.0464  0.1791 -0.2360
 1298DPPI   GL120397  12.543  17.881   6.147 -0.1447 -0.0952 -0.2596
 1298DPPI   GL220398  12.421  18.208   6.227  0.0797 -0.1456 -0.2161
 1298DPPI   C1A20399  12.771  17.615   6.470 -0.1924 -0.1763  0.0392
 1298DPPI   C2A20400  12.963  17.422   6.782  0.0608  0.1445 -0.1887
 1298DPPI   C3A20401  13.069  17.339   7.172  0.0812  0.0535  0.0923
 1298DPPI   C4A20402  12.816  17.041   7.492  0.0989 -0.1959 -0.6299
 1298DPPI   C1B20403  12.392  18.137   6.617 -0.1465 -0.1222  0.1129
 1298DPPI   C2B20404  12.385  18.157   7.056 -0.0593 -0.3341  0.1542
 1298DPPI   C3B20405  12.415  18.088   7.484  0.0522 -0.2155  0.3462
 1298DPPI   C4B20406  12.575  18.059   7.874  0.2720 -0.2207  0.0382
 1299DPPI    C120407   6.401  18.322   5.262 -0.0009 -0.1095  0.0708
 1299DPPI    C220408   6.508  18.669   5.093 -0.1105 -0.1864 -0.1612
 1299DPPI    C320409   6.594  18.323   4.911 -0.1151 -0.2768  0.0062
 1299DPPI   PO420410   6.431  18.360   5.462 -0.0474  0.0717  0.0264
 1299DPPI   GL120411   6.643  18.384   5.873  0.1514 -0.3312 -0.2447
 1299DPPI   GL220412   6.992  18.354   5.784 -0.0287 -0.3150  0.1225
 1299DPPI   C1A20413   6.707  18.303   6.281 -0.2624  0.0017  0.0782
 1299DPPI   C2A20414   6.681  18.341   6.746 -0.0777  0.1059 -0.0589
 1299DPPI   C3A20415   6.906  18.404   7.087  0.1249  0.1477  0.0138
 1299DPPI   C4A20416   6.984  18.534   7.447 -0.2734  0.2215  0.0493
 1299DPPI   C1B20417   7.148  18.511   6.285 -0.3733  0.0868  0.2241
 1299DPPI   C2B20418   7.214  18.525   6.707  0.2465  0.2504 -0.1822
 1299DPPI   C3B20419   7.388  18.515   7.098  0.3330  0.1439 -0.1198
 1299DPPI   C4B20420   7.445  18.472   7.581 -0.1507  0.1378  0.2753
 1300DPPI    C120421  10.573   0.209   5.984 -0.0645 -0.0512  0.0630
 1300DPPI    C220422  10.364   0.400   5.702  0.0448 -0.0510 -0.0187
 1300DPPI    C320423  10.762   0.438   5.715  0.0293  0.0486  0.2120
 1300DPPI   PO420424  10.461   0.314   6.205  0.0429 -0.0794  0.0744
 1300DPPI   GL120425  10.627   0.651   6.383 -0.1688  0.3083  0.2120
 1300DPPI   GL220426  10.428   0.585   6.695 -0.0351  0.3797 -0.1634
 1300DPPI   C1A20427  11.010   0.698   6.649  0.2203 -0.0236  0.0242
 1300DPPI   C2A20428  11.196   0.668   7.038 -0.0980  0.2166 -0.0191
 1300DPPI   C3A20429  11.293   0.618   7.450  0.0988 -0.1270  0.1692
 1300DPPI   C4A20430  11.340   0.377   7.788  0.0765 -0.0958  0.3112
 1300DPPI   C1B20431  10.175   0.607   7.080  0.1184 -0.0883 -0.1227
 1300DPPI   C2B20432   9.794   0.786   7.209  0.1621  0.0438  0.0781
 1300DPPI   C3B20433   9.352   0.686   7.413 -0.4184  0.2490  0.1188
 1300DPPI   C4B20434   9.363   0.847   7.854  0.0085 -0.1588 -0.2074
 1301DPPI    C120435  10.370   7.949   5.462 -0.1981 -0.0102  0.2132
 1301DPPI    C220436  10.248   7.842   5.096 -0.1611  0.1819  0.1433
 1301DPPI    C320437  10.436   7.577   5.329 -0.2001  0.0534  0.0306
 1301DPPI   PO420438  10.297   8.184   5.458  0.0978  0.1703  0.2308
 1301DPPI   GL120439  10.333   8.403   5.786  0.0050 -0.4841  0.2259
 1301DPPI   GL220440  10.585   8.346   5.789  0.0089  0.2766 -0.0302
 1301DPPI   C1A20441  10.207   8.424   6.290 -0.1533  0.0430  0.3227
 1301DPPI   C2A20442  10.252   8.213   6.735 -0.1297 -0.4482  0.0775
 1301DPPI   C3A20443  10.199   8.192   7.252  0.4523 -0.2033  0.2954
 1301DPPI   C4A20444  10.182   8.281   7.704  0.4492  0.2272  0.1854
 1301DPPI   C1B20445  10.678   8.552   6.220 -0.0596  0.2036  0.2489
 1301DPPI   C2B20446  10.743   8.433   6.688  0.0005  0.0578  0.2912
 1301DPPI   C3B20447  10.720   8.375   7.132 -0.4786 -0.1330 -0.0032
 1301DPPI   C4B20448  10.608   8.319   7.514 -0.0168  0.0125 -0.1601
 1302DPPI    C120449   9.748   0.336   5.586  0.0212  0.1488  0.1314
 1302DPPI    C220450   9.623   0.618   5.331  0.1966  0.2075  0.1092
 1302DPPI    C320451  10.015   0.558   5.387  0.1683 -0.2676 -0.1509
 1302DPPI   PO420452   9.572   0.191   5.629  0.2247  0.1532 -0.0891
 1302DPPI   GL120453   9.265   0.184   6.070 -0.0661  0.0947  0.2561
 1302DPPI   GL220454   8.913  -0.019   6.268  0.1754  0.1256 -0.1727
 1302DPPI   C1A20455   9.257   0.302   6.516 -0.0880 -0.0364  0.2531
 1302DPPI   C2A20456   9.213   0.199   6.928  0.1852  0.2570 -0.0685
 1302DPPI   C3A20457   9.246   0.020   7.332 -0.1030  0.2246  0.0021
 1302DPPI   C4A20458   9.377   0.011   7.744  0.1806  0.1161  0.0078
 1302DPPI   C1B20459   9.049  -0.170   6.610 -0.0871  0.1370 -0.0350
 1302DPPI   C2B20460   9.074  -0.391   7.012  0.0385 -0.2395 -0.2012
 1302DPPI   C3B20461   9.291  -0.456   7.441  0.1606  0.0907 -0.1461
 1302DPPI   C4B20462   9.347  -0.457   7.966 -0.1491 -0.1346  0.1300
 1303DPPI    C120463  10.296   3.790   5.529 -0.0150 -0.0386  0.0724
 1303DPPI    C220464   9.945   3.915   5.676  0.1283  0.2576  0.1716
 1303DPPI    C320465   9.965   3.575   5.465 -0.3168  0.5133 -0.3022
 1303DPPI   PO420466  10.441   3.964   5.695 -0.2771  0.2508  0.2037
 1303DPPI   GL120467  10.267   3.826   6.054  0.1895  0.0684 -0.0698
 1303DPPI   GL220468  10.315   3.561   6.319 -0.1754 -0.0834 -0.0453
 1303DPPI   C1A20469  10.498   3.994   6.409  0.2055  0.1888 -0.0987
 1303DPPI   C2A20470  10.343   4.018   6.852 -0.0780 -0.0548 -0.1628
 1303DPPI   C3A20471  10.418   3.765   7.224  0.1072  0.1589 -0.0046
 1303DPPI   C4A20472  10.806   3.648   7.374  0.0535 -0.0574 -0.4602
 1303DPPI   C1B20473   9.972   3.920   6.479  0.0993  0.0098 -0.0742
 1303DPPI   C2B20474   9.863   4.042   6.940  0.0095  0.0127  0.2409
 1303DPPI   C3B20475   9.622   4.085   7.289 -0.0429  0.0461  0.1228
 1303DPPI   C4B20476   9.197   4.108   7.326 -0.1475  0.0237  0.0148
 1304DPPI    C120477  16.552   5.476   4.783 -0.1794 -0.0752  0.0329
 1304DPPI    C220478  16.338   5.560   4.454 -0.2198 -0.1342  0.0441
 1304DPPI    C320479  16.213   5.277   4.708 -0.1875 -0.0901  0.1096
 1304DPPI   PO420480  16.599   5.708   4.889 -0.0167 -0.2745  0.1816
 1304DPPI   GL120481  16.514   5.812   5.385 -0.0246  0.0233  0.0659
 1304DPPI   GL220482  16.549   5.606   5.589 -0.0990 -0.4147 -0.3223
 1304DPPI   C1A20483  16.695   6.015   5.871 -0.3288  0.5051 -0.0244
 1304DPPI   C2A20484  16.727   6.083   6.318 -0.0180 -0.0675 -0.1438
 1304DPPI   C3A20485  16.815   6.136   6.721  0.1445 -0.0209  0.1175
 1304DPPI   C4A20486  16.802   6.231   7.140 -0.0815 -0.4766 -0.1011
 1304DPPI   C1B20487  16.560   5.597   6.046 -0.1421 -0.1733 -0.1577
 1304DPPI   C2B20488  16.551   5.615   6.424  0.0545 -0.0657  0.0201
 1304DPPI   C3B20489  16.670   5.664   6.879 -0.3299 -0.0117  0.0900
 1304DPPI   C4B20490  16.682   5.690   7.304  0.1201  0.2714  0.0329
 1305DPPI    C120491   6.679  16.048   4.992  0.0009  0.0675 -0.0336
 1305DPPI    C220492   7.039  16.167   5.118 -0.1079  0.1861  0.1693
 1305DPPI    C320493   7.006  15.844   4.884  0.1342  0.2053  0.1062
 1305DPPI   PO420494   6.536  16.233   5.252 -0.4280 -0.1109  0.2984
 1305DPPI   GL120495   6.672  16.419   5.713 -0.0419  0.2996  0.0686
 1305DPPI   GL220496   6.552  16.076   5.789  0.2608  0.0142  0.0870
 1305DPPI   C1A20497   6.792  16.477   6.174  0.2658  0.1783  0.2239
 1305DPPI   C2A20498   6.895  16.629   6.565  0.0678 -0.0920 -0.2113
 1305DPPI   C3A20499   7.009  16.898   6.862  0.0195 -0.0691  0.1397
 1305DPPI   C4A20500   7.009  17.051   7.332 -0.2412 -0.3876 -0.1050
 1305DPPI   C1B20501   6.510  16.106   6.245  0.0405 -0.2687 -0.1145
 1305DPPI   C2B20502   6.415  16.319   6.635  0.0999 -0.1993  0.1131
 1305DPPI   C3B20503   6.390  16.240   7.101 -0.0285  0.1397  0.0774
 1305DPPI   C4B20504   6.598  16.251   7.472  0.1174  0.1611 -0.1205
 1306DPPI    C120505   7.671  11.691   5.090  0.2363  0.0983  0.1408
 1306DPPI    C220506   8.031  11.805   4.957  0.2475 -0.0005  0.0856
 1306DPPI    C320507   7.837  11.505   4.776 -0.0116  0.2710 -0.0964
 1306DPPI   PO420508   7.698  11.680   5.409  0.3777 -0.3352 -0.3139
 1306DPPI   GL120509   7.639  11.542   5.850 -0.0484 -0.0224  0.0606
 1306DPPI   GL220510   7.502  11.297   6.067  0.3346  0.0870  0.1450
 1306DPPI   C1A20511   7.741  11.645   6.356 -0.0300 -0.0678 -0.1973
 1306DPPI   C2A20512   7.675  11.439   6.804 -0.0055  0.0206  0.1896
 1306DPPI   C3A20513   7.662  11.501   7.269 -0.2986  0.1691 -0.0643
 1306DPPI   C4A20514   7.929  11.400   7.588  0.4667 -0.0069  0.1387
 1306DPPI   C1B20515   7.369  11.280   6.478 -0.0540  0.0577 -0.1264
 1306DPPI   C2B20516   7.359  11.100   6.993 -0.4402 -0.3295 -0.0022
 1306DPPI   C3B20517   7.278  10.944   7.443 -0.3235  0.2225  0.2685
 1306DPPI   C4B20518   7.553  11.094   7.827 -0.3277 -0.0331  0.1253
 1307DPPI    C120519  13.140   3.940   5.058  0.1765  0.2051 -0.1077
 1307DPPI    C220520  12.760   3.874   4.954  0.2063  0.0221 -0.1044
 1307DPPI    C320521  13.046   3.881   4.674  0.1937  0.2144 -0.1134
 1307DPPI   PO420522  13.158   3.810   5.271  0.0190  0.2327  0.0358
 1307DPPI   GL120523  13.281   3.681   5.719 -0.0740 -0.0589  0.3076
 1307DPPI   GL220524  13.469   3.899   5.915  0.2610  0.0664  0.3731
 1307DPPI   C1A20525  13.330   3.530   6.195  0.0292  0.0312 -0.0463
 1307DPPI   C2A20526  13.343   3.646   6.730  0.1113 -0.1091 -0.0026
 1307DPPI   C3A20527  13.325   4.077   7.002  0.1012  0.2480 -0.2376
 1307DPPI   C4A20528  13.351   4.367   7.317  0.0066  0.1209 -0.0436
 1307DPPI   C1B20529  13.442   4.008   6.370 -0.0434  0.0599 -0.0094
 1307DPPI   C2B20530  13.172   4.318   6.548 -0.1244  0.1351 -0.3315
 1307DPPI   C3B20531  12.930   4.368   6.890 -0.2475 -0.3985 -0.0974
 1307DPPI   C4B20532  12.894   4.206   7.275 -0.1016  0.1968 -0.0049
 1308PYPI    C120533   7.256   7.251   4.963 -0.1359 -0.1352  0.0053
 1308PYPI    C220534   7.655   7.223   4.980 -0.1113  0.1675 -0.0191
 1308PYPI    C320535   7.441   6.932   4.808  0.1072  0.0598 -0.1127
 1308PYPI   PO420536   7.238   7.331   5.197  0.4093  0.0611 -0.0202
 1308PYPI   GL120537   7.291   7.207   5.637  0.2560 -0.0341 -0.0743
 1308PYPI   GL220538   7.057   6.998   5.678  0.0095 -0.1248  0.1059
 1308PYPI   C1A20539   7.326   7.601   5.876  0.1340  0.5625 -0.2955
 1308PYPI   C2A20540   7.288   7.773   6.220 -0.1649 -0.2753 -0.1790
 1308PYPI   D3A20541   7.275   8.022   6.595  0.2773  0.0995  0.0831
 1308PYPI   C4A20542   7.073   8.033   7.069 -0.0731  0.3018  0.1320
 1308PYPI   C1B20543   7.214   7.003   6.098 -0.1289  0.1478 -0.0792
 1308PYPI   C2B20544   7.135   6.906   6.502 -0.0457  0.1310 -0.0643
 1308PYPI   C3B20545   7.136   7.028   6.916 -0.2072 -0.3487  0.0329
 1308PYPI   C4B20546   7.229   6.968   7.291  0.0627 -0.1879 -0.2575
 1309PYPI    C120547   8.916  10.137   5.227  0.0413  0.1357  0.0050
 1309PYPI    C220548   9.282  10.133   5.064  0.1255  0.0719  0.1921
 1309PYPI    C320549   8.979  10.313   4.873  0.2430  0.0821  0.0128
 1309PYPI   PO420550   8.959  10.226   5.483 -0.1290 -0.1266 -0.0460
 1309PYPI   GL120551   8.968  10.403   5.842 -0.2301 -0.0151 -0.2339
 1309PYPI   GL220552   8.991  10.706   5.839  0.0703 -0.2751  0.0086
 1309PYPI   C1A20553   9.219  10.446   6.274  0.0107 -0.0542 -0.1414
 1309PYPI   C2A20554   9.269  10.353   6.728  0.0682  0.2763 -0.1741
 1309PYPI   D3A20555   9.063  10.196   7.095 -0.0627  0.0628  0.1392
 1309PYPI   C4A20556   9.229  10.215   7.415 -0.1466  0.4261 -0.1339
 1309PYPI   C1B20557   8.692  10.679   6.192 -0.0117 -0.1298 -0.0350
 1309PYPI   C2B20558   8.847  10.712   6.567 -0.1934 -0.1240  0.0239
 1309PYPI   C3B20559   8.871  10.674   7.024 -0.0616 -0.1038 -0.0018
 1309PYPI   C4B20560   8.936  10.678   7.489  0.2299 -0.2204 -0.0835
 1310PYPI    C120561  12.277  17.382   5.776 -0.0864  0.2003 -0.2674
 1310PYPI    C220562  11.918  17.207   5.746  0.0642 -0.1414 -0.1291
 1310PYPI    C320563  12.180  17.179   5.445 -0.0263  0.1182 -0.2350
 1310PYPI   PO420564  12.352  17.374   6.112 -0.1144 -0.1329  0.2246
 1310PYPI   GL120565  12.261  17.171   6.417  0.0890 -0.2229 -0.1476
 1310PYPI   GL220566  12.503  17.308   6.644  0.0070  0.2095 -0.1058
 1310PYPI   C1A20567  12.101  16.920   6.801  0.0146  0.0801 -0.0503
 1310PYPI   C2A20568  11.964  16.503   6.882 -0.3856 -0.3053  0.0426
 1310PYPI   D3A20569  11.705  16.368   7.210 -0.2516 -0.3066 -0.1375
 1310PYPI   C4A20570  11.701  16.319   7.690  0.1016 -0.2921 -0.0923
 1310PYPI   C1B20571  12.528  17.143   7.049 -0.0957  0.1999 -0.5643
 1310PYPI   C2B20572  12.409  16.753   7.223 -0.0554  0.2930  0.0907
 1310PYPI   C3B20573  12.231  16.386   7.297  0.1727 -0.0332 -0.1117
 1310PYPI   C4B20574  12.176  15.952   7.484 -0.0773  0.0156  0.1823
 1311PYPI    C120575   5.390  14.990   5.614  0.4650 -0.1486 -0.0293
 1311PYPI    C220576   5.285  14.658   5.417  0.4560 -0.1337 -0.0496
 1311PYPI    C320577   5.024  14.836   5.661  0.4040 -0.0478 -0.1666
 1311PYPI   PO420578   5.627  14.852   5.663 -0.0451 -0.3180  0.0003
 1311PYPI   GL120579   5.811  14.822   6.116  0.0009 -0.2796 -0.1638
 1311PYPI   GL220580   6.065  14.533   6.250  0.0699  0.0144  0.0937
 1311PYPI   C1A20581   5.755  15.040   6.560  0.1354  0.2694  0.2713
 1311PYPI   C2A20582   5.839  15.060   6.996  0.1222 -0.2061  0.3589
 1311PYPI   D3A20583   5.788  14.857   7.313  0.0544 -0.0788  0.4066
 1311PYPI   C4A20584   6.081  14.967   7.643 -0.1353  0.2191 -0.2030
 1311PYPI   C1B20585   5.873  14.543   6.631 -0.0864 -0.2773  0.1391
 1311PYPI   C2B20586   5.806  14.351   7.053  0.1177  0.1505  0.0233
 1311PYPI   C3B20587   5.700  14.262   7.542  0.0031 -0.0898  0.0220
 1311PYPI   C4B20588   5.891  14.029   7.865  0.3178  0.1917 -0.0604
 1312PYPI    C120589  13.644   3.878   5.098 -0.0605  0.0491 -0.1726
 1312PYPI    C220590  13.528   3.591   4.844  0.1377 -0.0663 -0.1344
 1312PYPI    C320591  13.875   3.781   4.786  0.1811 -0.0886  0.0462
 1312PYPI   PO420592  13.662   3.768   5.445 -0.3407 -0.1972  0.0804
 1312PYPI   GL120593  13.931   3.683   5.796 -0.0462 -0.3529  0.3209
 1312PYPI   GL220594  14.140   3.874   5.792 -0.0908 -0.0619  0.1004
 1312PYPI   C1A20595  13.815   3.745   6.240  0.2458  0.0714 -0.1229
 1312PYPI   C2A20596  13.830   3.780   6.621 -0.0667  0.0791  0.0234
 1312PYPI   D3A20597  13.969   3.956   7.025 -0.2015 -0.3570 -0.2635
 1312PYPI   C4A20598  13.919   3.785   7.520 -0.2242 -0.1111  0.2233
 1312PYPI   C1B20599  14.330   3.885   6.206  0.0407  0.2138 -0.1860
 1312PYPI   C2B20600  14.324   3.971   6.600 -0.1413  0.1527 -0.0673
 1312PYPI   C3B20601  14.434   4.005   6.998 -0.1026  0.3751 -0.2565
 1312PYPI   C4B20602  14.512   3.909   7.449 -0.0485 -0.0818 -0.1123
 1313PYPI    C120603  15.360   8.097   5.223 -0.2784 -0.0149  0.0084
 1313PYPI    C220604  15.179   8.382   5.009 -0.0308 -0.1430 -0.3828
 1313PYPI    C320605  15.048   8.005   4.991  0.1389 -0.1974 -0.5008
 1313PYPI   PO420606  15.526   8.250   5.369  0.0334  0.1215 -0.0191
 1313PYPI   GL120607  15.413   8.223   5.719  0.3706 -0.1228 -0.0444
 1313PYPI   GL220608  15.161   7.935   5.786 -0.1668  0.0867  0.0753
 1313PYPI   C1A20609  15.344   8.440   6.154  0.3452  0.1414 -0.1368
 1313PYPI   C2A20610  15.259   8.498   6.514  0.0879  0.0292  0.0957
 1313PYPI   D3A20611  15.316   8.572   6.981  0.0168 -0.1923 -0.2358
 1313PYPI   C4A20612  15.348   8.608   7.511  0.0897  0.0553 -0.0288
 1313PYPI   C1B20613  15.211   7.942   6.236 -0.4730  0.0673 -0.2554
 1313PYPI   C2B20614  15.210   8.010   6.675 -0.1959 -0.0332  0.0125
 1313PYPI   C3B20615  15.269   8.075   7.097 -0.1862 -0.2149 -0.1696
 1313PYPI   C4B20616  15.136   8.137   7.525  0.1439  0.0880  0.1068
 1314ERGO   ROH20617  13.503  10.190   5.457  0.0792  0.0087 -0.0733
 1314ERGO    R120618  13.299  10.261   5.640 -0.0790 -0.0429 -0.2270
 1314ERGO    R220619  13.078  10.101   5.687  0.1196 -0.2899 -0.1099
 1314ERGO    R320620  13.158  10.123   5.946  0.0107  0.1330 -0.1045
 1314ERGO    R420621  12.888  10.012   5.962  0.1842 -0.2992 -0.0681
 1314ERGO    R520622  12.961  10.189   6.064 -0.1380 -0.0572 -0.2398
 1314ERGO    C120623  12.853   9.981   6.365  0.1194  0.0925 -0.0387
 1314ERGO    C220624  12.805   9.916   6.712 -0.4629  0.0058 -0.2512
 1315ERGO   ROH20625   9.291   2.064   6.262  0.3466 -0.3251  0.0157
 1315ERGO    R120626   9.168   2.171   6.494  0.2195 -0.1749 -0.1192
 1315ERGO    R220627   8.942   2.058   6.607  0.2202 -0.1580 -0.1156
 1315ERGO    R320628   9.096   2.055   6.831  0.1285  0.0840 -0.0454
 1315ERGO    R420629   8.822   2.016   6.929  0.1116 -0.2343 -0.1656
 1315ERGO    R520630   8.963   2.168   6.996 -0.0978 -0.0355 -0.1328
 1315ERGO    C120631   8.896   1.988   7.326 -0.0376 -0.0514 -0.1288
 1315ERGO    C220632   9.021   1.879   7.664 -0.1039  0.2076 -0.4159
 1316ERGO   ROH20633  13.604  14.885   6.165 -0.1935 -0.3228 -0.1640
 1316ERGO    R120634  13.585  14.708   6.385 -0.2020 -0.2235 -0.0845
 1316ERGO    R220635  13.806  14.625   6.529 -0.1973 -0.2391 -0.1035
 1316ERGO    R320636  13.664  14.719   6.740 -0.1132 -0.1016 -0.1068
 1316ERGO    R420637  13.859  14.535   6.858 -0.2364 -0.2317 -0.0950
 1316ERGO    R520638  13.643  14.531   6.887 -0.2407 -0.0679 -0.0778
 1316ERGO    C120639  13.757  14.572   7.249 -0.1803 -0.0983 -0.0932
 1316ERGO    C220640  13.667  14.542   7.550 -0.1857  0.0470 -0.0396
 1317ERGO   ROH20641  13.302  17.915   6.183 -0.1848 -0.1498 -0.0827
 1317ERGO    R120642  13.241  17.798   6.433 -0.1080 -0.0777 -0.0299
 1317ERGO    R220643  13.436  17.718   6.611 -0.0558  0.1059 -0.0061
 1317ERGO    R320644  13.298  17.877   6.783 -0.1348  0.1022 -0.0647
 1317ERGO    R420645  13.487  17.731   6.953 -0.2518  0.0488  0.0271
 1317ERGO    R520646  13.271  17.743   6.980 -0.2691  0.0759 -0.0980
 1317ERGO    C120647  13.388  17.888   7.313 -0.4401  0.0121 -0.0085
 1317ERGO    C220648  13.556  18.061   7.583  0.0718  0.1344  0.1751
 1318ERGO   ROH20649  13.270   1.212   5.865  0.0304 -0.2232  0.2125
 1318ERGO    R120650  13.249   1.325   6.124 -0.2080 -0.2094  0.1900
 1318ERGO    R220651  13.107   1.204   6.328  0.1195 -0.5240  0.2440
 1318ERGO    R320652  13.342   1.229   6.462  0.0943  0.0936  0.1973
 1318ERGO    R420653  13.137   1.247   6.670  0.0753 -0.3136  0.2214
 1318ERGO    R520654  13.297   1.390   6.633 -0.2643  0.0616  0.1390
 1318ERGO    C120655  13.375   1.297   6.994  0.0258  0.3886  0.1645
 1318ERGO    C220656  13.295   1.138   7.332 -0.2116 -0.4084  0.1362
 1319ERGO   ROH20657  16.059   5.511   5.702  0.2783 -0.1673 -0.1211
 1319ERGO    R120658  15.969   5.607   5.953  0.1275 -0.2892 -0.1287
 1319ERGO    R220659  15.893   5.438   6.158  0.2897 -0.3927 -0.1584
 1319ERGO    R320660  16.076   5.581   6.300  0.1026 -0.1903 -0.1120
 1319ERGO    R420661  15.956   5.399   6.496  0.3210 -0.4034 -0.1642
 1319ERGO    R520662  15.973   5.616   6.513  0.0414 -0.3791 -0.1058
 1319ERGO    C120663  16.165   5.511   6.825  0.1637 -0.2196 -0.1240
 1319ERGO    C220664  16.221   5.568   7.189  0.0333  0.0145 -0.0518
 1320ERGO   ROH20665   7.110  12.611   5.871  0.2326 -0.0786  0.0654
 1320ERGO    R120666   7.272  12.559   6.097  0.1169 -0.1217  0.1395
 1320ERGO    R220667   7.300  12.740   6.305  0.1417 -0.0903  0.1064
 1320ERGO    R320668   7.223  12.527   6.456 -0.0382 -0.0113  0.1299
 1320ERGO    R420669   7.312  12.726   6.650  0.2593 -0.1066  0.1024
 1320ERGO    R520670   7.381  12.520   6.635  0.0277 -0.1873  0.0703
 1320ERGO    C120671   7.247  12.518   6.992  0.1590 -0.0419  0.1221
 1320ERGO    C220672   7.200  12.430   7.383  0.2493  0.1915 -0.0110
 1321ERGO   ROH20673  18.083   4.877   5.355 -0.0363  0.0265 -0.1494
 1321ERGO    R120674  17.964   5.025   5.565  0.0207  0.0691 -0.1472
 1321ERGO    R220675  17.784   4.913   5.743  0.0026  0.1279 -0.1303
 1321ERGO    R320676  17.956   5.009   5.929  0.0420  0.0875 -0.1455
 1321ERGO    R420677  17.711   4.951   6.078  0.0510  0.1092 -0.1176
 1321ERGO    R520678  17.819   5.140   6.075  0.0786  0.0953 -0.1163
 1321ERGO    C120679  17.832   5.063   6.449  0.1161  0.0605 -0.1244
 1321ERGO    C220680  17.872   4.995   6.704  0.2329  0.0045  0.0039
 1322ERGO   ROH20681   8.961   3.803   5.965 -0.0442  0.0231  0.0483
 1322ERGO    R120682   8.893   3.841   6.237  0.0956 -0.0816  0.0995
 1322ERGO    R220683   9.083   3.887   6.433  0.1791  0.1282 -0.0251
 1322ERGO    R320684   8.930   4.106   6.484 -0.0497 -0.0560  0.0944
 1322ERGO    R420685   9.098   4.076   6.722 -0.0151 -0.0094  0.0762
 1322ERGO    R520686   8.881   4.091   6.718 -0.0330 -0.2328  0.0876
 1322ERGO    C120687   8.963   4.391   6.939 -0.3430 -0.2624  0.2474
 1322ERGO    C220688   8.987   4.507   7.289  0.0693  0.2849  0.3472
 1323ERGO   ROH20689   8.450  11.965   5.859  0.1195 -0.1105  0.0719
 1323ERGO    R120690   8.555  11.882   6.109  0.0473 -0.1891  0.0754
 1323ERGO    R220691   8.516  12.027   6.342  0.2182 -0.1141  0.0537
 1323ERGO    R320692   8.420  11.790   6.434 -0.0314 -0.0003  0.0989
 1323ERGO    R420693   8.501  11.937   6.675  0.3558 -0.1272  0.0583
 1323ERGO    R520694   8.563  11.736   6.619  0.0447 -0.2120 -0.0158
 1323ERGO    C120695   8.402  11.663   6.956  0.2015 -0.0279  0.1033
 1323ERGO    C220696   8.299  11.575   7.298 -0.0347  0.0323  0.1189
 1324ERGO   ROH20697  18.079   0.341   5.892 -0.0460 -0.0694  0.0086
 1324ERGO    R120698  18.215   0.395   6.135 -0.0151 -0.0277 -0.0172
 1324ERGO    R220699  18.108   0.555   6.333  0.0491  0.0858 -0.0670
 1324ERGO    R320700  18.157   0.337   6.489 -0.0213  0.1225  0.0053
 1324ERGO    R420701  18.094   0.552   6.678 -0.2234  0.1262 -0.0762
 1324ERGO    R520702  18.271   0.426   6.680 -0.1962  0.1731  0.0843
 1324ERGO    C120703  18.131   0.347   7.026 -0.4477  0.1842 -0.0136
 1324ERGO    C220704  18.198   0.363   7.428 -0.1200 -0.2241  0.1394
 1325ERGO   ROH20705   3.398   2.780   6.078  0.1270 -0.1588  0.0324
 1325ERGO    R120706   3.410   2.617   6.309  0.0158 -0.1114  0.0726
 1325ERGO    R220707   3.626   2.621   6.481  0.0600 -0.2818  0.0228
 1325ERGO    R320708   3.435   2.670   6.668  0.1496 -0.0395  0.0533
 1325ERGO    R420709   3.629   2.497   6.804 -0.0160 -0.2396  0.0397
 1325ERGO    R520710   3.414   2.464   6.788 -0.0593 -0.0010  0.0866
 1325ERGO    C120711   3.451   2.472   7.168  0.0239  0.0125  0.0782
 1325ERGO    C220712   3.495   2.524   7.581 -0.0417 -0.0679 -0.2815
 1326ERGO   ROH20713   0.091  14.957   5.929 -0.0713  0.0433 -0.0102
 1326ERGO    R120714   0.293  14.909   6.121 -0.0485 -0.1888 -0.0899
 1326ERGO    R220715   0.352  15.089   6.322  0.4321 -0.1182 -0.2865
 1326ERGO    R320716   0.311  14.873   6.483  0.0928  0.1036 -0.0635
 1326ERGO    R420717   0.483  15.052   6.640  0.5344 -0.0653 -0.3219
 1326ERGO    R520718   0.521  14.842   6.595  0.1029 -0.1954 -0.1504
 1326ERGO    C120719   0.520  14.829   6.976  0.2754  0.1737 -0.1331
 1326ERGO    C220720   0.565  14.763   7.392  0.0717 -0.4753 -0.0740
 1327ERGO   ROH20721   6.702   7.978   5.912 -0.3087 -0.0617 -0.0296
 1327ERGO    R120722   6.630   7.877   6.167 -0.3521  0.0003 -0.0151
 1327ERGO    R220723   6.815   7.837   6.369 -0.3162 -0.3064 -0.0914
 1327ERGO    R320724   6.645   7.994   6.511 -0.0311 -0.0690 -0.0049
 1327ERGO    R420725   6.762   7.813   6.709 -0.1528 -0.1818 -0.0569
 1327ERGO    R520726   6.550   7.847   6.674 -0.1261  0.0844  0.0702
 1327ERGO    C120727   6.571   7.946   7.041  0.2101  0.1136  0.0445
 1327ERGO    C220728   6.433   8.016   7.368  0.2589 -0.2516 -0.1200
 1328ERGO   ROH20729   8.067  16.079   5.874  0.0163 -0.1501  0.0754
 1328ERGO    R120730   7.953  15.989   6.117 -0.0135 -0.0344  0.1059
 1328ERGO    R220731   8.106  15.911   6.333 -0.0355 -0.1304  0.0924
 1328ERGO    R320732   7.955  16.095   6.465  0.1294  0.0053  0.0925
 1328ERGO    R420733   8.045  15.907   6.673 -0.2702 -0.2375  0.0502
 1328ERGO    R520734   7.839  15.967   6.632 -0.1612  0.0722 -0.0565
 1328ERGO    C120735   7.868  16.078   6.996 -0.2519 -0.1724  0.0256
 1328ERGO    C220736   7.742  16.138   7.347 -0.2003  0.1627 -0.3135
 1329ERGO   ROH20737   3.317   4.494   6.090 -0.1978 -0.1619 -0.0910
 1329ERGO    R120738   3.149   4.599   6.292 -0.0772 -0.1369 -0.0016
 1329ERGO    R220739   3.049   4.443   6.497 -0.0274 -0.1330  0.0312
 1329ERGO    R320740   3.163   4.634   6.654  0.1008 -0.1807 -0.0038
 1329ERGO    R420741   2.948   4.520   6.819 -0.0124  0.0376 -0.0048
 1329ERGO    R520742   2.978   4.731   6.772  0.1627 -0.0004 -0.0568
 1329ERGO    C120743   2.996   4.744   7.153  0.1167  0.0921 -0.0586
 1329ERGO    C220744   3.149   4.709   7.446 -0.0309 -0.2914 -0.0291
 1330ERGO   ROH20745   4.140  13.138   5.759  0.4332 -0.1058  0.0274
 1330ERGO    R120746   4.204  13.036   6.015  0.2850  0.0300  0.1205
 1330ERGO    R220747   4.154  13.176   6.248 -0.0989  0.0411  0.0357
 1330ERGO    R320748   4.022  12.949   6.318  0.0693 -0.0817 -0.0369
 1330ERGO    R420749   4.070  13.088   6.571 -0.2842  0.0245 -0.0161
 1330ERGO    R520750   4.123  12.882   6.524 -0.0332  0.0635  0.0657
 1330ERGO    C120751   3.896  12.823   6.825 -0.2342 -0.1006 -0.1144
 1330ERGO    C220752   3.627  12.672   7.065  0.0881  0.3828  0.0659
 1331ERGO   ROH20753   2.336   4.593   6.031  0.1959  0.2104 -0.1540
 1331ERGO    R120754   2.237   4.803   6.193  0.0447  0.1601 -0.1796
 1331ERGO    R220755   2.136   4.759   6.447  0.0280  0.1119 -0.1916
 1331ERGO    R320756   2.319   4.948   6.517 -0.0925  0.2230 -0.1735
 1331ERGO    R420757   2.115   4.960   6.727  0.0126 -0.0728 -0.0589
 1331ERGO    R520758   2.188   5.127   6.607 -0.1907  0.0604  0.0053
 1331ERGO    C120759   2.275   5.254   6.956 -0.1095 -0.0760  0.0355
 1331ERGO    C220760   2.298   5.380   7.307 -0.0789  0.0459  0.1670
 1332ERGO   ROH20761  10.242  10.588   5.530  0.0846 -0.0900 -0.0711
 1332ERGO    R120762  10.450  10.479   5.689  0.0715 -0.0448 -0.0228
 1332ERGO    R220763  10.548  10.605   5.914 -0.0092 -0.0240 -0.0008
 1332ERGO    R320764  10.490  10.368   6.033  0.0161 -0.0369 -0.0134
 1332ERGO    R420765  10.581  10.541   6.252 -0.1921  0.0264  0.0283
 1332ERGO    R520766  10.659  10.343   6.201 -0.0763  0.0522  0.0954
 1332ERGO    C120767  10.546  10.280   6.560 -0.2749  0.0435  0.0334
 1332ERGO    C220768  10.783  10.280   6.832  0.2002  0.0025 -0.3345
 1333ERGO   ROH20769   5.302  14.727   6.107  0.2103  0.3551 -0.0031
 1333ERGO    R120770   5.402  14.760   6.370  0.1132  0.4045  0.0285
 1333ERGO    R220771   5.256  14.881   6.570 -0.0529  0.2385  0.0129
 1333ERGO    R320772   5.308  14.650   6.704  0.1260  0.2616 -0.0147
 1333ERGO    R420773   5.286  14.854   6.914 -0.2181  0.1863  0.0241
 1333ERGO    R520774   5.452  14.716   6.883 -0.0479  0.3767  0.0841
 1333ERGO    C120775   5.353  14.621   7.239 -0.1463  0.1777  0.0047
 1333ERGO    C220776   5.303  14.510   7.624 -0.2271 -0.3381  0.2018
 1334ERGO   ROH20777   1.343   7.100   5.423  0.2287 -0.1371 -0.0142
 1334ERGO    R120778   1.241   7.009   5.671  0.0939 -0.0494 -0.0356
 1334ERGO    R220779   1.403   6.899   5.866 -0.0425 -0.1834  0.0050
 1334ERGO    R320780   1.290   7.090   6.022  0.0815 -0.0849 -0.0260
 1334ERGO    R420781   1.414   6.903   6.211 -0.0787 -0.1588  0.0056
 1334ERGO    R520782   1.207   6.971   6.212 -0.0290 -0.0048 -0.0241
 1334ERGO    C120783   1.316   7.086   6.559  0.0166 -0.0520 -0.0232
 1334ERGO    C220784   1.466   7.001   6.865 -0.2067 -0.0729 -0.1205
 1335ERGO   ROH20785   5.776   4.989   6.370  0.1531  0.1213  0.2237
 1335ERGO    R120786   5.577   4.864   6.527  0.0117 -0.0227 -0.0596
 1335ERGO    R220787   5.529   4.592   6.518  0.3212 -0.0860 -0.0287
 1335ERGO    R320788   5.567   4.609   6.787 -0.1495  0.0812  0.0368
 1335ERGO    R420789   5.513   4.325   6.737  0.3611 -0.0211  0.0533
 1335ERGO    R520790   5.410   4.454   6.879 -0.0731 -0.1172 -0.1655
 1335ERGO    C120791   5.540   4.185   7.116 -0.0576  0.1736  0.1626
 1335ERGO    C220792   5.635   4.026   7.456 -0.3120  0.2004  0.0647
 1336ERGO   ROH20793   3.450  16.279   6.004 -0.0143 -0.1212  0.0053
 1336ERGO    R120794   3.542  16.321   6.268  0.0235 -0.0567 -0.0171
 1336ERGO    R220795   3.377  16.415   6.469  0.0516 -0.0016 -0.0149
 1336ERGO    R320796   3.462  16.192   6.599  0.0649  0.0269  0.0246
 1336ERGO    R420797   3.324  16.350   6.805 -0.0406 -0.0055 -0.0304
 1336ERGO    R520798   3.527  16.270   6.816 -0.0279  0.0485  0.0416
 1336ERGO    C120799   3.372  16.102   7.122 -0.0818  0.0192 -0.0022
 1336ERGO    C220800   3.063  16.283   7.327 -0.4266 -0.0941  0.1316
 1337ERGO   ROH20801   4.826   8.523   5.618 -0.0711  0.0575 -0.0960
 1337ERGO    R120802   4.864   8.410   5.875 -0.2189 -0.1026 -0.1426
 1337ERGO    R220803   4.987   8.548   6.081  0.0627 -0.3869 -0.1170
 1337ERGO    R320804   4.759   8.487   6.215 -0.0253 -0.0364 -0.0954
 1337ERGO    R420805   4.952   8.556   6.424  0.1041 -0.3077 -0.1138
 1337ERGO    R520806   4.834   8.373   6.411 -0.1758 -0.1390 -0.0928
 1337ERGO    C120807   4.717   8.503   6.750  0.0455  0.0675 -0.0916
 1337ERGO    C220808   4.642   8.575   7.056  0.0447  0.0118 -0.1505
 1338ERGO   ROH20809  15.838   0.705   5.829  0.0841 -0.0480  0.0214
 1338ERGO    R120810  15.876   0.571   6.075 -0.0073 -0.0562  0.0311
 1338ERGO    R220811  16.093   0.619   6.239  0.0346 -0.2041  0.0185
 1338ERGO    R320812  15.901   0.664   6.426  0.0742 -0.0456  0.0229
 1338ERGO    R420813  16.150   0.641   6.579  0.0848 -0.0877  0.0030
 1338ERGO    R520814  15.967   0.528   6.612  0.0395  0.0023  0.0714
 1338ERGO    C120815  16.003   0.697   6.952  0.1511  0.1287 -0.0019
 1338ERGO    C220816  15.934   0.768   7.193 -0.0262 -0.1729 -0.1788
 1339ERGO   ROH20817   9.498   9.456   5.685  0.0219 -0.2709  0.0143
 1339ERGO    R120818   9.553   9.540   5.950  0.0442 -0.2293 -0.0024
 1339ERGO    R220819   9.355   9.581   6.137  0.0427 -0.0305 -0.0383
 1339ERGO    R320820   9.502   9.408   6.285 -0.0997 -0.0947  0.0284
 1339ERGO    R420821   9.396   9.600   6.479  0.1216  0.1048 -0.0555
 1339ERGO    R520822   9.606   9.545   6.452  0.0612 -0.1105 -0.0617
 1339ERGO    C120823   9.559   9.449   6.818  0.0339  0.1232 -0.0029
 1339ERGO    C220824   9.589   9.472   7.269  0.0046  0.2049  0.1276
 1340ERGO   ROH20825  13.889   4.343   5.798  0.0096 -0.3145  0.0560
 1340ERGO    R120826  13.806   4.239   6.048  0.0866 -0.1728  0.1420
 1340ERGO    R220827  13.969   4.238   6.270  0.1401 -0.0038  0.1066
 1340ERGO    R320828  13.760   4.368   6.385  0.1441  0.0324  0.0727
 1340ERGO    R420829  13.961   4.347   6.598  0.0110 -0.2151  0.1749
 1340ERGO    R520830  13.753   4.282   6.609 -0.0299 -0.1112  0.0133
 1340ERGO    C120831  13.759   4.532   6.897 -0.0603 -0.3041  0.1830
 1340ERGO    C220832  13.699   4.759   7.209  0.2830 -0.0452  0.1945
 1341ERGO   ROH20833  10.105  13.652   6.046  0.2309  0.2383 -0.1325
 1341ERGO    R120834  10.150  13.562   6.311  0.0672  0.1550 -0.1316
 1341ERGO    R220835  10.360  13.653   6.465  0.1277 -0.0880 -0.0651
 1341ERGO    R320836  10.162  13.712   6.642  0.1414  0.1009 -0.1099
 1341ERGO    R420837  10.411  13.737   6.796  0.1290 -0.2167 -0.0321
 1341ERGO    R520838  10.238  13.615   6.849 -0.0273 -0.0306 -0.1078
 1341ERGO    C120839  10.255  13.841   7.156  0.1428 -0.1143 -0.0549
 1341ERGO    C220840  10.279  14.091   7.314 -0.1147  0.0014  0.1730
 1342ERGO   ROH20841  14.311   9.142   5.805  0.2493 -0.1681  0.0401
 1342ERGO    R120842  14.479   9.229   6.016  0.2675 -0.2862  0.0737
 1342ERGO    R220843  14.382   9.356   6.241  0.3304 -0.0152 -0.0546
 1342ERGO    R320844  14.517   9.159   6.371 -0.0141 -0.1338  0.1386
 1342ERGO    R420845  14.457   9.356   6.579  0.4267  0.2575 -0.0724
 1342ERGO    R520846  14.653   9.274   6.530  0.2650 -0.1914 -0.0431
 1342ERGO    C120847  14.627   9.170   6.896  0.1594  0.3048  0.0987
 1342ERGO    C220848  14.561   9.176   7.322 -0.1880 -0.0255 -0.0252
 1343ERGO   ROH20849  11.480   6.203   5.588 -0.0688 -0.0664  0.0327
 1343ERGO    R120850  11.418   6.293   5.849 -0.0624 -0.2141  0.0877
 1343ERGO    R220851  11.394   6.120   6.063  0.1768 -0.3156  0.0445
 1343ERGO    R320852  11.578   6.286   6.176  0.0636 -0.1781  0.0256
 1343ERGO    R420853  11.453   6.149   6.403 -0.0091 -0.0496  0.0557
 1343ERGO    R520854  11.473   6.365   6.376 -0.0634 -0.0660 -0.0874
 1343ERGO    C120855  11.660   6.322   6.706 -0.2236  0.2344  0.0445
 1343ERGO    C220856  11.714   6.349   7.091  0.0426 -0.2809 -0.3355
 1344ERGO   ROH20857   1.385   8.359   5.588  0.0545  0.1497  0.0669
 1344ERGO    R120858   1.208   8.504   5.755 -0.1028 -0.0640  0.0916
 1344ERGO    R220859   1.046   8.381   5.942  0.0994 -0.2627  0.1469
 1344ERGO    R320860   1.165   8.556   6.112 -0.0865 -0.0822  0.0952
 1344ERGO    R420861   1.034   8.360   6.286 -0.0971 -0.0117  0.1578
 1344ERGO    R520862   1.011   8.577   6.294 -0.2035 -0.0188 -0.0132
 1344ERGO    C120863   1.139   8.512   6.647 -0.3860  0.3040  0.1156
 1344ERGO    C220864   1.157   8.461   7.014 -0.0230 -0.1498 -0.1934
 1345ERGO   ROH20865  14.992  15.145   5.856 -0.0502  0.0571  0.0141
 1345ERGO    R120866  15.027  15.039   6.116  0.1623 -0.0439 -0.0529
 1345ERGO    R220867  15.270  15.041   6.246  0.1863  0.2724 -0.0916
 1345ERGO    R320868  15.128  15.165   6.442  0.0106 -0.0686  0.0042
 1345ERGO    R420869  15.365  15.060   6.578  0.1545  0.1527 -0.0753
 1345ERGO    R520870  15.158  15.026   6.635  0.1980 -0.1759 -0.1005
 1345ERGO    C120871  15.287  15.188   6.955 -0.0289 -0.2371  0.0241
 1345ERGO    C220872  15.258  15.110   7.328 -0.1098 -0.0308 -0.1723
 1346ERGO   ROH20873   1.251   5.842   5.490 -0.3180  0.1725 -0.0772
 1346ERGO    R120874   1.223   5.969   5.741 -0.3507  0.0677 -0.0261
 1346ERGO    R220875   0.996   5.944   5.896 -0.2789 -0.1959  0.0502
 1346ERGO    R320876   1.173   5.865   6.086 -0.1333 -0.0933 -0.0424
 1346ERGO    R420877   0.952   5.986   6.237 -0.0195 -0.0315  0.0648
 1346ERGO    R520878   1.164   6.037   6.252 -0.0126 -0.0154 -0.1196
 1346ERGO    C120879   1.094   5.936   6.613  0.2683  0.1606 -0.0137
 1346ERGO    C220880   1.085   6.060   6.867  0.1342  0.0539 -0.0706
 1347W        W20881   5.308   9.832   3.198 -0.1887  0.0854  0.2179
 1348W        W20882  13.642   0.596   0.831  0.2192  0.1328 -0.1794
 1349W        W20883   8.473  14.890   4.562 -0.3550  0.1647 -0.0534
 1350W        W20884   7.964   9.555  14.623  0.2746 -0.0078  0.0388
 1351W        W20885  18.055   8.896   3.317 -0.0750  0.1816 -0.1806
 1352W        W20886   4.405  10.800   4.683 -0.0415  0.1229 -0.0152
 1353W        W20887  18.324   1.290  13.903  0.2933  0.0403  0.2329
 1354W        W20888   7.404   2.816  12.622 -0.0305 -0.0185  0.0958
 1355W        W20889  16.574  11.912  15.808  0.0940 -0.0587  0.0133
 1356W        W20890   1.355   8.958  15.072 -0.0224  0.2358  0.0280
 1357W        W20891   8.210  17.984  11.828  0.1169 -0.0245  0.0526
 1358W        W20892  13.950  12.195  13.784  0.1269 -0.2539 -0.3414
 1359W        W20893   9.626   1.933  11.724  0.0919 -0.2147  0.2015
 1360W        W20894  13.648   3.496   0.496 -0.1054 -0.0889 -0.0973
 1361W        W20895   6.092  16.082   4.401  0.2408 -0.0549 -0.2410
 1362W        W20896  10.338   9.911   4.071  0.1307 -0.1036 -0.2877
 1363W        W20897   8.242   0.439  14.200  0.2565 -0.3335 -0.1718
 1364W        W20898  14.922  11.723   4.027 -0.1428  0.0938  0.1291
 1365W        W20899   6.014   5.746  14.211 -0.0466  0.3226 -0.0559
 1366W        W20900   4.231  13.979   4.306  0.0889 -0.1225 -0.0254
 1367W        W20901  11.931  12.271  15.730  0.3781  0.1079  0.1711
 1368W        W20902  15.368   1.539   0.305 -0.1219  0.2970 -0.0893
 1369W        W20903   1.248  17.399   4.700  0.1125  0.3911 -0.0656
 1370W        W20904   9.141  12.581   3.014  0.1489 -0.0758  0.2572
 1371W        W20905   2.874  11.057  14.623  0.0085  0.1050  0.0772
 1372W        W20906  17.470   8.539   5.338 -0.1079 -0.1231 -0.1221
 1373W        W20907   3.569   2.314  12.754 -0.0999  0.1877 -0.2742
 1374W        W20908   7.020   1.678   5.522  0.0672 -0.0432 -0.0636
 1375W        W20909  16.514  18.162  13.993  0.4074 -0.0458 -0.1740
 1376W        W20910   3.357   8.380  11.984  0.0927  0.0518  0.3385
 1377W        W20911   0.218  10.348  15.145 -0.2132 -0.0485  0.3025
 1378W        W20912   8.843  17.885   4.095 -0.0747  0.1145 -0.2119
 1379W        W20913   9.650   5.231   3.817 -0.2464  0.2541  0.1194
 1380W        W20914   6.819  10.747   4.418  0.0566 -0.2737  0.0334
 1381W        W20915  15.688   2.732  11.531  0.1030 -0.1472  0.1670
 1382W        W20916   3.858  14.057  15.284  0.0770  0.2517  0.0303
 1383W        W20917  10.531  15.126  14.373 -0.0300  0.2154  0.1153
 1384W        W20918  13.561  12.569  12.615 -0.0901 -0.2877  0.0127
 1385W        W20919   3.985  16.271   1.556 -0.2667  0.0017 -0.1720
 1386W        W20920   8.091   3.062  13.929  0.0049  0.0190 -0.0149
 1387W        W20921  13.150   6.478  15.765  0.2638 -0.2497  0.0278
 1388W        W20922   0.814  10.492   0.467 -0.1030  0.2229 -0.0739
 1389W        W20923  11.904   5.421  13.724  0.0951  0.0027 -0.2243
 1390W        W20924   7.989   5.261   1.669  0.3343 -0.0677 -0.0748
 1391W        W20925  16.188  11.208  14.868 -0.0470  0.1632 -0.1337
 1392W        W20926  15.158  10.949  14.228 -0.0233  0.0319  0.2464
 1393W        W20927  16.934   4.840   0.909  0.0106 -0.1612 -0.2000
 1394W        W20928  10.251  12.627   0.890 -0.1561 -0.0416 -0.0405
 1395W        W20929   7.622   5.596  11.496  0.1784  0.2027 -0.1271
 1396W        W20930   0.059  18.317   3.668  0.1423 -0.0411  0.2757
 1397W        W20931  11.208   6.403   4.338  0.0982 -0.4044 -0.0526
 1398W        W20932  16.031   2.426  11.897  0.0407  0.0177  0.2214
 1399W        W20933  11.781  13.852   4.935  0.0497 -0.0553 -0.2198
 1400W        W20934   1.581   8.323  11.061  0.1357 -0.3558  0.0379
 1401W        W20935  10.596   0.850   0.427 -0.1254  0.1413  0.2822
 1402W        W20936  12.303  17.661  12.497 -0.1022  0.1441 -0.0313
 1403W        W20937   8.596   6.396   4.257 -0.1767  0.1094  0.0530
 1404W        W20938  16.333  14.359   0.263 -0.0356  0.1652  0.2400
 1405W        W20939  12.299   0.610   3.862 -0.0519  0.3029 -0.0825
 1406W        W20940  14.732   7.131   0.263 -0.0777 -0.1060 -0.1909
 1407W        W20941  13.020   6.550   4.263 -0.0818  0.2460 -0.1269
 1408W        W20942   3.043   8.497   4.257 -0.0703 -0.0689 -0.0959
 1409W        W20943  13.602   3.978  13.137  0.1766 -0.5221 -0.0778
 1410W        W20944  15.868  12.303   1.988  0.2110 -0.0929  0.2600
 1411W        W20945   2.084   3.454  11.993 -0.2376  0.0422  0.0171
 1412W        W20946  10.754   4.069   4.415 -0.3253  0.0536 -0.0425
 1413W        W20947   4.400  17.416   1.205  0.2103 -0.0123 -0.2453
 1414W        W20948   3.734   5.711  14.183  0.0884 -0.1408  0.1167
 1415W        W20949  13.425  11.431   2.043 -0.0827  0.3278 -0.0405
 1416W        W20950  10.300   0.376   0.512 -0.0496  0.2820  0.0133
 1417W        W20951   6.628  16.113  13.743 -0.0108 -0.1753 -0.2739
 1418W        W20952   4.523   8.258  14.836  0.1694 -0.0235 -0.1854
 1419W        W20953   9.913   5.719  12.947 -0.0216  0.0229  0.2539
 1420W        W20954  15.392   0.017   0.727  0.2306 -0.0316 -0.0901
 1421W        W20955   7.542  10.166  14.910 -0.0885  0.1224  0.0805
 1422W        W20956   5.579   1.085   1.410 -0.0494  0.1820 -0.0087
 1423W        W20957  12.406  12.126   0.264 -0.0192 -0.0471  0.1542
 1424W        W20958  18.305  13.145  11.947  0.1124 -0.0421  0.3143
 1425W        W20959  13.052  16.230  14.256  0.1747 -0.1090 -0.0595
 1426W        W20960  15.438   5.081  11.460  0.1335  0.1189  0.3151
 1427W        W20961   5.759   5.960   3.602 -0.2111  0.1839 -0.1189
 1428W        W20962   9.592  11.271   0.854  0.1515 -0.2437  0.0290
 1429W        W20963  14.634  16.763   1.004  0.1978  0.0399  0.0488
 1430W        W20964  17.226   7.784  11.933 -0.3490 -0.0932  0.1321
 1431W        W20965  10.066  13.092  14.163 -0.1337  0.0153 -0.1804
 1432W        W20966  13.461   8.589  15.515 -0.0212  0.2688  0.0075
 1433W        W20967  18.374   3.358   1.980 -0.0908  0.0598 -0.1066
 1434W        W20968   6.031   2.444  12.521  0.1826 -0.0241  0.1740
 1435W        W20969   0.325  12.565   4.246  0.2364 -0.1320  0.0082
 1436W        W20970  16.239   7.678   3.585  0.1957  0.1200 -0.1279
 1437W        W20971   1.705  12.008  15.108 -0.2459  0.1115 -0.1027
 1438W        W20972   7.921  14.921   1.191 -0.0431  0.2250  0.0421
 1439W        W20973  15.579   9.495  12.016  0.1683 -0.1886  0.0362
 1440W        W20974   3.821  17.910   3.890  0.0145  0.1611  0.0818
 1441W        W20975   6.401  17.765   1.253 -0.2555 -0.0515 -0.1497
 1442W        W20976  16.101  13.526  12.569 -0.2494  0.0525 -0.2235
 1443W        W20977  13.285   2.348   0.630 -0.0789  0.2197 -0.1687
 1444W        W20978  12.368  15.760   5.173 -0.2613  0.3751  0.0663
 1445W        W20979   5.148  14.477   2.881 -0.3484  0.0518 -0.1719
 1446W        W20980  15.218   3.558  15.089  0.0048 -0.0492 -0.0129
 1447W        W20981   6.488  10.260  13.163  0.0663  0.0924  0.0895
 1448W        W20982  17.751   6.679  14.623 -0.1121 -0.0180 -0.0472
 1449W        W20983   3.654   4.965   1.934  0.0116  0.2244  0.0097
 1450W        W20984   4.388   8.519  14.351 -0.3337 -0.0814 -0.2251
 1451W        W20985   9.760  17.918  12.507  0.0556 -0.0639 -0.1076
 1452W        W20986  11.447   4.823   0.474  0.2510  0.1764  0.0844
 1453W        W20987   9.733   0.487   1.838 -0.1821  0.2521 -0.2974
 1454W        W20988  14.167   2.955   2.688  0.3455  0.1288  0.1355
 1455W        W20989  16.605   3.425  13.148  0.0703  0.0789  0.1788
 1456W        W20990   0.584   8.701  13.368  0.1268 -0.1258  0.0665
 1457W        W20991  14.536  12.148  15.525  0.2237 -0.2531  0.0180
 1458W        W20992   2.058   9.984  13.120 -0.2360  0.0439 -0.0947
 1459W        W20993  13.130   3.151   0.126  0.1512  0.0089 -0.1132
 1460W        W20994  10.703   0.532   0.830 -0.0524 -0.0846 -0.0984
 1461W        W20995  17.423  12.275  14.016 -0.1366  0.0743  0.1297
 1462W        W20996  17.415   7.177   0.978  0.0513 -0.1044 -0.2500
 1463W        W20997  15.829   9.319  15.116  0.0896 -0.0157 -0.3535
 1464W        W20998   8.941   8.019   1.739 -0.0529  0.1357 -0.0243
 1465W        W20999   1.563   8.064  13.087  0.2054 -0.0593  0.0370
 1466W        W21000  12.763  14.584  12.162  0.2844  0.0148 -0.0316
 1467W        W21001   6.286   0.540   4.121  0.3814  0.1861  0.1730
 1468W        W21002   3.275   4.937  13.634  0.1231  0.2531  0.1684
 1469W        W21003  15.671   5.921  14.950  0.0692 -0.0036 -0.1671
 1470W        W21004  10.828   2.999  15.565 -0.0684 -0.2541 -0.0774
 1471W        W21005  14.676   2.734  15.181 -0.1868 -0.0526  0.0007
 1472W        W21006  13.373   6.525   3.873 -0.2919  0.3934 -0.1077
 1473W        W21007  12.548   3.567   3.959  0.4672 -0.1327 -0.1284
 1474W        W21008  17.613   3.701  13.233  0.2054 -0.3664  0.3479
 1475W        W21009   2.404  16.832  12.440 -0.1798  0.1469  0.0068
 1476W        W21010   5.362  13.943   1.381  0.1548 -0.0244 -0.1488
 1477W        W21011   3.463   6.575  13.776  0.0193  0.1068 -0.0087
 1478W        W21012  13.956   2.976  14.116 -0.1280  0.0676  0.0397
 1479W        W21013  14.711   0.528  13.352  0.1502  0.4371 -0.0791
 1480W        W21014  14.487  17.211   3.720 -0.2031  0.2088  0.0743
 1481W        W21015   9.749  16.746   0.246 -0.0182 -0.2064  0.2742
 1482W        W21016   4.017  14.216   0.296  0.4762  0.0027 -0.1110
 1483W        W21017  18.295   9.266   2.232 -0.0600  0.1845 -0.0582
 1484W        W21018  14.672   1.562  11.686  0.1651  0.0824 -0.0170
 1485W        W21019  11.724  13.391  15.024 -0.0859  0.0026  0.3222
 1486W        W21020   4.297   6.361   0.964 -0.4282  0.1712 -0.0478
 1487W        W21021  13.086  15.700  14.040  0.1680  0.2482  0.0498
 1488W        W21022   8.023  10.218   1.030  0.1305 -0.0438 -0.2166
 1489W        W21023   7.323  13.932   0.186  0.0962 -0.0165  0.1094
 1490W        W21024   7.588  14.997   4.841  0.1445  0.4835  0.0238
 1491W        W21025  10.980  17.190   2.606 -0.1170  0.1062  0.1958
 1492W        W21026  16.525   3.925  13.699 -0.1518 -0.0418  0.2982
 1493W        W21027  16.406  17.051  14.775  0.0535  0.1880  0.4232
 1494W        W21028   5.556   2.853   0.302  0.0572 -0.1270 -0.1768
 1495W        W21029  11.956   1.996  13.403  0.3661  0.0214  0.2227
 1496W        W21030  12.429   9.471   2.264 -0.0290 -0.0999 -0.0899
 1497W        W21031   6.816   4.600  14.093 -0.0168 -0.0112 -0.1720
 1498W        W21032  11.563  17.155   1.436 -0.0191 -0.0275 -0.1543
 1499W        W21033  11.012   5.278   1.800 -0.1176  0.1576 -0.2208
 1500W        W21034   1.927  17.944   3.358  0.0999 -0.1087 -0.0316
 1501W        W21035   2.805   7.089  11.670  0.0650  0.2568  0.0819
 1502W        W21036   1.687   6.582   4.227  0.0107  0.2434  0.2401
 1503W        W21037   0.835  12.486  11.221  0.0105  0.0884 -0.0009
 1504W        W21038   8.249   1.222   3.353 -0.0218 -0.2692 -0.0152
 1505W        W21039  14.430   2.514   0.027 -0.2655  0.2772 -0.0454
 1506W        W21040   3.142   0.192   2.800  0.0420  0.0657 -0.1342
 1507W        W21041   9.512   5.287   2.688  0.3672  0.2655 -0.0806
 1508W        W21042  14.574   6.898   1.467 -0.0569 -0.1173 -0.0540
 1509W        W21043   3.281  11.257   3.320  0.3396 -0.1552  0.1318
 1510W        W21044  10.818  15.148   4.366 -0.1400  0.0268 -0.1704
 1511W        W21045  17.145   2.607  13.065 -0.0405  0.1567 -0.1431
 1512W        W21046  14.971  10.232  14.838  0.1060 -0.4076  0.2733
 1513W        W21047   8.924  16.834   3.291  0.4341 -0.2201 -0.0129
 1514W        W21048  11.332  10.539  14.123  0.0345 -0.4325 -0.1012
 1515W        W21049   7.865   5.425  12.846 -0.5239 -0.1458  0.1922
 1516W        W21050  14.817  15.456  12.452  0.3011  0.2871  0.0696
 1517W        W21051  18.027  11.955   3.933  0.0847  0.2285  0.3788
 1518W        W21052   7.262  14.802  15.534 -0.1097  0.1407 -0.2016
 1519W        W21053  13.452   2.846  12.751 -0.0395  0.0303  0.2737
 1520W        W21054   1.699   7.504  13.521 -0.0106  0.0649 -0.0248
 1521W        W21055  18.301  16.806  11.638  0.0590 -0.1845  0.0910
 1522W        W21056   0.330   7.431  12.070 -0.0790 -0.0398 -0.0443
 1523W        W21057  16.238   0.737  14.301  0.1686  0.1266  0.2549
 1524W        W21058  14.244   5.637   0.579 -0.0610 -0.0860 -0.1945
 1525W        W21059   2.580   9.404   1.782  0.0728  0.1392  0.0514
 1526W        W21060  13.949  14.586  10.171 -0.1816 -0.2213  0.1144
 1527W        W21061  14.059  11.996   0.583 -0.2036  0.1728  0.0388
 1528W        W21062  15.934  10.777  14.693 -0.0209 -0.4729  0.2154
 1529W        W21063  18.298   1.459   0.157  0.0065 -0.0045  0.0011
 1530W        W21064  15.171   1.377   4.258  0.0790 -0.0131  0.0369
 1531W        W21065   1.163   2.505  14.853 -0.1152 -0.0041 -0.1043
 1532W        W21066  13.543   6.806  15.400  0.1180  0.0164  0.2599
 1533W        W21067  17.386  13.857  12.908 -0.1803 -0.1313 -0.1379
 1534W        W21068   5.874   6.559  11.639  0.4249 -0.0947  0.3676
 1535W        W21069  18.178   7.510   2.178  0.1381 -0.0048 -0.1462
 1536W        W21070   5.947   6.461   4.318 -0.2729  0.0238  0.1625
 1537W        W21071   5.528   4.041   2.150  0.0247  0.0268 -0.0073
 1538W        W21072   9.449  18.307   4.730  0.1013  0.1272  0.0996
 1539W        W21073  15.994  16.789  13.225  0.0763 -0.4210  0.2402
 1540W        W21074  15.553   7.185  11.295 -0.4648  0.2152  0.0793
 1541W        W21075   5.879  14.845  14.109 -0.0257 -0.0843 -0.0714
 1542W        W21076   3.028   7.687   2.836  0.1446 -0.2027  0.4858
 1543W        W21077   4.802   2.412  15.242 -0.2463 -0.1114  0.1275
 1544W        W21078  17.300  15.917   4.092 -0.0926  0.1683  0.2098
 1545W        W21079   9.240   1.482   0.485 -0.0122 -0.1411  0.1001
 1546W        W21080  12.410  10.238  15.056 -0.0811  0.1100  0.1010
 1547W        W21081  17.766  18.186  12.964  0.3346 -0.3632  0.0387
 1548W        W21082   4.221  10.356  13.323  0.0386 -0.1872  0.1738
 1549W        W21083   2.440   5.676   3.285  0.1522 -0.1201  0.4475
 1550W        W21084   5.187  11.059   3.066 -0.1421 -0.1544 -0.0036
 1551W        W21085   9.167   9.878   2.891  0.0780 -0.0131 -0.3480
 1552W        W21086   4.894  15.069  12.628  0.0888  0.0950  0.0777
 1553W        W21087   1.698   4.482  15.358 -0.1183  0.0998 -0.1592
 1554W        W21088   0.077   9.589  13.383  0.3257 -0.4694 -0.0138
 1555W        W21089   1.394   9.151  11.784  0.0854 -0.1498  0.3192
 1556W        W21090  14.174   6.801   3.574 -0.1373 -0.0636 -0.1407
 1557W        W21091  15.508  10.512   1.277  0.1763  0.5063 -0.0128
 1558W        W21092  16.677  16.656   1.076 -0.0087  0.1641 -0.0937
 1559W        W21093  13.391   0.028  13.041 -0.3597  0.2636 -0.0181
 1560W        W21094   1.126  16.875  13.853 -0.2170  0.3516 -0.0404
 1561W        W21095  15.794   8.569  13.786  0.1767 -0.1312 -0.0858
 1562W        W21096  13.815  10.768  12.236 -0.0979  0.0688 -0.0821
 1563W        W21097   3.642  13.130  12.716  0.1162 -0.4097  0.3755
 1564W        W21098  16.574  17.727   0.216 -0.0151  0.0759  0.0871
 1565W        W21099   0.079   8.388  12.407 -0.0716  0.2065  0.0820
 1566W        W21100   2.349   3.643   4.202  0.1417  0.0888 -0.1985
 1567W        W21101  14.480   3.711   4.313 -0.0799  0.1368  0.2030
 1568W        W21102  16.926  11.923   1.830 -0.0066  0.3547 -0.0565
 1569W        W21103  11.224   1.432   3.335  0.0796 -0.0074 -0.0938
 1570W        W21104   5.009  11.304   0.636 -0.0575  0.3747 -0.0480
 1571W        W21105   2.870  17.449  14.635 -0.2617  0.0935  0.3796
 1572W        W21106   0.084   6.081   4.038 -0.1899 -0.1392  0.0581
 1573W        W21107  11.990  16.427  12.785 -0.0744  0.1859 -0.1278
 1574W        W21108  12.173  15.850   4.360 -0.0676  0.3200 -0.2774
 1575W        W21109   9.557   7.533   2.054  0.0591  0.1083 -0.0466
 1576W        W21110  15.952  11.953  12.552  0.0024 -0.4027  0.3247
 1577W        W21111  11.696   4.480   0.267 -0.3204  0.3385  0.1574
 1578W        W21112  14.253   1.085  14.569 -0.1002  0.2106  0.2236
 1579W        W21113  14.477  18.372  12.935  0.2403 -0.0839 -0.3031
 1580W        W21114  11.941  12.455  11.369  0.0241  0.1423  0.1377
 1581W        W21115   0.901   2.386   4.491 -0.0088  0.0969 -0.4564
 1582W        W21116  18.039   5.051  12.394  0.2361 -0.4141  0.0317
 1583W        W21117   1.998  17.387  14.904  0.1264 -0.1509 -0.0285
 1584W        W21118  10.754  11.052   2.574  0.3463  0.0293 -0.0305
 1585W        W21119   8.315   4.088   5.666  0.0902  0.0359  0.0198
 1586W        W21120  12.170   8.038   3.995  0.0054 -0.2403 -0.0418
 1587W        W21121   9.165  15.176   3.477  0.0495 -0.0624  0.3261
 1588W        W21122   2.962  13.904  12.153  0.4454  0.1234  0.3320
 1589W        W21123  18.319  16.119   4.027  0.2194 -0.1618 -0.0753
 1590W        W21124   2.081  16.227   2.066 -0.4402  0.1579  0.0011
 1591W        W21125  10.030   3.887  11.793  0.1168 -0.1017  0.1085
 1592W        W21126   7.536  11.674  13.331  0.3829  0.1375  0.2979
 1593W        W21127   3.510   8.331  14.470 -0.1474  0.0856 -0.0055
 1594W        W21128   2.846  13.960  13.747 -0.0613 -0.2802 -0.0024
 1595W        W21129   2.381  17.422  15.813 -0.3008  0.1994  0.3242
 1596W        W21130   2.888   6.876  15.753  0.0964  0.3261  0.3964
 1597W        W21131   3.003  15.922  12.002  0.1675 -0.0048 -0.1598
 1598W        W21132   5.855   8.822   3.135 -0.2159 -0.0532  0.2877
 1599W        W21133   6.075   7.112  11.959  0.0389 -0.1176 -0.1598
 1600W        W21134  15.629  12.273  14.777  0.1765 -0.2111 -0.0087
 1601W        W21135  14.348  13.618  15.236 -0.1671  0.0681  0.0343
 1602W        W21136  10.397   4.927   1.196  0.0961  0.0440 -0.1461
 1603W        W21137  12.969  11.775   1.742  0.3153  0.2524 -0.0198
 1604W        W21138  11.007  10.925   0.905  0.3702  0.2307 -0.1836
 1605W        W21139   3.906  18.062  15.378 -0.0307  0.0072 -0.1617
 1606W        W21140   9.364  10.842  12.636 -0.2811 -0.1751  0.1916
 1607W        W21141  10.897   3.552   0.863 -0.0713 -0.0730 -0.1796
 1608W        W21142   6.880  14.182  14.166 -0.0462  0.0516 -0.0781
 1609W        W21143  10.948   5.978   0.322 -0.0359 -0.1018 -0.0306
 1610W        W21144   1.502  16.634  15.361  0.1227  0.0691  0.1834
 1611W        W21145  13.397   7.923  11.483 -0.2108 -0.0979  0.1921
 1612W        W21146   2.481   7.551   3.230 -0.2599 -0.2153  0.3810
 1613W        W21147  14.073   5.026  15.804 -0.2201 -0.1689  0.0621
 1614W        W21148  12.291   7.858  13.670 -0.0293  0.0954 -0.0155
 1615W        W21149   4.135  11.856   2.281  0.1049 -0.1662 -0.4067
 1616W        W21150  14.215  16.883  14.475 -0.3980  0.1145 -0.0919
 1617W        W21151   9.247   1.423   1.139 -0.0487  0.1894  0.2328
 1618W        W21152  15.166  14.263   2.494  0.3095 -0.0537  0.0953
 1619W        W21153   7.231   9.838  14.621  0.3181  0.1403  0.2155
 1620W        W21154   8.696   4.832   0.924  0.1801 -0.1482 -0.1743
 1621W        W21155  12.809   1.181   2.473 -0.1317  0.1232  0.0514
 1622W        W21156   4.379  14.944   2.535 -0.0356  0.0741 -0.1429
 1623W        W21157   0.664   4.334  11.899  0.0555 -0.0886  0.0933
 1624W        W21158  11.316   6.698   1.900  0.0976  0.0007  0.0847
 1625W        W21159   5.903   8.332   0.327 -0.0912 -0.0641 -0.2430
 1626W        W21160  10.664   1.579   1.545 -0.0789 -0.0640 -0.0689
 1627W        W21161   8.402  17.561  13.521  0.2060 -0.1665  0.0988
 1628W        W21162   8.206   7.948  11.672  0.4253  0.1118 -0.5235
 1629W        W21163  16.478   3.877   2.893 -0.2885  0.2633  0.3294
 1630W        W21164  17.520   8.607  15.105  0.0879  0.2452 -0.0903
 1631W        W21165   0.479   3.840   5.351 -0.1451 -0.1345 -0.0508
 1632W        W21166  11.303  13.093  14.805  0.0076 -0.0590 -0.0269
 1633W        W21167   3.637  16.772  15.436  0.0842  0.0748 -0.0099
 1634W        W21168   2.908  11.021   5.539 -0.0513  0.0763  0.1957
 1635W        W21169  11.429   5.891  13.847 -0.0128  0.3267 -0.0230
 1636W        W21170   8.961  10.765  12.411  0.1415  0.2760 -0.2146
 1637W        W21171   8.027  13.887   4.576 -0.0753  0.2672 -0.3351
 1638W        W21172   3.040   2.347  11.891  0.2061 -0.1657  0.2244
 1639W        W21173  14.061   9.119  14.371  0.1755  0.2759 -0.1427
 1640W        W21174   7.960   5.832  13.280  0.0125  0.0726  0.3906
 1641W        W21175   9.870   2.142   4.040  0.1253 -0.1147 -0.3591
 1642W        W21176   0.777  12.107   0.896  0.1419  0.0675  0.0219
 1643W        W21177  13.856  14.568   0.486 -0.2069  0.3211  0.2069
 1644W        W21178  14.573   1.977  14.499 -0.2962  0.1057 -0.2026
 1645W        W21179   3.857   6.794   2.165 -0.1846  0.0565  0.1949
 1646W        W21180   7.086  12.050   4.217 -0.0931 -0.1491  0.1743
 1647W        W21181  14.060   0.066   4.514  0.1688 -0.1937  0.0023
 1648W        W21182  13.364   3.793   3.732 -0.1706 -0.0555 -0.0520
 1649W        W21183   0.397  10.540   3.044  0.1568 -0.0741  0.1608
 1650W        W21184  16.323  14.865   0.072 -0.2182 -0.2137  0.0646
 1651W        W21185  14.632   4.641   2.605 -0.2067  0.0361 -0.0980
 1652W        W21186   7.136  11.065  13.991 -0.0666  0.2819  0.0129
 1653W        W21187  16.009   9.023   2.112 -0.0932 -0.1467  0.3213
 1654W        W21188  17.303  12.245  12.771  0.2445  0.0390 -0.0805
 1655W        W21189   2.414   2.580   3.044 -0.1176 -0.1107  0.0413
 1656W        W21190  12.350  11.180   4.306 -0.0407 -0.3612 -0.1696
 1657W        W21191   4.131  10.565  12.219  0.0549  0.1414 -0.2129
 1658W        W21192   0.056  13.437   2.065  0.0384 -0.1425 -0.2380
 1659W        W21193   4.661  12.616  11.634  0.1903 -0.0057  0.1451
 1660W        W21194   9.672  14.672   4.115  0.0249 -0.1713 -0.0494
 1661W        W21195   0.441  18.322   1.280  0.1002 -0.3323  0.0284
 1662W        W21196   8.681   3.232  11.486  0.2541  0.3018 -0.0585
 1663W        W21197   6.604  10.506  11.415  0.1845 -0.0834 -0.1689
 1664W        W21198   1.335   3.092  13.019 -0.2072 -0.0377  0.0004
 1665W        W21199   6.014   7.270   2.377  0.2285 -0.0171 -0.1163
 1666W        W21200   2.222  12.033   1.790 -0.0264  0.0255 -0.1004
 1667W        W21201  12.784   3.302  13.427 -0.0572  0.0590 -0.0010
 1668W        W21202  11.083  10.158   3.654  0.1560 -0.0480 -0.2342
 1669W        W21203  15.773   8.077  14.546 -0.0143 -0.1836 -0.2310
 1670W        W21204   3.218  14.377  13.872  0.0659  0.0041 -0.1103
 1671W        W21205   0.713  18.165  13.913  0.1266 -0.1062  0.1665
 1672W        W21206   4.020  12.955   1.201 -0.0014 -0.2107 -0.0038
 1673W        W21207   5.837   3.931   1.732  0.1055 -0.1287 -0.1178
 1674W        W21208  17.465   7.760  15.024  0.0744  0.2306  0.0685
 1675W        W21209  13.457   6.842  14.510  0.2866 -0.1177 -0.1664
 1676W        W21210   3.589   7.212   2.291  0.5906 -0.0483 -0.1205
 1677W        W21211   9.012  11.724  12.352 -0.1799 -0.0378  0.2274
 1678W        W21212  17.791   8.954  14.852  0.0288 -0.2522  0.2397
 1679W        W21213  15.693  13.600   1.497  0.0194 -0.0494  0.4159
 1680W        W21214  16.303  10.304   2.717  0.3975 -0.1751 -0.0271
 1681W        W21215   5.912  14.977  12.042  0.1457 -0.1066 -0.3648
 1682W        W21216   5.487  16.237   3.016  0.4086  0.2338  0.2033
 1683W        W21217   8.707   9.342  13.906  0.0901  0.0633  0.1815
 1684W        W21218   1.342   3.863   2.575  0.2551 -0.1211  0.3601
 1685W        W21219  12.709  11.933   4.431  0.4134 -0.0062  0.1263
 1686W        W21220   0.257   9.117   1.765  0.0408 -0.6258 -0.1065
 1687W        W21221  14.897  14.902  12.549  0.0513  0.1759 -0.0568
 1688W        W21222   7.974   9.743   4.567  0.1639  0.2564  0.0521
 1689W        W21223   5.653  13.350  12.248 -0.1714 -0.2400  0.0795
 1690W        W21224  17.073  18.081   1.865 -0.1330  0.2044 -0.1470
 1691W        W21225  13.352  16.557   0.127 -0.0226  0.0362  0.2235
 1692W        W21226  11.423   2.200   4.544 -0.1507  0.0729 -0.1167
 1693W        W21227  11.887  15.654  12.060 -0.3400  0.0217  0.0142
 1694W        W21228   0.184   3.107  12.106  0.0734 -0.0078 -0.0459
 1695W        W21229   2.284   7.062   3.113  0.2350  0.0179  0.2351
 1696W        W21230  16.028   1.644  11.457  0.3237  0.1574 -0.1697
 1697W        W21231  14.577  17.591  14.799  0.1668  0.1093 -0.0611
 1698W        W21232   7.657   5.088  11.757  0.0180  0.2285  0.0098
 1699W        W21233  12.154  16.020   3.046 -0.4207  0.1212  0.4307
 1700W        W21234  18.024   3.078   1.644 -0.0213 -0.1896 -0.3581
 1701W        W21235   4.540  11.949   3.596 -0.1217 -0.2627 -0.0746
 1702W        W21236  13.133  16.225  14.833  0.0297 -0.2695  0.0909
 1703W        W21237   3.787   4.753   0.461 -0.0400  0.0506  0.2943
 1704W        W21238   9.541  12.409   3.295  0.1323 -0.2199 -0.2674
 1705W        W21239   0.789  13.371  11.648  0.4225 -0.0425  0.0089
 1706W        W21240   5.527   5.856   1.754 -0.1054 -0.1940  0.0882
 1707W        W21241  11.709   5.043   1.424 -0.0245 -0.1361 -0.0345
 1708W        W21242   8.394  16.858  10.436 -0.1009 -0.1829 -0.3836
 1709W        W21243   1.348   3.117  13.576 -0.2187  0.0389 -0.0519
 1710W        W21244  13.125   2.318   0.095  0.0246  0.1466 -0.0473
 1711W        W21245   9.019   8.315   0.787 -0.1284 -0.0008 -0.4850
 1712W        W21246   6.008   1.185  12.171  0.3334  0.1478 -0.1963
 1713W        W21247   3.008  10.137  12.693 -0.2846  0.0866  0.1246
 1714W        W21248   8.131  13.017   4.273 -0.0262  0.1395 -0.0262
 1715W        W21249   7.998  11.261   5.193 -0.1520 -0.0005  0.1497
 1716W        W21250   9.294   5.285  12.759  0.4182 -0.2242 -0.0849
 1717W        W21251  12.399   4.396  12.517 -0.2063  0.0034 -0.1152
 1718W        W21252   3.148  17.040   3.124 -0.1441 -0.5901  0.2026
 1719W        W21253  13.288  11.079   3.074 -0.0086  0.0180 -0.1035
 1720W        W21254  11.838   0.204   2.508  0.0475 -0.1235 -0.0462
 1721W        W21255   0.709   4.385  15.530  0.0236  0.2548  0.1582
 1722W        W21256   9.962   0.901  12.804  0.2776 -0.1059 -0.1189
 1723W        W21257   0.364  10.008  14.705  0.1859 -0.1594 -0.2171
 1724W        W21258   5.271   2.017   4.113  0.2469 -0.2783 -0.0783
 1725W        W21259   3.275  17.493   0.999  0.1965  0.3651  0.0212
 1726W        W21260  14.448   3.299  12.633 -0.3719  0.1245 -0.2030
 1727W        W21261   0.816   2.533  12.506  0.1707 -0.1134  0.0098
 1728W        W21262  12.115  10.678  12.734  0.1803  0.1297  0.0058
 1729W        W21263   1.048   5.829   4.132 -0.0272 -0.0627  0.0167
 1730W        W21264   5.275   3.019   0.871  0.2497 -0.0786  0.0220
 1731W        W21265   3.624   6.901  15.332  0.3026 -0.3846 -0.0092
 1732W        W21266   8.417   8.734   3.277  0.0591  0.0900 -0.1799
 1733W        W21267  16.800  17.365  13.712 -0.1890  0.1324  0.0766
 1734W        W21268   8.517   9.675   4.480  0.1304 -0.1929  0.0061
 1735W        W21269  10.073   5.304   3.580  0.0171  0.2042 -0.2677
 1736W        W21270  17.928   3.011  11.891 -0.1454 -0.2011  0.0393
 1737W        W21271  13.946  12.058   3.944  0.3219 -0.1286  0.1216
 1738W        W21272   6.485  11.965   3.461  0.1725  0.2722 -0.0807
 1739W        W21273  15.785   7.036   1.090  0.0745  0.2790 -0.1695
 1740W        W21274  12.878   0.765  14.135  0.1739  0.4101 -0.3517
 1741W        W21275  11.508   2.782  13.090  0.2013 -0.1656 -0.1975
 1742W        W21276  16.939   0.979   3.718  0.2914 -0.0055  0.0936
 1743W        W21277   9.507  12.596  13.443 -0.0582  0.0576  0.2547
 1744W        W21278  10.258   4.510   4.505  0.1028 -0.0540 -0.1492
 1745W        W21279  13.073  18.022  12.910 -0.1233  0.0956  0.0935
 1746W        W21280  18.275  16.871  15.253  0.2090 -0.1843 -0.3496
 1747W        W21281   1.851  13.964  15.423  0.0886 -0.0929 -0.0705
 1748W        W21282   7.512  11.668  10.362  0.0648  0.0248  0.0278
 1749W        W21283  16.974   5.200   2.828 -0.0548 -0.1282 -0.0196
 1750W        W21284  18.084   8.322   1.965 -0.1547 -0.0958  0.2126
 1751W        W21285   1.629   8.831   1.009  0.0877  0.1225  0.4149
 1752W        W21286   3.183  17.759   1.886  0.1796 -0.4009  0.0987
 1753W        W21287   6.193   7.553  11.504  0.1961  0.3720 -0.1825
 1754W        W21288  17.292   7.635   0.041 -0.0467  0.1909 -0.2851
 1755W        W21289   5.086   4.635   0.816  0.4192 -0.1213  0.0028
 1756W        W21290   1.376  11.745   3.974  0.1480 -0.1393 -0.1276
 1757W        W21291  16.640   2.998  14.836  0.0329  0.2241  0.2007
 1758W        W21292  12.057  16.698  13.503 -0.1570  0.1330  0.4474
 1759W        W21293  13.486  10.979  14.746  0.1333 -0.1266 -0.1905
 1760W        W21294   4.125  16.914  15.331  0.4114 -0.1041 -0.3659
 1761W        W21295  17.212   4.739  15.225 -0.0088 -0.5787  0.0350
 1762W        W21296   7.263  12.536   2.329 -0.0147  0.0170 -0.0686
 1763W        W21297   4.100   2.595   4.350 -0.0505  0.1130 -0.1628
 1764W        W21298  13.798   5.125   1.423  0.0774 -0.1208  0.2137
 1765W        W21299   3.810   0.898   1.860  0.2254  0.1326 -0.1427
 1766W        W21300  11.247   1.945  13.613 -0.2472  0.1407 -0.0592
 1767W        W21301  14.115   3.980  11.310  0.0740  0.0154 -0.1232
 1768W        W21302   3.904   3.601   4.112  0.0249 -0.1635  0.2003
 1769W        W21303   6.120  12.421  15.786 -0.0315  0.0427  0.1650
 1770W        W21304  16.082  10.949  12.843 -0.3291  0.3034  0.1104
 1771W        W21305   6.636   7.117   4.265 -0.1581  0.0779  0.0792
 1772W        W21306   8.636   6.517  13.527 -0.3245  0.0589  0.1146
 1773W        W21307  12.523  16.139   1.455  0.0437 -0.0940 -0.0330
 1774W        W21308  14.352  10.485  15.513 -0.1596 -0.0121 -0.0926
 1775W        W21309  12.493  11.080  12.640  0.2073 -0.2758 -0.0041
 1776W        W21310  11.152   2.391  13.830 -0.0553 -0.1321 -0.0835
 1777W        W21311   4.246  17.570   3.829  0.0085 -0.0280  0.0401
 1778W        W21312  12.062  16.679  11.425 -0.3398 -0.0221 -0.0122
 1779W        W21313   3.797  11.536  11.886 -0.0479  0.0866  0.0095
 1780W        W21314  14.026  13.984  12.245  0.4857  0.0202 -0.0018
 1781W        W21315   5.215   9.950  14.328  0.1659 -0.2938 -0.2941
 1782W        W21316  16.479   7.169   2.773 -0.0601  0.0229  0.0458
 1783W        W21317   1.335  14.722   2.172 -0.1066  0.1984  0.1682
 1784W        W21318  13.286   8.972  14.231  0.2944 -0.0398 -0.1604
 1785W        W21319  16.990   9.206  12.901 -0.2473 -0.1098 -0.0947
 1786W        W21320   8.173  10.672  12.633 -0.0499 -0.0298 -0.1395
 1787W        W21321  15.776   9.566   3.179  0.0603 -0.0359  0.0550
 1788W        W21322   5.573  17.101  14.939 -0.1585 -0.3991  0.3263
 1789W        W21323  17.845  17.051  11.618  0.4037  0.3385 -0.1349
 1790W        W21324   6.164   5.044  11.407  0.0621 -0.2301  0.1268
 1791W        W21325  11.316   4.540  11.795  0.0521 -0.2092 -0.1225
 1792W        W21326  14.975   2.328  11.339  0.0313 -0.1982 -0.2532
 1793W        W21327   6.294   4.827   2.670 -0.0829  0.0728 -0.1138
 1794W        W21328  10.667  14.548   0.815  0.0742 -0.2725 -0.1135
 1795W        W21329  10.186  12.447   4.006  0.0159 -0.0423  0.0818
 1796W        W21330   1.181  12.533  13.673 -0.0664  0.2485 -0.1421
 1797W        W21331  13.045   8.866   2.694 -0.0611 -0.1578 -0.0892
 1798W        W21332   7.836   6.624   1.677 -0.1902 -0.0193 -0.0909
 1799W        W21333  16.336  13.203  12.234  0.0259 -0.2058 -0.1929
 1800W        W21334  15.164   0.572  11.086  0.0774  0.1668 -0.1551
 1801W        W21335   4.953  12.133   1.648 -0.0946  0.2073  0.1173
 1802W        W21336  15.328   0.029   3.730  0.0383 -0.0051 -0.0024
 1803W        W21337   5.374   0.456  12.603  0.0088  0.4322  0.3096
 1804W        W21338   8.806  10.784  11.480  0.1723 -0.2836  0.3002
 1805W        W21339  10.728  11.793  13.324  0.3609  0.0156  0.1917
 1806W        W21340   9.284  12.450  12.468  0.0098 -0.2471 -0.0759
 1807W        W21341   0.932   1.872  15.619  0.2120  0.2102  0.0421
 1808W        W21342  15.733   9.749   3.654  0.1092  0.0614  0.3395
 1809W        W21343  13.048   6.660  14.685 -0.1487 -0.0162  0.1374
 1810W        W21344  16.108  11.088   0.841 -0.1300  0.3510 -0.3572
 1811W        W21345   5.398  10.009  15.706 -0.0764 -0.0548  0.1381
 1812W        W21346   2.714  13.282   2.542 -0.0250  0.1008 -0.0682
 1813W        W21347   0.399   3.973  11.560 -0.5093 -0.1495 -0.0244
 1814W        W21348  17.146  12.947  13.622  0.1423 -0.1981 -0.0618
 1815W        W21349   9.876  18.204  15.001 -0.1630 -0.3931 -0.1238
 1816W        W21350  12.681   2.674  12.960 -0.1486 -0.2091 -0.0884
 1817W        W21351   2.428   5.833   1.258  0.1525 -0.1119  0.0631
 1818W        W21352  16.833   3.234  13.807  0.1019 -0.2631 -0.3757
 1819W        W21353   9.022  12.987  13.487 -0.1534 -0.0080 -0.2048
 1820W        W21354  14.991  12.900  15.765 -0.0846 -0.2452 -0.1506
 1821W        W21355   3.798  12.450  14.545 -0.0650 -0.1115  0.1615
 1822W        W21356   7.113   5.106   2.949  0.1308 -0.1502  0.1670
 1823W        W21357   2.478  13.234   2.022 -0.3684  0.0093 -0.0609
 1824W        W21358   1.136   6.301  15.744 -0.6204  0.0193 -0.0580
 1825W        W21359  15.773   0.893  14.130 -0.0665 -0.1669  0.0608
 1826W        W21360  14.640  10.250  13.804 -0.0302  0.1712  0.1911
 1827W        W21361  17.891  17.390  15.303 -0.1935  0.0890  0.0656
 1828W        W21362   0.477  11.729  11.548  0.1323 -0.1130 -0.2066
 1829W        W21363   5.834   5.997   4.116 -0.3699  0.1528  0.3197
 1830W        W21364  14.399   5.824  14.903 -0.3411  0.0456 -0.0318
 1831W        W21365   0.824  16.056  12.799  0.1470  0.0299 -0.1627
 1832W        W21366   7.867  15.899  13.831  0.1255 -0.0839  0.1709
 1833W        W21367  13.486  15.256   1.032 -0.1254 -0.0351 -0.1428
 1834W        W21368   4.653   7.247   1.098 -0.0231  0.0910  0.1430
 1835W        W21369  10.462  15.985  11.577 -0.0507  0.0692  0.2162
 1836W        W21370  10.170   4.138   3.214  0.2509 -0.1569 -0.1793
 1837W        W21371  12.683   4.654  15.565  0.1430 -0.0024  0.2921
 1838W        W21372  12.552  11.277   3.713  0.3255 -0.0950  0.0291
 1839W        W21373  17.641   6.541   1.587  0.1741  0.2817  0.3162
 1840W        W21374  10.980   2.128   0.870 -0.2892 -0.1602 -0.2225
 1841W        W21375   5.989   5.157   4.859 -0.0684 -0.3178 -0.2424
 1842W        W21376   1.759  18.058   0.710  0.0616  0.2581 -0.0199
 1843W        W21377   0.166  16.287   0.094 -0.1608 -0.0966  0.2101
 1844W        W21378   4.740   9.094  12.767 -0.0922 -0.1501 -0.4967
 1845W        W21379   1.959  12.193  13.428  0.0634  0.0022  0.2724
 1846W        W21380   7.506  13.587   3.967  0.0192 -0.2441  0.2326
 1847W        W21381  12.912   5.068   1.808  0.1587  0.0855  0.2881
 1848W        W21382   1.260  12.028  12.454  0.2075 -0.2168 -0.1015
 1849W        W21383  14.446   6.122   1.057  0.3915  0.1392  0.0591
 1850W        W21384  15.822  10.302   2.862 -0.0366  0.1709 -0.1107
 1851W        W21385  16.357   7.794   2.890 -0.1764  0.0220  0.0182
 1852W        W21386   4.298   8.059   1.563  0.2317  0.0921  0.0651
 1853W        W21387   5.830   6.177  12.003  0.0253 -0.2229 -0.1928
 1854W        W21388   5.140   9.522   2.186 -0.1881 -0.2401  0.1967
 1855W        W21389  16.928  16.740   0.614  0.1779  0.0701  0.2751
 1856W        W21390   1.910   6.370   2.524  0.2049  0.0951  0.0746
 1857W        W21391   1.440  15.849  13.945  0.2827 -0.0738  0.0351
 1858W        W21392   2.607  15.301   3.695  0.1076 -0.1868  0.2278
 1859W        W21393   4.238   1.603   1.283  0.1487 -0.3416 -0.1047
 1860W        W21394  14.442  15.012  11.290  0.0016  0.0517  0.0389
 1861W        W21395   5.602  14.590   2.552 -0.0331 -0.1017  0.1675
 1862W        W21396  12.053   8.685  12.655  0.1725 -0.0329  0.0699
 1863W        W21397  12.533  18.138   2.221  0.2206  0.1329 -0.3160
 1864W        W21398   4.187   8.440  10.929 -0.2630 -0.3717  0.1626
 1865W        W21399   7.170  12.043   1.079 -0.0607 -0.1305 -0.1379
 1866W        W21400   2.120   5.026   2.698  0.3735 -0.2323 -0.1972
 1867W        W21401   8.730  15.800  13.716  0.2810  0.0986  0.0896
 1868W        W21402   4.163   2.478   2.209 -0.5768 -0.0633  0.1025
 1869W        W21403  15.029   5.471   1.121  0.0121  0.1252  0.1666
 1870W        W21404   5.867   2.505  14.722  0.0480 -0.1662 -0.0984
 1871W        W21405  12.841   9.945   3.017 -0.1040 -0.1855  0.0506
 1872W        W21406   8.761   3.830   0.893  0.1600 -0.0035  0.1441
 1873W        W21407  13.792  10.061   0.956  0.3034 -0.0179  0.0295
 1874W        W21408  11.813  12.150  12.542  0.0574  0.0110 -0.0499
 1875W        W21409  15.054  13.561  15.207 -0.0062  0.1259 -0.0539
 1876W        W21410   5.236   4.428   2.334  0.1841 -0.0454 -0.0675
 1877W        W21411   5.611   5.160  12.917  0.0195 -0.1681  0.0902
 1878W        W21412   6.226  14.624  12.156 -0.5164 -0.1798 -0.1129
 1879W        W21413  10.149   4.812  11.761 -0.1921  0.1431 -0.0547
 1880W        W21414   6.742   3.729   0.985 -0.1503  0.0299  0.2125
 1881W        W21415  15.663   4.288  15.436  0.0930  0.0659  0.0074
 1882W        W21416  17.069  13.615   2.100 -0.0823  0.0742 -0.0527
 1883W        W21417   3.011   5.405   3.419  0.1844 -0.2966 -0.0723
 1884W        W21418  12.648   3.488   4.458  0.2975 -0.1128  0.4402
 1885W        W21419  17.250   9.723   0.515  0.1518 -0.1351 -0.1085
 1886W        W21420  10.652  12.531   4.070 -0.0412  0.0578  0.1072
 1887W        W21421   8.357   0.001   0.892  0.0942 -0.2328 -0.2771
 1888W        W21422   2.188   4.991  12.571  0.0641  0.2144 -0.3155
 1889W        W21423   4.726   7.526   2.149 -0.1858 -0.1502  0.1810
 1890W        W21424   9.651   8.555  14.316  0.1970 -0.2243 -0.1652
 1891W        W21425   4.071  12.129  12.858 -0.0470  0.0353  0.0005
 1892W        W21426  10.646   9.672   3.838 -0.3448  0.0400  0.3682
 1893W        W21427   4.009  11.037   0.192  0.1088 -0.1159  0.2087
 1894W        W21428   4.611   9.986  12.700  0.1930  0.3441  0.1491
 1895W        W21429  16.277   6.376   3.343 -0.1062  0.1747 -0.0354
 1896W        W21430  13.453  15.326  12.206  0.2336  0.2987  0.3071
 1897W        W21431   3.566  15.334   3.047  0.1609 -0.1086 -0.2805
 1898W        W21432   4.458   1.346  12.901 -0.1842  0.0079 -0.1772
 1899W        W21433  10.015  15.432   5.350 -0.0538  0.0768  0.2341
 1900W        W21434   5.369   7.445   2.814 -0.2284  0.1171 -0.2549
 1901W        W21435  10.767   6.745  11.921  0.0294  0.1747  0.0427
 1902W        W21436   3.797   8.036   1.779 -0.2139 -0.0095 -0.1278
 1903W        W21437   9.583   8.628   2.772  0.3885  0.2241 -0.0046
 1904W        W21438   5.125  10.481  13.090 -0.3181 -0.1219 -0.0301
 1905W        W21439   9.889  14.574  14.771 -0.1935 -0.2972 -0.1742
 1906W        W21440   2.843   3.917   1.734  0.0843  0.2432  0.3558
 1907W        W21441  14.540   2.067  13.433 -0.0398 -0.0596  0.1514
 1908W        W21442  15.510   0.938   2.142  0.2553  0.0208 -0.0483
 1909W        W21443  15.199   4.059  15.672 -0.1640  0.2659 -0.1929
 1910W        W21444   5.299  18.305  12.060  0.2091  0.1801 -0.0684
 1911W        W21445  15.420  13.127   3.959 -0.1565 -0.0745 -0.0429
 1912W        W21446   4.716  11.398  11.361  0.1031 -0.1453  0.1162
 1913W        W21447  15.101  12.726  14.330 -0.1847 -0.1485 -0.1353
 1914W        W21448   4.337   0.547  15.455  0.1161  0.2315  0.0598
 1915W        W21449  12.635  14.189   3.461  0.0035  0.2258  0.1275
 1916W        W21450   3.146   0.534   3.164 -0.1332  0.1673 -0.1254
 1917W        W21451   0.201   8.835   2.456 -0.1335 -0.1142  0.2086
 1918W        W21452   8.028  10.285   2.208 -0.1776  0.2379  0.0668
 1919W        W21453   5.618   8.498   4.120 -0.0912 -0.1021 -0.2140
 1920W        W21454  17.212  18.375   1.080  0.1226 -0.1255  0.1877
 1921W        W21455   0.618   3.829   4.707 -0.1342  0.0930 -0.2135
 1922W        W21456   9.272  10.321  11.161  0.1697  0.2135 -0.0993
 1923W        W21457  16.840   8.004   1.345  0.1405  0.3990  0.2442
 1924W        W21458  14.845  12.468  11.425  0.4011 -0.2800  0.1388
 1925W        W21459   6.854  17.708  13.558  0.1673 -0.1216  0.1660
 1926W        W21460  15.650  11.417  11.232 -0.2918  0.1702  0.0760
 1927W        W21461  14.357   5.412  14.015 -0.2409 -0.4453  0.0061
 1928W        W21462  18.217  12.819  15.017 -0.2195 -0.0110  0.3911
 1929W        W21463   2.425  16.089  12.331 -0.1054  0.1137  0.1369
 1930W        W21464   2.508   8.154  11.838  0.1743  0.2754 -0.1619
 1931W        W21465   8.411  13.686  14.267  0.2000  0.1578  0.3175
 1932W        W21466   2.850   5.344   1.744  0.0779  0.1425 -0.2449
 1933W        W21467  17.171   6.286   3.714  0.1323  0.0560 -0.1256
 1934W        W21468   9.934  11.038  15.010 -0.1538  0.0954 -0.0882
 1935W        W21469   0.468  14.869  11.491  0.0127 -0.1947  0.0803
 1936W        W21470  12.287  11.265  14.962 -0.1034 -0.1748 -0.0125
 1937W        W21471   8.680   0.546   1.648 -0.3068  0.0511  0.0630
 1938W        W21472  17.431   2.940  15.074  0.1450 -0.2348  0.1885
 1939W        W21473  13.391   6.028   3.555  0.2282 -0.1618 -0.0141
 1940W        W21474   0.153  12.734  12.705 -0.1625  0.1692  0.1230
 1941W        W21475  17.542  16.809   3.766  0.0179 -0.1142 -0.1543
 1942W        W21476  10.954   3.112   0.461 -0.1174 -0.1180  0.1211
 1943W        W21477  17.835   7.608   2.571  0.2549 -0.0851  0.0757
 1944W        W21478   2.468   5.029   0.176 -0.1168 -0.1423 -0.0765
 1945W        W21479   6.718  14.685  15.536 -0.1551  0.0845  0.0219
 1946W        W21480  11.357   3.172  12.720  0.1256 -0.0290 -0.2591
 1947W        W21481   6.132   6.440  13.663  0.2258 -0.1050  0.1019
 1948W        W21482  11.962   1.007  13.218  0.1242  0.2810  0.0793
 1949W        W21483   6.943  15.165   1.943 -0.0287  0.2928  0.2057
 1950W        W21484  18.019   3.745  11.429  0.1150 -0.2662 -0.0001
 1951W        W21485   9.392   1.566  14.151  0.0256  0.2083  0.1334
 1952W        W21486   9.990   7.871  13.154  0.1057 -0.2122 -0.2862
 1953W        W21487   1.134   6.159  14.148  0.0773 -0.1795 -0.3584
 1954W        W21488   7.093  13.604  14.676 -0.0021  0.0779  0.0006
 1955W        W21489   4.472  10.087   2.711  0.0255  0.0365 -0.0927
 1956W        W21490   2.365  11.552  13.532 -0.4068  0.0875  0.2805
 1957W        W21491   9.437   4.462   3.348  0.1131  0.2806 -0.0064
 1958W        W21492  14.233   5.258   1.670 -0.3104  0.0159  0.0942
 1959W        W21493   4.985   0.108   2.978 -0.0391  0.0150 -0.2466
 1960W        W21494   8.165  13.909   0.818 -0.2661  0.1650  0.3514
 1961W        W21495  17.076   9.894   1.548  0.0082  0.0433  0.0567
 1962W        W21496  13.015   5.618   1.441 -0.1474  0.0927  0.0067
 1963W        W21497   8.365   8.512  11.632 -0.0720 -0.1335 -0.3754
 1964W        W21498  17.854   4.597   1.699 -0.2144  0.0162  0.0351
 1965W        W21499  12.094   7.428   4.724 -0.0647  0.1730 -0.2366
 1966W        W21500   5.397   7.175   3.708  0.1337 -0.3230  0.0509
 1967W        W21501  11.893  15.757  15.566  0.0577  0.3163  0.1850
 1968W        W21502   4.188   6.146  13.418  0.1165  0.2217  0.0068
 1969W        W21503   7.223   6.891  14.591 -0.2441 -0.1665  0.1592
 1970W        W21504  16.262   2.022  13.977 -0.0746 -0.1547  0.0134
 1971W        W21505   5.484   9.869   1.537 -0.0231 -0.0352 -0.0749
 1972W        W21506  12.934  12.163   4.048 -0.1485  0.1809 -0.1026
 1973W        W21507   5.319   1.758  12.604  0.2900 -0.1267  0.2330
 1974W        W21508  14.629   2.874  13.495  0.3783  0.4548 -0.2867
 1975W        W21509  14.358   9.602   3.367  0.0904 -0.0590 -0.0254
 1976W        W21510   5.741   9.141   1.666 -0.1765 -0.0127 -0.2719
 1977W        W21511  14.732  17.005  13.605  0.2052 -0.0502 -0.1720
 1978W        W21512  10.162   8.985   2.847 -0.2881  0.2684 -0.0885
 1979W        W21513   4.288  14.655  12.014  0.1671 -0.2429 -0.1765
 1980W        W21514   1.844   9.016   1.406 -0.2393 -0.3776  0.0029
 1981W        W21515   1.066  11.432  15.742  0.0102  0.2419 -0.0643
 1982W        W21516  18.137  15.653   4.064 -0.2144 -0.1013  0.2757
 1983W        W21517  11.113   2.011   1.380 -0.2426  0.2376 -0.0942
 1984W        W21518  13.907   0.628   3.421 -0.0305  0.0542  0.0786
 1985W        W21519  16.268   0.278  13.960 -0.2810  0.0388 -0.2836
 1986W        W21520  17.351   5.700   2.204 -0.3165 -0.0698  0.2284
 1987W        W21521  10.485   0.193  14.102  0.2761 -0.2823 -0.2206
 1988W        W21522  14.372   8.796  14.049 -0.2839 -0.1612  0.1379
 1989W        W21523   6.082   2.299   4.809 -0.1040 -0.1155  0.0575
 1990W        W21524  10.831   1.147  14.963 -0.1024  0.3618  0.2118
 1991W        W21525   3.064  14.112  14.578  0.1814  0.1516 -0.1573
 1992W        W21526  11.712  17.099   1.888  0.2366  0.1197  0.0657
 1993W        W21527   0.527   4.131   4.194  0.1790  0.0109 -0.3113
 1994W        W21528  10.445  10.122  15.524 -0.1111 -0.1134  0.0582
 1995W        W21529  14.833   2.707  15.691 -0.2249  0.2698 -0.1039
 1996W        W21530   5.274   3.595   5.856 -0.3133 -0.1791  0.0130
 1997W        W21531  11.501  13.558   0.996  0.0806 -0.0423  0.2239
 1998W        W21532  14.340  15.405  12.007 -0.4211 -0.1127  0.0723
 1999W        W21533   7.599   6.767   5.763  0.0264 -0.0839  0.2679
 2000W        W21534   1.064  15.126  12.678 -0.0505  0.4729  0.2251
 2001W        W21535   8.010  11.821  15.466  0.0468 -0.0290 -0.0634
 2002W        W21536   3.698  10.318  13.142  0.0905 -0.2633 -0.1466
 2003W        W21537   8.414  15.002  14.935 -0.0855 -0.3127 -0.1403
 2004W        W21538   4.808   8.732   1.477  0.2197  0.3241 -0.3120
 2005W        W21539   6.734  12.760   2.259 -0.2665 -0.1220  0.3168
 2006W        W21540   2.642   2.324  15.195  0.0545  0.2178  0.1106
 2007W        W21541   1.169   3.164  11.905 -0.0681  0.1292 -0.0384
 2008W        W21542   3.605   1.090   0.036 -0.3368 -0.1121 -0.1329
 2009W        W21543  11.530   6.937  12.475  0.0763 -0.1935  0.2293
 2010W        W21544   5.057  15.302  13.021  0.1161 -0.0894 -0.2459
 2011W        W21545   5.021   7.472   3.936  0.1839  0.1092 -0.0011
 2012W        W21546  15.564  11.728  14.614  0.2456  0.1836  0.4181
 2013W        W21547   5.150  11.280   3.551 -0.3284  0.1108 -0.0472
 2014W        W21548  15.266  12.138  12.007 -0.2043  0.0495  0.0066
 2015W        W21549  14.428  12.208  14.182 -0.3016 -0.3602 -0.0855
 2016W        W21550  13.535  15.600  13.238 -0.1967 -0.1595  0.3709
 2017W        W21551  16.936   8.578  13.835  0.1096 -0.3652  0.1647
 2018W        W21552   0.222  12.304   3.471  0.0424 -0.1093  0.0893
 2019W        W21553   8.185   2.025   3.555  0.1989 -0.0229  0.1193
 2020W        W21554  17.508   1.931   1.739 -0.2496  0.1414  0.0536
 2021W        W21555   3.757   3.961   2.235 -0.2785 -0.0509  0.3611
 2022W        W21556   6.236  12.200   3.831  0.0089 -0.2672 -0.0864
 2023W        W21557  11.526  15.947   5.163  0.0734 -0.1453 -0.4176
 2024W        W21558  10.454  13.477   4.326 -0.1034 -0.2055  0.0822
 2025W        W21559  11.523  11.711  11.344 -0.0323  0.0079  0.0968
 2026W        W21560   0.962  13.424  15.199  0.0312  0.0495  0.0174
 2027W        W21561   6.139   4.614  13.486  0.0070  0.1520  0.0107
 2028W        W21562  16.637   0.575  14.644 -0.2347  0.2164  0.2619
 2029W        W21563  10.481   0.555   4.299  0.4351  0.2977 -0.1293
 2030W        W21564  13.267  15.838   3.355 -0.0265 -0.1241 -0.0952
 2031W        W21565   5.606   8.443  12.012 -0.1143 -0.0464 -0.0327
 2032W        W21566  15.705   3.151   3.892  0.1201  0.3267 -0.2343
 2033W        W21567  13.308  16.492  11.584 -0.1245  0.0943  0.1763
 2034W        W21568  17.501  10.683   1.234 -0.0019  0.2142 -0.3939
 2035W        W21569   0.841  14.961  14.233 -0.1237  0.1592  0.1087
 2036W        W21570   1.162   8.839  10.049 -0.0881 -0.1481  0.2155
 2037W        W21571  18.301  10.110   0.159  0.2742  0.0014  0.2536
 2038W        W21572   2.982  17.961  15.516 -0.1580 -0.1777 -0.0051
 2039W        W21573  15.343   4.670  13.976 -0.0699  0.0334 -0.2069
 2040W        W21574  17.591  13.071  14.541  0.0012 -0.0361 -0.0263
 2041W        W21575  15.365   0.369  11.607 -0.3140 -0.2127 -0.0634
 2042W        W21576  15.084  11.602  14.384 -0.0554 -0.3613  0.1506
 2043W        W21577  10.521  11.350   1.216 -0.0347 -0.3378  0.0623
 2044W        W21578  12.923  13.725  15.630 -0.1258 -0.3131  0.0565
 2045W        W21579   7.984   0.266  15.424 -0.2192 -0.1453 -0.1544
 2046W        W21580  16.493   0.223   4.076 -0.4897 -0.2983 -0.0289
 2047W        W21581   9.217   6.304  14.724 -0.0142 -0.0931 -0.2601
 2048W        W21582   8.065  12.996  15.432  0.2644  0.2159  0.4062
 2049W        W21583  16.002  10.236   3.661 -0.1721 -0.0546 -0.1368
 2050W        W21584   8.595   4.484  11.219  0.0123 -0.1106  0.2010
 2051W        W21585   7.302   5.171  11.451  0.0294  0.0094  0.0402
 2052W        W21586  10.314   2.420   2.105 -0.2460 -0.2406 -0.1586
 2053W        W21587   1.588   8.168  13.558 -0.2691 -0.0753 -0.0366
 2054W        W21588   3.072   8.146  15.250 -0.0646 -0.0611  0.3829
 2055W        W21589  18.073   0.103  15.819  0.1019 -0.2236 -0.0212
 2056W        W21590   6.380  12.463  15.300 -0.3136 -0.0419  0.2751
 2057W        W21591  11.966   2.780  12.149 -0.0561  0.1683  0.2067
 2058W        W21592  12.384   3.585   2.448 -0.0191 -0.0967 -0.1931
 2059W        W21593  13.884   4.968   2.797 -0.1307  0.1976  0.3263
 2060W        W21594   5.458   4.720  12.090  0.2955 -0.0712 -0.0751
 2061W        W21595  15.231   9.131  13.324  0.0300  0.1745 -0.4595
 2062W        W21596  17.177   1.548   1.618  0.0707 -0.1014 -0.1949
 2063W        W21597   4.792  13.562   2.676 -0.2142 -0.1080  0.2891
 2064W        W21598   0.500   0.199  12.136 -0.0079 -0.0106 -0.0382
 2065W        W21599   1.216  13.263   4.620 -0.0560 -0.2942 -0.3169
 2066W        W21600  12.661  14.416  13.339 -0.0430 -0.1356  0.0357
 2067W        W21601   4.687  17.863   4.502 -0.2480 -0.1278 -0.0830
 2068W        W21602  15.689  15.033  15.090  0.0934  0.5523 -0.2036
 2069W        W21603   6.008   7.251   0.975 -0.0790 -0.0327 -0.1402
 2070W        W21604  12.738   1.022  12.203  0.0553  0.1528  0.1653
 2071W        W21605  16.574  10.037   2.452  0.1097  0.0729  0.0041
 2072W        W21606   8.952  12.456   1.523 -0.1561 -0.1130  0.2235
 2073W        W21607   0.207  14.413  13.131  0.0657  0.1539 -0.3157
 2074W        W21608   9.116  12.965   3.346 -0.1937 -0.0043 -0.1038
 2075W        W21609  15.463   3.602   2.734  0.2791  0.1537 -0.1471
 2076W        W21610   0.920  17.298   3.291  0.1924 -0.0118  0.0947
 2077W        W21611  18.182   9.709  12.842  0.2840 -0.0180 -0.1023
 2078W        W21612   0.032   1.966   0.289 -0.1807  0.0504  0.0879
 2079W        W21613  17.500   6.704  14.168 -0.1214 -0.0431  0.3230
 2080W        W21614  14.914   5.735   3.203 -0.0391  0.0823 -0.0380
 2081W        W21615   9.983  17.452  15.477  0.4651 -0.0933  0.0047
 2082W        W21616  11.236   8.079   2.782 -0.0945  0.4637  0.1671
 2083W        W21617   7.937   6.205   2.502  0.3695 -0.2168 -0.0327
 2084W        W21618   4.866   6.292  10.577  0.0914  0.1530 -0.1829
 2085W        W21619   1.684   0.214   2.066  0.0296  0.2931  0.2066
 2086W        W21620  11.326   4.728   3.324  0.0166  0.2804  0.1347
 2087W        W21621  14.747  14.239  14.275  0.1636  0.1120  0.1740
 2088W        W21622   6.225   2.717  13.712  0.4687 -0.1403 -0.1357
 2089W        W21623   7.074  10.198  11.447  0.0637  0.0125 -0.1076
 2090W        W21624  15.733  17.568   3.495 -0.0767  0.0144  0.1117
 2091W        W21625   5.368   1.769  11.495  0.2263 -0.3390  0.0601
 2092W        W21626  13.155   4.976  13.076  0.0243 -0.1079  0.1206
 2093W        W21627   3.931   1.513   0.790  0.1166 -0.0745 -0.0417
 2094W        W21628  13.360   4.473  12.999 -0.0160  0.3465 -0.0849
 2095W        W21629   4.019   7.533  13.896  0.0806  0.0600  0.0853
 2096W        W21630   4.407   1.640   0.620  0.1464  0.0796 -0.0514
 2097W        W21631   5.708  14.155   2.263 -0.1151 -0.2091  0.1635
 2098W        W21632   1.473  11.802  13.607 -0.2013  0.2466 -0.0075
 2099W        W21633   6.616   2.195  13.108  0.0498  0.2004 -0.1003
 2100W        W21634   4.756  14.394   3.138 -0.1851 -0.0401 -0.0030
 2101W        W21635   1.317   5.948  12.200  0.0627  0.1660 -0.1965
 2102W        W21636  13.636   4.340   3.195 -0.1788  0.1176  0.1632
 2103W        W21637   5.095  16.980   4.817 -0.2248  0.0669 -0.1116
 2104W        W21638   2.110  16.231   0.692 -0.2237 -0.2042 -0.2195
 2105W        W21639   6.908   0.137   0.770  0.1467  0.0874 -0.0338
 2106W        W21640  17.519  17.535  14.157  0.0161  0.3211 -0.2809
 2107W        W21641   7.077  16.264   1.630  0.3108 -0.0377  0.0316
 2108W        W21642   2.177  10.972   1.953  0.1033  0.1856  0.0167
 2109W        W21643   6.630  13.115   3.998 -0.2983  0.0739 -0.0591
 2110W        W21644   2.452  10.513  10.275  0.2699  0.1299  0.1824
 2111W        W21645  12.302  12.720  12.163  0.1777 -0.0175  0.1532
 2112W        W21646  15.938   0.260   1.549  0.2664  0.0291 -0.0171
 2113W        W21647   6.799   7.146   3.294 -0.0588  0.0684  0.0992
 2114W        W21648   8.511  14.429  12.196  0.0172 -0.1239  0.1986
 2115W        W21649   1.190   2.910   3.629 -0.3343 -0.1670 -0.0344
 2116W        W21650   8.944  12.288   2.586  0.1728  0.1396 -0.3691
 2117W        W21651   7.163  10.849   1.918 -0.0255 -0.0427  0.2666
 2118W        W21652   5.144  13.835  11.694 -0.2217 -0.1229  0.3440
 2119W        W21653   3.994  15.997   2.429  0.1792 -0.1809  0.2532
 2120W        W21654  13.355  16.292  12.984  0.1426  0.4825  0.1910
 2121W        W21655   7.497   0.066   4.704 -0.1596  0.0356 -0.1866
 2122W        W21656   3.581   4.648   2.840  0.0384 -0.0460  0.2260
 2123W        W21657  16.180  12.924   4.316 -0.0836 -0.0429  0.1464
 2124W        W21658   7.546   4.236  15.795  0.1981 -0.2793  0.2097
 2125W        W21659   8.490  12.704  12.654 -0.0540  0.1740  0.1917
 2126W        W21660  18.239   5.655  10.010 -0.0654  0.2037  0.0294
 2127W        W21661  11.735  14.044   3.093  0.1510  0.0740 -0.3729
 2128W        W21662  16.824   9.200   1.036 -0.0072  0.0344  0.3066
 2129W        W21663  10.239  11.935  13.059  0.0911  0.2122 -0.3595
 2130W        W21664   6.615  18.283  14.236 -0.0026  0.0694  0.2401
 2131W        W21665  17.262  17.417   2.014 -0.0792 -0.1190  0.1635
 2132W        W21666  14.896  12.164   4.215  0.0199  0.1198  0.0816
 2133W        W21667  11.740  13.827  13.809  0.0785  0.0695  0.1594
 2134W        W21668  17.410   0.840  14.097  0.1261  0.0894  0.2064
 2135W        W21669  17.979   4.252  13.661 -0.0217  0.1944  0.2935
 2136W        W21670  18.211  14.154  12.418  0.1285 -0.2828  0.0663
 2137W        W21671   3.660   2.698  15.167 -0.2385  0.0730 -0.0493
 2138W        W21672   3.131   1.432  14.107 -0.2546  0.1880 -0.1757
 2139W        W21673  12.497   8.910   3.079 -0.1567 -0.2490 -0.1088
 2140W        W21674   6.370  17.280   2.934  0.0227  0.0792 -0.0952
 2141W        W21675  13.030  16.152   1.323 -0.5343  0.0619 -0.0190
 2142W        W21676   0.029   9.198  14.202 -0.3095 -0.2123 -0.1650
 2143W        W21677   1.377  14.879  15.366 -0.1778 -0.0717  0.1052
 2144W        W21678   7.879  17.446  12.624  0.0207 -0.0498  0.2617
 2145W        W21679   8.869  12.683  12.366  0.0765  0.0584  0.4567
 2146W        W21680  14.073  13.802   3.648 -0.1285  0.0874  0.0748
 2147W        W21681  14.261   2.673  14.950  0.0412 -0.0186 -0.0592
 2148W        W21682   0.658   1.167   4.259 -0.2386 -0.0223 -0.0749
 2149W        W21683  10.388   1.375  14.233  0.0328  0.4312 -0.0234
 2150W        W21684   3.400  18.338   0.608 -0.1634 -0.2963  0.4171
 2151W        W21685   0.928  14.898  15.549 -0.0053  0.0101  0.1030
 2152W        W21686   1.275  12.139   2.357 -0.2566 -0.0585 -0.0949
 2153W        W21687  17.722   7.753  11.573  0.1694 -0.2683  0.0948
 2154W        W21688  10.209   9.166  13.855 -0.2260 -0.2103  0.1399
 2155W        W21689  11.861  11.116  11.096  0.1278 -0.0383  0.1222
 2156W        W21690  14.370  18.002   1.014  0.0896  0.0374  0.1978
 2157W        W21691   2.203   2.034   0.533 -0.2276  0.1235 -0.0660
 2158W        W21692  14.604   8.916   3.958 -0.0036 -0.2484 -0.1748
 2159W        W21693   6.686  13.293  13.988 -0.2453 -0.2420  0.0570
 2160W        W21694   2.430   3.850   4.849  0.0416  0.1086 -0.0965
 2161W        W21695   2.738   4.277  14.495  0.0563 -0.1096 -0.0869
 2162W        W21696  16.947   1.459  12.431  0.0406 -0.2919  0.2054
 2163W        W21697  17.055  17.249  15.433  0.4548 -0.2143 -0.3555
 2164W        W21698   3.270   0.443   4.155 -0.0720 -0.0552  0.1855
 2165W        W21699  16.133  16.320  13.111  0.2531  0.0159  0.0152
 2166W        W21700   4.816   6.793  12.778 -0.0285 -0.0242  0.1998
 2167W        W21701  15.181   0.356  14.973  0.0805  0.0434 -0.1631
 2168W        W21702   8.758   3.910  11.054  0.0653 -0.0283 -0.1643
 2169W        W21703   3.978   8.923  13.443  0.2618 -0.1756 -0.0028
 2170W        W21704  14.436   1.042  15.575  0.2300 -0.0739  0.0525
 2171W        W21705  18.093  13.692  11.552  0.0609 -0.1195 -0.0102
 2172W        W21706  10.542   0.663   2.357 -0.2850 -0.3002  0.0623
 2173W        W21707   4.573  15.503   4.787  0.1324  0.1382 -0.4334
 2174W        W21708   1.727  10.159   0.767  0.2067  0.0649  0.2076
 2175W        W21709   4.211   4.342   2.345  0.1946  0.1136  0.1349
 2176W        W21710  16.948   0.031   2.664  0.0400 -0.1074 -0.2335
 2177W        W21711  12.760  16.442  13.088 -0.0926  0.2205  0.3044
 2178W        W21712   9.000  16.510  12.869 -0.1225  0.2021  0.0973
 2179W        W21713  11.462   4.128  11.439 -0.0122  0.0537  0.0076
 2180W        W21714   9.144   8.291   1.386 -0.1646  0.0992 -0.3433
 2181W        W21715  11.004   3.361   3.411 -0.1445  0.0003  0.0529
 2182W        W21716   2.018   3.249   0.744 -0.0923  0.3970 -0.0848
 2183W        W21717  15.333   5.641  13.683  0.0695 -0.2191  0.0569
 2184W        W21718  12.258   8.472  14.089  0.0031 -0.0796  0.3413
 2185W        W21719  17.968  15.671  14.203  0.0431  0.4643 -0.0872
 2186W        W21720   1.555  14.314   0.286 -0.2181 -0.0731  0.3991
 2187W        W21721   2.503  11.356  12.568  0.1216  0.1287  0.1290
 2188W        W21722   3.125   9.059  13.459 -0.0677  0.2702  0.1098
 2189W        W21723  12.373   8.956   2.231  0.2545 -0.0192  0.0182
 2190W        W21724  15.793  17.985  10.747  0.0744  0.2644 -0.1549
 2191W        W21725  16.340   6.439  12.558 -0.1622 -0.0375  0.0552
 2192W        W21726   1.456  16.760   1.957  0.1846  0.0507  0.1142
 2193W        W21727  12.060  15.510  14.657 -0.1459 -0.2079 -0.0467
 2194W        W21728   9.878  14.035  12.222  0.0482 -0.0409  0.0348
 2195W        W21729   5.507   9.417  13.080  0.2410  0.0761  0.1840
 2196W        W21730   8.438   3.569   1.973  0.0722  0.0502  0.0713
 2197W        W21731   5.116   3.785   1.203 -0.1222  0.2910 -0.1553
 2198W        W21732   9.229  10.296   1.880  0.3274 -0.0452  0.1769
 2199W        W21733  11.372  13.513   2.849  0.0950  0.2544  0.3791
 2200W        W21734   5.224   1.990   2.162  0.1213  0.2789 -0.0884
 2201W        W21735  15.283  12.799  11.428 -0.0398  0.1123 -0.2337
 2202W        W21736  12.881  16.635  13.977 -0.1064  0.1387 -0.0563
 2203W        W21737  10.870   0.206   2.804 -0.1195 -0.0237 -0.1383
 2204W        W21738  10.251   7.544   4.053 -0.0257 -0.0751 -0.2617
 2205W        W21739  12.831  13.365  12.423  0.1620  0.0161 -0.0095
 2206W        W21740  15.468   4.798   4.124  0.3073  0.1658  0.5254
 2207W        W21741   1.550   0.773  13.567  0.0310  0.1051 -0.1312
 2208W        W21742  14.880   0.059   0.081 -0.0734 -0.0861  0.1956
 2209W        W21743  13.416   9.408  12.564 -0.0891  0.2225  0.1087
 2210W        W21744  17.745   3.756  13.732 -0.0499 -0.1564  0.2836
 2211W        W21745   2.777  17.158   2.787  0.0141 -0.2771  0.0386
 2212W        W21746   1.133  16.873   3.482 -0.0107  0.2150 -0.5037
 2213W        W21747   4.986   0.680  11.741 -0.0973  0.0168  0.2427
 2214W        W21748   2.655   8.921  11.979  0.0350 -0.1459  0.0754
 2215W        W21749  18.062  13.150  15.321 -0.1455  0.0135 -0.0045
 2216W        W21750  17.300  16.248   4.427 -0.0628 -0.0716 -0.2194
 2217W        W21751   6.271  11.728   1.270 -0.2191 -0.2715 -0.3339
 2218W        W21752   9.691  13.491   0.813 -0.2921  0.1236 -0.0433
 2219W        W21753  14.248   1.506  12.316 -0.0973  0.2824  0.0036
 2220W        W21754   3.208   3.730  12.463 -0.2458  0.1221  0.1885
 2221W        W21755   4.758  16.804  12.277  0.1514 -0.0856 -0.0236
 2222W        W21756  18.087   5.398   2.282  0.0437 -0.0075 -0.0788
 2223W        W21757  10.073   5.775   0.316 -0.0560  0.1252  0.3300
 2224W        W21758  14.329   7.496   1.998  0.3503 -0.0852 -0.0486
 2225W        W21759   0.329  13.772  12.729  0.0646 -0.1895 -0.1604
 2226W        W21760  17.073  12.929   0.952  0.2521  0.1799 -0.1484
 2227W        W21761   5.270   6.921  14.570 -0.2086  0.0957  0.0609
 2228W        W21762   0.422   9.412   3.095 -0.3586  0.0724 -0.2007
 2229W        W21763   1.266  12.926   0.182  0.1922  0.0707  0.1465
 2230W        W21764   4.671   7.249  12.966 -0.1073  0.1569 -0.0610
 2231W        W21765   5.857   0.689   3.868 -0.1500  0.1245  0.0448
 2232W        W21766  14.590  18.168  11.347 -0.1469 -0.1306 -0.2875
 2233W        W21767  14.958  11.018   2.103  0.0266  0.0141 -0.0442
 2234W        W21768  17.404  15.600  11.479 -0.1891 -0.3791 -0.1041
 2235W        W21769   9.565   3.872  13.123 -0.2183  0.0403  0.3070
 2236W        W21770   4.818  12.715   5.315  0.1210 -0.0616  0.0033
 2237W        W21771  14.602  15.977   2.266 -0.0078  0.1896  0.0493
 2238W        W21772  10.950  16.807  13.507 -0.1758  0.1174 -0.1487
 2239W        W21773   7.236   1.224  15.706 -0.2295  0.2570 -0.1242
 2240W        W21774   5.660  18.308  14.761  0.1317  0.1411  0.0662
 2241W        W21775  12.003  11.204  12.129  0.0131 -0.0556 -0.1959
 2242W        W21776   7.996   5.017   0.167  0.1398  0.1016  0.0652
 2243W        W21777  11.103   4.247   4.752 -0.1059 -0.1325 -0.0844
 2244W        W21778  10.450   1.004  11.491 -0.1377 -0.0160  0.1398
 2245W        W21779  10.874   2.066   3.321 -0.1616 -0.2965 -0.0957
 2246W        W21780  15.712  11.449   0.746  0.2243  0.1159  0.0881
 2247W        W21781   1.830  13.045   4.079  0.0126  0.2011 -0.0156
 2248W        W21782   7.082   2.678   1.263  0.0394 -0.1201 -0.0124
 2249W        W21783  15.425  16.864  13.141  0.0449  0.2984 -0.0688
 2250W        W21784  16.788  11.498   2.525  0.0266 -0.0657 -0.3167
 2251W        W21785   6.803   1.914   1.425 -0.0263 -0.2278 -0.0884
 2252W        W21786   9.595  10.338  12.667  0.0425  0.0321 -0.0176
 2253W        W21787  16.560  11.693  13.276 -0.3620 -0.0443  0.1302
 2254W        W21788   3.387  17.494  14.410 -0.0037  0.0879 -0.0305
 2255W        W21789   2.006  11.313  15.251  0.1224  0.2237  0.0918
 2256W        W21790   3.299  15.688   3.367  0.2804  0.3793  0.0519
 2257W        W21791  15.071   9.486   2.305  0.0025 -0.0695  0.0488
 2258W        W21792   6.783  17.093  14.491 -0.1372  0.0914 -0.2784
 2259W        W21793   9.864   7.829   1.795 -0.3702 -0.3050  0.1428
 2260W        W21794  17.108  12.315  14.903 -0.1024 -0.2549 -0.1827
 2261W        W21795  15.581   9.090  14.770  0.3802 -0.0587  0.2221
 2262W        W21796  18.160   8.026  12.302  0.0210 -0.2577 -0.1204
 2263W        W21797  16.454  17.982  15.103  0.1897 -0.0636 -0.0791
 2264W        W21798   5.336  16.726  13.783  0.2853 -0.0369  0.4144
 2265W        W21799  16.793  16.805  12.836  0.3007  0.0120 -0.0112
 2266W        W21800  14.506  15.020   4.629  0.1924 -0.3943 -0.0111
 2267W        W21801   2.681  14.928   2.404  0.0543 -0.0372  0.0987
 2268W        W21802   8.545   6.126   3.850  0.0715 -0.0980 -0.0590
 2269W        W21803   4.627  17.494  13.360 -0.0110 -0.0595 -0.1466
 2270W        W21804  13.651  13.021  15.517 -0.0426 -0.1234 -0.1637
 2271W        W21805  18.368   4.140  13.283 -0.0707 -0.2200 -0.1256
 2272W        W21806  17.725  10.300   5.025  0.0114 -0.1822  0.0038
 2273W        W21807  13.661  15.550   3.386 -0.3341  0.2745 -0.0039
 2274W        W21808   9.693  10.800   0.142 -0.1127 -0.1498  0.3029
 2275W        W21809   7.897   0.767  14.953 -0.0319  0.0147  0.0949
 2276W        W21810   3.947  16.948   0.095 -0.0202  0.4492 -0.1244
 2277W        W21811  11.607  11.835  14.088  0.2699  0.0785  0.1074
 2278W        W21812   0.398   6.910  10.979  0.1622  0.1981  0.1275
 2279W        W21813  18.240   4.649  12.433 -0.2443 -0.1986 -0.1416
 2280W        W21814   6.463  14.064  13.876  0.2295 -0.1012 -0.0165
 2281W        W21815  17.147   0.623  12.342  0.0271  0.0589 -0.2401
 2282W        W21816   8.843  13.857   3.834  0.1431  0.0759  0.0234
 2283W        W21817   8.800  10.787   3.000  0.0011  0.6179 -0.2177
 2284W        W21818  12.923  11.907   2.757 -0.0544 -0.1627 -0.0797
 2285W        W21819   7.711  12.579   4.297  0.0530 -0.1194  0.0372
 2286W        W21820  12.578   4.659  11.448 -0.0407 -0.1906 -0.0448
 2287W        W21821  16.147   9.975  14.766 -0.0884  0.1058 -0.0123
 2288W        W21822   8.797   2.107  12.037  0.1325 -0.0004  0.0023
 2289W        W21823  17.502  16.107  11.579  0.0314 -0.0532 -0.1543
 2290W        W21824   4.442   0.480   2.412 -0.0157  0.3200  0.1772
 2291W        W21825   3.440   5.542   1.093 -0.2011 -0.0544  0.1818
 2292W        W21826   2.561  12.238   1.490 -0.0331 -0.0275 -0.0342
 2293W        W21827   6.892   8.860  12.986  0.0443  0.1870  0.0687
 2294W        W21828   6.098  13.466  12.537  0.1332  0.3041  0.1722
 2295W        W21829   1.727  11.144   3.331  0.2820 -0.0489  0.0071
 2296W        W21830   7.656  12.582   2.647 -0.1258 -0.1227  0.2537
 2297W        W21831  11.088   6.169   2.538  0.0564 -0.2024 -0.0996
 2298W        W21832   7.924  14.814   2.599 -0.0555 -0.0623  0.2748
 2299W        W21833   8.781   8.997   2.692  0.1416 -0.2991  0.0895
 2300W        W21834   7.458  12.429   1.279 -0.0762 -0.1555  0.0907
 2301W        W21835   2.703   1.041  13.260 -0.4413  0.0927  0.4402
 2302W        W21836  14.842  13.173  14.301 -0.3607  0.1383  0.1101
 2303W        W21837  16.537  15.378  12.705  0.1131  0.2535 -0.1401
 2304W        W21838  12.334  12.124  12.983 -0.1040 -0.1303  0.1569
 2305W        W21839   2.323  10.898   0.702  0.0014  0.1065 -0.3683
 2306W        W21840   0.721   2.028   1.494 -0.1066 -0.0415  0.0022
 2307W        W21841  10.586   1.537  12.958 -0.2076  0.0715  0.0025
 2308W        W21842   5.053  12.711  13.228 -0.0279 -0.1202  0.0371
 2309W        W21843   4.727   0.897  15.496 -0.2436  0.2178  0.0594
 2310W        W21844   4.165   1.636   3.120  0.0560 -0.0972 -0.0952
 2311W        W21845   0.510  18.247  12.574  0.0510 -0.1803 -0.0048
 2312W        W21846   4.439   8.157  13.012  0.0837  0.0763 -0.0067
 2313W        W21847   0.157   5.330  10.849  0.2960 -0.0926 -0.1937
 2314W        W21848  15.568  13.820   4.977  0.1494 -0.1523  0.1546
 2315W        W21849  10.390  12.204   2.504 -0.1926 -0.0930 -0.1332
 2316W        W21850   3.843  14.593   1.178  0.2243 -0.1668  0.2420
 2317W        W21851  11.771   2.438   3.792 -0.1305 -0.0299  0.2348
 2318W        W21852   2.308  16.263   4.253  0.2990  0.3155 -0.1237
 2319W        W21853   8.103  13.414   4.772  0.0888  0.2949  0.1198
 2320W        W21854   2.136   4.080  11.305  0.0168 -0.0261 -0.0254
 2321W        W21855   9.162   4.742  14.191 -0.0076 -0.1609 -0.1039
 2322W        W21856   3.848  15.732  15.343  0.1107 -0.0220 -0.1251
 2323W        W21857  13.963   9.542  14.032 -0.0741  0.0373  0.2014
 2324W        W21858   5.247   1.773   4.622  0.0265 -0.0777  0.2483
 2325W        W21859   4.158  15.385   0.556  0.0292 -0.1919  0.2491
 2326W        W21860   7.433   1.439   4.044  0.4633  0.0241 -0.0275
 2327W        W21861   5.387  13.146  13.575 -0.1006  0.1668 -0.0768
 2328W        W21862   9.614  11.944   0.873 -0.1169 -0.0456 -0.1188
 2329W        W21863   1.704   3.252  11.633  0.0353 -0.1062 -0.1155
 2330W        W21864  15.699  14.334   0.216 -0.2113 -0.2533  0.0044
 2331W        W21865  16.356  13.654   3.940  0.1743 -0.0337 -0.0422
 2332W        W21866  18.112  11.503  14.930  0.3602  0.5858 -0.1108
 2333W        W21867   0.945   9.335  14.456  0.0287 -0.2453  0.0822
 2334W        W21868   0.758  14.739   2.415 -0.0867  0.0132  0.4285
 2335W        W21869   7.269  12.484   4.054  0.2240  0.3434 -0.0053
 2336W        W21870   3.369   7.780  11.976 -0.0781  0.1745 -0.0456
 2337W        W21871  14.493  15.281   3.324  0.2774  0.0213 -0.0370
 2338W        W21872   6.265   2.819   1.363  0.0298 -0.0794  0.2637
 2339W        W21873   1.303  12.859   4.165  0.1180  0.0783 -0.0995
 2340W        W21874   1.396   0.428   2.431  0.0179 -0.1559  0.0269
 2341W        W21875   0.997   6.923   1.266  0.1399 -0.0455  0.1245
 2342W        W21876   9.783   4.008   4.705  0.4663 -0.0465 -0.1449
 2343W        W21877   5.823  11.329   0.115 -0.2214  0.2509  0.0297
 2344W        W21878   2.009   3.290  15.447 -0.0347  0.4891  0.2676
 2345W        W21879   4.986  10.194  11.185 -0.0688 -0.0477 -0.0285
 2346W        W21880   4.617   3.884  14.211 -0.0981  0.1698  0.2443
 2347W        W21881  14.872  12.196   0.989 -0.4085  0.0848 -0.3018
 2348W        W21882  14.322   3.459  14.801  0.2268 -0.1143 -0.2874
 2349W        W21883  17.128  16.804   1.209  0.2728 -0.3670  0.3972
 2350W        W21884  12.230  12.417  12.580  0.1331 -0.3592  0.3162
 2351W        W21885   5.662   4.368   0.380  0.1308  0.1044 -0.0464
 2352W        W21886   1.937   5.548   0.368 -0.1065 -0.2564 -0.0860
 2353W        W21887  12.304   3.376   0.175  0.1232 -0.0597 -0.1536
 2354W        W21888  11.316   5.931  14.361 -0.2482 -0.1565 -0.0632
 2355W        W21889   2.984  15.308  15.434  0.0501  0.2569  0.2584
 2356W        W21890   5.038  15.487   1.958 -0.1866  0.4921 -0.0239
 2357W        W21891   0.298   0.576   4.462  0.4736  0.2911 -0.0859
 2358W        W21892  10.015  16.576   5.041 -0.1506  0.1448 -0.0305
 2359W        W21893  13.320  15.164  15.427  0.2731  0.1223 -0.0944
 2360W        W21894   2.523  16.930  11.965 -0.1072  0.2290 -0.1187
 2361W        W21895   4.550   9.837  11.930  0.0113  0.1183 -0.1908
 2362W        W21896  11.049  14.588  11.568 -0.2443 -0.0054  0.1417
 2363W        W21897  15.524  12.611  12.042  0.3510 -0.0049  0.1661
 2364W        W21898  15.882   4.820  11.398  0.2987 -0.1002 -0.0411
 2365W        W21899   6.642  16.695   0.466 -0.1743  0.0289 -0.1235
 2366W        W21900  17.538  17.335  11.862 -0.3244 -0.1284 -0.0709
 2367W        W21901  14.984  11.117  13.445 -0.2220  0.1262  0.2778
 2368W        W21902  17.468  14.290   3.891  0.1221  0.0926 -0.0823
 2369W        W21903   2.654   1.693   2.240  0.2002  0.4038 -0.3119
 2370W        W21904   2.298  16.649   0.916  0.0502  0.0079 -0.4046
 2371W        W21905  11.681  10.062   2.437  0.2218  0.0271  0.2015
 2372W        W21906   3.178   7.022  14.521  0.1272  0.1720  0.0849
 2373W        W21907   0.637   6.012  13.401 -0.1575  0.4197  0.2596
 2374W        W21908  13.099   2.152  14.220 -0.1085  0.3004 -0.2550
 2375W        W21909  10.315  10.330  12.116  0.0818  0.2113  0.2912
 2376W        W21910   5.516  18.185  13.927 -0.0261 -0.0792 -0.0754
 2377W        W21911   7.977  15.604  12.514 -0.0450  0.0936  0.1000
 2378W        W21912   7.482   0.223  15.564  0.4956  0.2011  0.0802
 2379W        W21913   4.642   6.255   0.562  0.1850  0.0870  0.1586
 2380W        W21914   2.132   5.037   3.647  0.3767  0.0016 -0.0904
 2381W        W21915  12.366   8.720   0.169 -0.1529 -0.1326 -0.2190
 2382W        W21916   7.101   2.331  12.682 -0.3041 -0.3064 -0.1845
 2383W        W21917  14.103   2.499  14.020  0.0240 -0.0560  0.0691
 2384W        W21918   8.410  18.290  14.394  0.1241 -0.2299  0.0238
 2385W        W21919   1.715  11.995   2.948 -0.1102 -0.2012 -0.1106
 2386W        W21920  12.573   7.153  15.479 -0.0226 -0.4037  0.2155
 2387W        W21921  18.302  14.513  11.315 -0.1862 -0.0077 -0.0446
 2388W        W21922  17.324   9.269   4.350  0.2008 -0.1376  0.0945
 2389W        W21923   3.107   3.550  13.931 -0.2703  0.1504 -0.1894
 2390W        W21924  11.337  16.987  13.941 -0.1024  0.1497  0.0148
 2391W        W21925   7.204  10.806   5.706 -0.1831  0.2025  0.3165
 2392W        W21926  11.092  14.943  13.348 -0.0570  0.1050 -0.1834
 2393W        W21927  17.553   2.901  10.902 -0.1826 -0.0165 -0.0541
 2394W        W21928  15.329   5.467  12.550 -0.2686  0.0143  0.1386
 2395W        W21929   1.090   5.852   2.485  0.2025  0.1084 -0.2925
 2396W        W21930   1.845   6.166   3.977 -0.1060  0.2933  0.3071
 2397W        W21931   6.566   5.585   1.926  0.1474 -0.2473  0.1984
 2398W        W21932   1.733  13.130  15.285 -0.0157 -0.1861 -0.0179
 2399W        W21933   7.578   4.712  15.760  0.0361  0.0937  0.0345
 2400W        W21934  15.209   1.447  14.387 -0.0420  0.1503  0.1991
 2401W        W21935   7.988   4.287   1.412  0.1329 -0.0210  0.4402
 2402W        W21936   1.466   9.661  11.631 -0.3739 -0.2031  0.2115
 2403W        W21937  16.552   0.576  13.635  0.5304 -0.1255  0.0941
 2404W        W21938   8.083  17.861   3.743  0.1815  0.1438  0.2085
 2405W        W21939   4.488   3.368   1.457 -0.2982  0.4728 -0.0656
 2406W        W21940  16.255   8.447  14.734 -0.3381  0.4313 -0.4079
 2407W        W21941   9.097   2.062   3.192  0.0081 -0.0336  0.1672
 2408W        W21942   8.054  11.383  12.132 -0.1988 -0.0649 -0.2554
 2409W        W21943   6.651   8.368   3.226 -0.0755 -0.1781  0.2558
 2410W        W21944   0.209  16.264   0.743  0.0288  0.2111 -0.0591
 2411W        W21945  17.593  13.961   2.096  0.3045 -0.2451 -0.0642
 2412W        W21946   0.161   7.165   2.416  0.0741 -0.0796 -0.1948
 2413W        W21947   9.783  11.549   3.882  0.0189  0.2588 -0.1502
 2414W        W21948   6.566   0.260  14.647 -0.5949 -0.2293  0.0575
 2415W        W21949   8.964   3.726   0.044  0.0235 -0.0605 -0.0511
 2416W        W21950   0.220  16.315  11.618 -0.1150 -0.1627 -0.0611
 2417W        W21951  16.406  12.017   1.662 -0.0025  0.1525  0.0842
 2418W        W21952  17.873   6.786  11.557 -0.1800  0.0566  0.1432
 2419W        W21953  14.896   3.932   3.108  0.2079 -0.0493 -0.2022
 2420W        W21954   9.761   0.718   4.856  0.2553 -0.2073 -0.0862
 2421W        W21955   3.862  11.688  15.365  0.1347 -0.1199 -0.2569
 2422W        W21956   1.602  18.285  15.622  0.2175  0.1521 -0.0118
 2423W        W21957   5.835  12.200  14.328 -0.1196 -0.2406 -0.1154
 2424W        W21958  12.723   0.191   4.016 -0.1525  0.0586 -0.0953
 2425W        W21959  14.827  17.080   0.658 -0.0661  0.0429 -0.2406
 2426W        W21960   4.041   4.422   2.799  0.3321  0.0956 -0.1927
 2427W        W21961   0.531  15.001  14.872  0.5036 -0.0273 -0.2292
 2428W        W21962   8.083  17.850  14.348  0.0515  0.0436  0.1387
 2429W        W21963   7.763  17.719   5.068  0.1574 -0.0678 -0.0364
 2430W        W21964   1.216   7.674  14.786 -0.1122 -0.1627 -0.1857
 2431W        W21965  11.458  11.239  13.391 -0.1384  0.0991  0.2080
 2432W        W21966   9.822   7.101   2.107  0.0041  0.1161  0.5427
 2433W        W21967  13.959   0.968   3.816  0.2470  0.1464 -0.3199
 2434W        W21968  18.226   1.159   1.058 -0.1951  0.0991  0.1205
 2435W        W21969  16.132   7.879   1.052 -0.0965 -0.0874  0.4198
 2436W        W21970  11.800   5.190  12.390  0.0107 -0.1502  0.1571
 2437W        W21971  12.537   8.766   0.873  0.0773 -0.2109  0.1155
 2438W        W21972  10.157   4.959  12.544  0.0311  0.2687  0.1347
 2439W        W21973   1.390   5.312  13.782  0.0711 -0.0110  0.0242
 2440W        W21974   8.192  11.171   4.087  0.2827  0.1177  0.1562
 2441W        W21975  10.641   3.359   5.551  0.0939 -0.1405 -0.0855
 2442W        W21976  14.543   6.667  13.586 -0.1897  0.2279 -0.3577
 2443W        W21977   0.692   3.679  13.583  0.0805  0.2371  0.0148
 2444W        W21978  12.400  13.908   4.284  0.1090  0.1553  0.1815
 2445W        W21979   9.542  15.484   3.459 -0.0283  0.1953 -0.0816
 2446W        W21980   6.951  14.221  13.669 -0.1672 -0.1131  0.1047
 2447W        W21981  12.093   4.588   2.871 -0.1905  0.0726  0.0266
 2448W        W21982  11.809   8.911  13.569  0.1212 -0.0913  0.0935
 2449W        W21983  10.543   8.585   2.600  0.1476 -0.2812  0.0747
 2450W        W21984  18.100   4.671  11.954  0.2207  0.0428 -0.0213
 2451W        W21985   6.275  13.400   0.889  0.1546  0.0334 -0.2850
 2452W        W21986   6.897  15.493   4.005 -0.0793  0.0589  0.1205
 2453W        W21987   6.215  15.614   4.692 -0.1845  0.0333 -0.1578
 2454W        W21988   2.095   5.283  14.899 -0.0302  0.0523 -0.1466
 2455W        W21989   6.344   9.861  13.611 -0.1743  0.1029  0.0058
 2456W        W21990  10.070  13.153  12.584  0.1438 -0.0223  0.1173
 2457W        W21991  15.855   7.723   3.111  0.0579  0.2314 -0.2024
 2458W        W21992   5.302  12.758   3.676 -0.1457  0.1751 -0.2499
 2459W        W21993   5.909   5.828  14.672  0.1539  0.3315  0.0465
 2460W        W21994   3.890  11.814  12.348  0.2731 -0.0724  0.1937
 2461W        W21995  12.742   6.962   4.482 -0.4542 -0.1507 -0.0927
 2462W        W21996   5.296  14.733  13.893 -0.0158 -0.1385 -0.0720
 2463W        W21997   5.789  10.731   4.037  0.3727  0.0249 -0.1525
 2464W        W21998  12.311   2.583  11.602  0.3405 -0.0025  0.4277
 2465W        W21999   4.288  12.698   2.142  0.0402  0.1375 -0.0114
 2466W        W22000   9.875  10.638   3.814 -0.0594  0.2672  0.0929
 2467W        W22001   4.939  18.116  11.685 -0.2883 -0.2168  0.0260
 2468W        W22002  16.350  17.462  12.568  0.0429 -0.0199  0.1834
 2469W        W22003   6.331   2.942  12.461  0.0175  0.3126 -0.1366
 2470W        W22004  18.271   8.821   2.038  0.0997 -0.1103  0.1481
 2471W        W22005  12.129   9.093  15.719  0.1137  0.0041  0.0679
 2472W        W22006   1.256  13.312   2.891  0.1270 -0.0599 -0.2340
 2473W        W22007  12.146   1.125  12.199  0.3004  0.0891 -0.2465
 2474W        W22008   8.470   1.047  15.784 -0.1407 -0.1135 -0.0504
 2475W        W22009   5.915   8.915  12.666 -0.1386  0.1947  0.1132
 2476W        W22010   6.566  10.134  11.703 -0.0242 -0.0690 -0.1658
 2477W        W22011   6.625   0.719   2.454 -0.1552 -0.0860  0.1274
 2478W        W22012   1.755  14.773  12.297 -0.2119  0.2367 -0.1613
 2479W        W22013  10.752  17.531  14.003 -0.1276  0.0731 -0.0292
 2480W        W22014   7.836  15.048   2.172  0.1269  0.1680 -0.1032
 2481W        W22015   9.322  11.899   1.847 -0.1714  0.0104  0.0634
 2482W        W22016   4.513   0.708   1.882 -0.1065 -0.4905 -0.1772
 2483W        W22017  10.004  13.591   0.380 -0.0657 -0.0976  0.1746
 2484W        W22018   6.485  14.986   1.721  0.0793  0.0510  0.1025
 2485W        W22019   9.553   9.635   2.622 -0.0748 -0.2159  0.1571
 2486W        W22020  15.518  12.775  12.561 -0.2616  0.2966 -0.3348
 2487W        W22021   6.665   8.127  15.504  0.3007 -0.0296  0.0475
 2488W        W22022   0.370  10.943  14.589  0.0561  0.0647 -0.3933
 2489W        W22023   1.022   3.393   3.466  0.0364 -0.2954  0.0593
 2490W        W22024  15.966   4.189  14.114  0.0633  0.2247 -0.1379
 2491W        W22025  13.934   6.531   1.772  0.0978  0.0574 -0.4033
 2492W        W22026   5.899  11.518   4.313  0.3572  0.2935 -0.1196
 2493W        W22027  12.941  17.294   0.879 -0.1422 -0.1328  0.1034
 2494W        W22028   4.790   1.350   0.600  0.1407  0.2666  0.0873
 2495W        W22029   1.568   4.778  14.485  0.1310 -0.1637  0.3457
 2496W        W22030  17.655   1.446  14.211  0.3511 -0.1337  0.1730
 2497W        W22031   6.026   3.838   4.803 -0.1036  0.3132 -0.1801
 2498W        W22032  18.346  14.530   4.740  0.0252  0.2609 -0.2075
 2499W        W22033   0.898  17.492   1.877 -0.0398 -0.0756 -0.0974
 2500W        W22034   3.576   5.371  14.603 -0.1649  0.2847  0.0401
 2501W        W22035  11.827   3.985   4.405  0.0391 -0.2072 -0.1739
 2502W        W22036  11.530   9.286  12.816  0.2251 -0.0769 -0.1722
 2503W        W22037  13.047  14.468   1.019 -0.2064 -0.1692  0.0575
 2504W        W22038   0.269  13.669   2.546  0.3129 -0.0064 -0.0277
 2505W        W22039   0.499   4.664   3.995 -0.1882  0.1713 -0.0434
 2506W        W22040   2.770  17.337   0.395  0.2485  0.1994  0.1349
 2507W        W22041   2.086  13.019  12.171 -0.2858  0.0807  0.1856
 2508W        W22042  12.184  11.758  14.891 -0.1604 -0.0020 -0.2297
 2509W        W22043   2.225   5.567  14.246  0.2415 -0.1450  0.0766
 2510W        W22044  12.862   2.343  14.948  0.0754 -0.1154  0.2127
 2511W        W22045  17.325  12.168   0.216 -0.0740  0.0824  0.1514
 2512W        W22046   5.904   4.000  14.886  0.0964 -0.2314  0.2919
 2513W        W22047  16.305   0.639   2.906 -0.1227  0.1427  0.0087
 2514W        W22048   7.528   9.636   2.866  0.0712 -0.0183 -0.0893
 2515W        W22049   5.594  15.970   4.462  0.1013  0.0133  0.0685
 2516W        W22050   0.672   8.135  13.264 -0.0759  0.2841 -0.0211
 2517W        W22051   0.828   4.877   3.552 -0.0959 -0.0973  0.3540
 2518W        W22052   1.587   3.547  13.790  0.2879  0.1714  0.4645
 2519W        W22053   1.454   0.551  15.283  0.0273  0.2588 -0.3229
 2520W        W22054   6.497  14.222  15.524  0.2311 -0.0219 -0.2259
 2521W        W22055   8.550   1.102  11.673 -0.2602 -0.2049 -0.0965
 2522W        W22056   4.880   1.692   3.733 -0.0273  0.0435 -0.0537
 2523W        W22057   0.624   0.920   4.716  0.0661 -0.1498 -0.2212
 2524W        W22058  17.356  13.680   1.692  0.0703 -0.2010 -0.0176
 2525W        W22059  10.651   5.171  12.784 -0.0871 -0.0517  0.0530
 2526W        W22060  10.373  13.071  15.738  0.0368  0.0895 -0.1161
 2527W        W22061   3.630  17.033   0.840  0.0238  0.0348  0.0517
 2528W        W22062   1.738   4.325   3.670 -0.2172 -0.1904 -0.1347
 2529W        W22063  13.615   8.919  11.525 -0.0221  0.2333  0.2745
 2530W        W22064   5.954  17.966   2.417  0.0667 -0.2934  0.1128
 2531W        W22065  16.832  11.215   1.649 -0.0985 -0.0814  0.1614
 2532W        W22066  16.740   7.001  14.169  0.0780 -0.1354  0.1719
 2533W        W22067   3.079  15.090  14.479  0.0640  0.0728 -0.2403
 2534W        W22068  11.455   7.075  15.754  0.3136 -0.0898 -0.2970
 2535W        W22069   6.147   1.908  10.896  0.0197  0.2617  0.3567
 2536W        W22070   6.317  16.955   2.550  0.0290  0.0884 -0.1407
 2537W        W22071  16.088  16.585   3.158 -0.1563 -0.1635 -0.1469
 2538W        W22072  17.185   4.957   0.502  0.0554 -0.1389 -0.0119
 2539W        W22073  12.499   0.198   1.335  0.1158 -0.3074  0.0289
 2540W        W22074   6.064  11.100  12.717 -0.1399  0.2224 -0.1341
 2541W        W22075  18.045   7.383  14.007 -0.1284  0.0215 -0.0210
 2542W        W22076   3.136   5.554  14.225 -0.0356  0.1291 -0.0919
 2543W        W22077  13.102  10.553   1.985 -0.1892  0.1130  0.1260
 2544W        W22078  14.499   0.526   2.615 -0.1465  0.1858  0.0161
 2545W        W22079   2.868   4.770  14.611 -0.2141  0.1256 -0.0228
 2546W        W22080   8.868   6.503  11.704 -0.0350  0.0334 -0.0695
 2547W        W22081  17.365  17.642  11.172 -0.1549  0.0485  0.0020
 2548W        W22082   4.265   1.699   2.138 -0.1617  0.2463  0.1797
 2549W        W22083  12.011   9.058  10.828 -0.3957 -0.0173 -0.1819
 2550W        W22084  15.479   8.801   0.424 -0.2030 -0.1721 -0.0250
 2551W        W22085   5.298  15.562  12.021 -0.1066 -0.0513 -0.1302
 2552W        W22086   9.842  18.357   0.480 -0.1432 -0.1559  0.0819
 2553W        W22087   4.943  15.359   3.355  0.4003 -0.1233 -0.1141
 2554W        W22088   8.242   4.714   3.290  0.3622  0.2776  0.3567
 2555W        W22089   7.154  13.850   1.023  0.1931  0.2039  0.0502
 2556W        W22090  16.545  10.042  13.332  0.0959 -0.1016 -0.0231
 2557W        W22091  11.490  18.316  15.220 -0.0632 -0.2235  0.2395
 2558W        W22092  13.726   8.168  15.713 -0.0149 -0.1403  0.2860
 2559W        W22093  13.123   8.340   2.495  0.0148  0.0806 -0.0990
 2560W        W22094  13.792   7.237  10.211  0.0854  0.0872 -0.2080
 2561W        W22095   3.798  10.577   1.567 -0.3434  0.1636 -0.1600
 2562W        W22096   3.513   3.241   2.628 -0.1014 -0.3350 -0.1402
 2563W        W22097   4.224   8.198   3.026 -0.0088  0.2822  0.1934
 2564W        W22098  16.882   2.239   0.716  0.3354 -0.1247  0.0495
 2565W        W22099   4.255  18.174  15.833  0.1001  0.0667 -0.0205
 2566W        W22100  15.214  13.428  14.656 -0.4611 -0.1097 -0.0784
 2567W        W22101   7.325   0.486   2.752  0.3386  0.1736  0.3569
 2568W        W22102  16.351   3.244   4.522  0.1409  0.0323  0.0220
 2569W        W22103   5.029  14.497  13.378 -0.0157 -0.0654 -0.0709
 2570W        W22104   3.296  10.712   4.744  0.0640  0.0670  0.0503
 2571W        W22105  16.088   1.525  14.767 -0.0262  0.0085 -0.1299
 2572W        W22106   2.209   9.996   4.019  0.0607  0.0994 -0.1314
 2573W        W22107   1.157  15.560  13.568  0.0118  0.0383  0.1137
 2574W        W22108  15.106   8.464   0.131 -0.1196  0.1544 -0.0763
 2575W        W22109  14.633  14.810   0.251  0.0636  0.0569  0.1094
 2576W        W22110   7.611   4.417   4.626  0.0194  0.2795  0.1266
 2577W        W22111   5.305   5.262   3.318 -0.1324 -0.0024 -0.3110
 2578W        W22112  12.506  11.773   3.605  0.1036 -0.3386 -0.1295
 2579W        W22113  17.057   3.519   0.083  0.3091  0.1248  0.0207
 2580W        W22114  18.210   1.028   4.653  0.0296  0.1380 -0.0702
 2581W        W22115  15.150   0.868  15.676  0.3830  0.0190 -0.0225
 2582W        W22116   3.117   0.707  15.758  0.0488 -0.2521 -0.0365
 2583W        W22117   3.061  15.731  14.898  0.0879  0.0035 -0.1330
 2584W        W22118   8.105  18.223   0.471  0.0077  0.1367 -0.0599
 2585W        W22119   2.899  11.628   2.739 -0.1606 -0.0969 -0.0280
 2586W        W22120   0.007   4.637   0.262 -0.0493  0.2798  0.3440
 2587W        W22121   3.432   7.970  12.500  0.1653  0.0854 -0.0819
 2588W        W22122  17.331  11.994  15.270  0.1734  0.3091  0.0985
 2589W        W22123   4.592   8.060   3.852 -0.1798 -0.1476 -0.1752
 2590W        W22124   0.268  10.260  12.372 -0.3689 -0.4456 -0.4292
 2591W        W22125   3.864   7.546  14.912 -0.1142  0.1846  0.0744
 2592W        W22126  14.858   7.610   3.351 -0.3861 -0.4804  0.1898
 2593W        W22127   3.293  18.182   3.602  0.4643  0.2879 -0.0107
 2594W        W22128  14.878  16.106  15.332 -0.0894 -0.0614 -0.2552
 2595W        W22129   6.883  17.480  12.240  0.3184 -0.0686 -0.0662
 2596W        W22130  18.025  13.093  14.218  0.2323 -0.2552 -0.1875
 2597W        W22131  17.898  10.141  12.987 -0.1692  0.2099 -0.1940
 2598W        W22132   1.262   2.999   1.242  0.0541 -0.2637  0.2075
 2599W        W22133   3.909  10.454   0.576  0.5225 -0.3766 -0.3542
 2600W        W22134  12.941  10.369  15.765  0.2667 -0.0684  0.3326
 2601W        W22135   4.727   8.944  14.422  0.4284  0.2534 -0.1766
 2602W        W22136  12.862  12.361   3.222  0.2468 -0.1245  0.1688
 2603W        W22137   2.850   1.661   2.730  0.0222 -0.1536  0.0060
 2604W        W22138   7.959   7.737  13.878  0.3378  0.0824 -0.4287
 2605W        W22139   4.874   5.084   4.164  0.0416 -0.1335  0.0885
 2606W        W22140  12.872  14.775   4.278 -0.2910 -0.4167 -0.2391
 2607W        W22141   0.411   1.588   4.202 -0.2814  0.2322 -0.1303
 2608W        W22142   1.631  14.064  14.678 -0.1578 -0.3411  0.1503
 2609W        W22143  11.474   5.143  13.912 -0.4356  0.1353  0.1148
 2610W        W22144   5.901  12.904  14.834  0.1781 -0.3012  0.3363
 2611W        W22145  17.879   5.321  13.602  0.1561  0.1176 -0.0171
 2612W        W22146  16.572  16.448  11.324  0.0962 -0.2005 -0.2323
 2613W        W22147   8.162   1.905   2.578 -0.3262 -0.0458 -0.0842
 2614W        W22148   5.449   0.822  12.022  0.2288 -0.1216  0.1301
 2615W        W22149   8.480   0.912   2.689 -0.3469  0.1966  0.0532
 2616W        W22150   8.191  17.791  15.538 -0.2133  0.2793  0.0177
 2617W        W22151   3.883  16.016   0.692  0.2722 -0.1419  0.1019
 2618W        W22152  13.303   4.015   1.626 -0.2547 -0.0137  0.0643
 2619W        W22153  14.133   5.544  11.550 -0.0108 -0.1498 -0.2188
 2620W        W22154   8.046   2.447   0.185  0.1762 -0.1385  0.3607
 2621W        W22155  15.483  17.840   1.165 -0.1290  0.0785  0.0940
 2622W        W22156   4.032  15.483  14.570 -0.3661  0.1071  0.1936
 2623W        W22157  14.970   4.877  11.601 -0.2829 -0.0682  0.2669
 2624W        W22158   4.014   3.472  11.943  0.0109  0.2708  0.1908
 2625W        W22159  13.634   7.886  13.318  0.1916 -0.2004 -0.0204
 2626W        W22160  11.424   3.750  13.063 -0.1158 -0.0352  0.1674
 2627W        W22161   1.816   0.842   0.510  0.0158  0.1520 -0.3077
 2628W        W22162   8.280  10.020   1.895 -0.2118 -0.2954  0.2353
 2629W        W22163  15.377   9.312   2.691 -0.0727 -0.2926 -0.1606
 2630W        W22164   8.593  14.650   1.717 -0.1511 -0.0398  0.0172
 2631W        W22165   8.443   6.818   0.172 -0.3723 -0.0372 -0.2252
 2632W        W22166  16.894  15.491  15.199  0.3646 -0.0622  0.0298
 2633W        W22167   9.567  12.285  14.274  0.1334  0.0486  0.1743
 2634W        W22168   5.186  14.807   0.166  0.2292  0.0158  0.0844
 2635W        W22169  12.576  11.713  11.888  0.0960 -0.1891  0.1114
 2636W        W22170   2.848  14.468  13.400  0.0705 -0.0215  0.1989
 2637W        W22171  12.046   0.808  13.766  0.1081 -0.1226  0.1321
 2638W        W22172  18.345  10.627  12.511 -0.1881  0.1365  0.0290
 2639W        W22173   1.273   2.643   2.103 -0.0912 -0.1219  0.2932
 2640W        W22174   6.999   4.592   1.110  0.2664 -0.0205 -0.1153
 2641W        W22175  10.486   7.918  15.766  0.3254  0.3164 -0.1010
 2642W        W22176  14.509  16.054  13.213 -0.0503 -0.1406 -0.0035
 2643W        W22177  16.257  12.568  11.485 -0.2442  0.1534 -0.1141
 2644W        W22178  10.748  10.090   0.140 -0.1194  0.0874 -0.3426
 2645W        W22179  15.576  14.284  14.909 -0.1301 -0.0194  0.0018
 2646W        W22180  11.833  14.722  14.643  0.2201 -0.3022  0.1532
 2647W        W22181   6.045   1.612  11.932 -0.0387 -0.1130  0.0686
 2648W        W22182   5.434   9.850   2.037 -0.0200 -0.0663 -0.2216
 2649W        W22183   7.893   9.846  13.650  0.0777 -0.2328  0.1663
 2650W        W22184  12.148  15.045   3.052 -0.0311  0.3230  0.1348
 2651W        W22185   1.650   3.035   2.311  0.0065  0.1643 -0.0085
 2652W        W22186   5.070   0.032  15.242 -0.0308  0.1684  0.1256
 2653W        W22187   3.352  12.441  12.032 -0.2318  0.1506  0.1419
 2654W        W22188   5.699   6.346  13.420  0.0379  0.0018 -0.3962
 2655W        W22189  12.637  16.141  14.824 -0.1827 -0.1518 -0.1649
 2656W        W22190  14.103   3.441   2.508 -0.1637  0.0610 -0.0304
 2657W        W22191   4.423  13.831   4.804  0.1287 -0.2057  0.1782
 2658W        W22192   7.984   9.933  15.056 -0.0254 -0.3567 -0.0062
 2659W        W22193   5.294   0.679   1.175 -0.0810  0.0617 -0.2389
 2660W        W22194  10.981   8.694  13.565 -0.0831  0.2366 -0.0914
 2661W        W22195  11.763   8.547  14.022 -0.2940  0.0589 -0.1734
 2662W        W22196  14.022  12.018   4.469 -0.0350  0.2591 -0.0618
 2663W        W22197   4.267   7.183  14.654 -0.2083  0.2617  0.0246
 2664W        W22198   7.006   0.159   1.335 -0.0212 -0.3453  0.0799
 2665W        W22199  14.427   8.921   3.284  0.0640 -0.0807  0.1394
 2666W        W22200   5.519  10.775  11.560 -0.1298 -0.0444 -0.0606
 2667W        W22201  17.140   6.630   0.165 -0.1750 -0.0725  0.0016
 2668W        W22202  14.684   1.715  15.462  0.1078  0.0363  0.2035
 2669W        W22203   1.070   5.209  11.131  0.3609  0.0252  0.0349
 2670W        W22204  12.276   9.409   4.318  0.2684  0.1606 -0.1018
 2671W        W22205   2.425   6.535  12.221  0.1202  0.1656  0.2790
 2672W        W22206   5.098   7.460  13.380 -0.1614  0.0574  0.1034
 2673W        W22207   5.072   8.436   3.318  0.1786 -0.0407 -0.0531
 2674W        W22208   0.353  18.089  14.715  0.0738  0.2378 -0.2706
 2675W        W22209   2.284  10.426  11.695  0.0270  0.0317  0.0692
 2676W        W22210   5.345  10.818   1.864 -0.0734  0.0649  0.0166
 2677W        W22211   0.834   4.259   4.599 -0.2113  0.2123 -0.1570
 2678W        W22212   8.102  11.522  12.608  0.3305  0.1039  0.0908
 2679W        W22213   7.612   2.863  14.225 -0.0426 -0.2961 -0.3114
 2680W        W22214  16.002  12.555   0.591  0.2530  0.5594  0.3099
 2681W        W22215   0.429   5.588  14.727  0.1104  0.2647  0.0076
 2682W        W22216   6.457   1.670  13.361 -0.1854 -0.2514 -0.1291
 2683W        W22217  11.345  16.660  11.608  0.1378  0.0346 -0.1873
 2684W        W22218   6.481   2.366  13.972  0.0719 -0.1340 -0.0139
 2685W        W22219  14.133  14.771  13.910 -0.3199  0.0469  0.0781
 2686W        W22220   4.040  12.371  12.330 -0.3034  0.0183 -0.0134
 2687W        W22221  14.285   6.497  11.746  0.1724  0.3396  0.2371
 2688W        W22222  10.065  17.743   0.592 -0.2164 -0.1176  0.0104
 2689W        W22223  13.856  16.482   0.891 -0.0247 -0.3399 -0.0368
 2690W        W22224   9.277   3.700   0.943  0.2147  0.1379  0.3420
 2691W        W22225   1.689   7.577   1.571  0.2457 -0.0889 -0.2583
 2692W        W22226  15.099   0.843   3.522 -0.1385  0.2151 -0.0184
 2693W        W22227  13.502   7.411  13.195  0.0562  0.0086  0.0859
 2694W        W22228   6.471   5.750  15.434  0.3917 -0.0155 -0.2442
 2695W        W22229  11.384  15.591  11.888  0.2959  0.1444 -0.2451
 2696W        W22230   8.745  12.319  15.464 -0.2431  0.1294  0.2718
 2697W        W22231   5.744   4.803  12.508  0.2573 -0.1784  0.3351
 2698W        W22232   7.423  11.471  14.365  0.0439 -0.1475  0.3594
 2699W        W22233  15.572  13.344  13.817 -0.1814 -0.0422  0.0559
 2700W        W22234  17.508   3.581   3.128 -0.0370  0.1791 -0.0204
 2701W        W22235   9.736   4.548   4.471 -0.0954 -0.0069  0.0880
 2702W        W22236  12.627   4.600  10.872  0.2004 -0.2464 -0.0699
 2703W        W22237   9.005  10.084   0.662  0.3591 -0.1056 -0.1878
 2704W        W22238   7.001  12.059  12.657  0.2976 -0.1453  0.1230
 2705W        W22239  15.380  17.318  12.911  0.2574  0.1853 -0.1111
 2706W        W22240  10.983  11.108  15.526 -0.1302  0.0641  0.3042
 2707W        W22241   7.660  10.375  12.634 -0.3114  0.0712  0.2046
 2708W        W22242   9.031  15.806   1.221 -0.0878  0.2222  0.0191
 2709W        W22243  10.435  10.668   2.275  0.0924 -0.2320 -0.1312
 2710W        W22244  10.805   6.610   1.111 -0.2351  0.0609 -0.3186
 2711W        W22245  15.801  16.604   1.755 -0.2050 -0.0001 -0.0409
 2712W        W22246   5.389   0.278  14.911 -0.3513  0.1037 -0.0014
 2713W        W22247  16.751   4.879  15.552 -0.0023  0.0496 -0.2226
 2714W        W22248   3.745   8.193   0.763 -0.2421  0.1251 -0.1147
 2715W        W22249   4.205  11.683  11.435  0.0183 -0.2129  0.0188
 2716W        W22250   7.631   2.634   2.255 -0.0164 -0.2160 -0.2742
 2717W        W22251   6.777  12.876   1.468  0.0218 -0.0132 -0.0786
 2718W        W22252   0.738   1.598  13.822 -0.1633 -0.0599 -0.0410
 2719W        W22253  16.172   6.999  12.604  0.0534 -0.0111  0.0424
 2720W        W22254  11.283   0.247  15.510  0.0648  0.2174 -0.2217
 2721W        W22255  13.827   1.952  15.688  0.2309  0.0743  0.1153
 2722W        W22256   2.640   1.262   0.412 -0.1279 -0.0680 -0.0095
 2723W        W22257  15.575  15.287   1.689  0.1354  0.3986  0.1546
 2724W        W22258  16.448   3.446  14.166  0.0898  0.1729 -0.1882
 2725W        W22259   9.945   5.030   2.915 -0.0604 -0.1441 -0.2265
 2726W        W22260   4.803  13.803   3.378  0.1176  0.2639 -0.2163
 2727W        W22261   0.089   4.419   4.277  0.1734  0.0306  0.1934
 2728W        W22262  16.333   0.956  13.335 -0.2271  0.1076  0.0834
 2729W        W22263   9.824  17.047   3.539  0.0705 -0.3078 -0.0746
 2730W        W22264  11.238   5.169   3.562 -0.1875  0.2191 -0.2664
 2731W        W22265   2.833   6.805   2.488  0.2132 -0.0727  0.0788
 2732W        W22266   5.937  15.115   4.836 -0.0701 -0.1183  0.1678
 2733W        W22267  10.529  18.018   4.544 -0.1591  0.0727  0.2350
 2734W        W22268  14.983  18.242  12.141  0.0951  0.2388 -0.3105
 2735W        W22269  18.255   8.916  15.077 -0.2205  0.2087  0.1672
 2736W        W22270  11.189  17.360   1.700  0.0214 -0.0877  0.1714
 2737W        W22271  13.627  11.779   1.261  0.0337 -0.0017  0.2316
 2738W        W22272   2.760  11.381  14.050  0.0572 -0.0670 -0.3186
 2739W        W22273   2.341   7.188   4.637 -0.1079  0.1328  0.1353
 2740W        W22274   3.280  12.974   3.691  0.0868  0.2594 -0.1079
 2741W        W22275   7.772  16.963  13.191 -0.1041  0.1180 -0.0307
 2742W        W22276  15.190  16.777   4.790 -0.0158  0.0057  0.0788
 2743W        W22277   1.784   9.404   2.225  0.0265 -0.0605 -0.3135
 2744W        W22278   5.505   3.081  11.266  0.0673  0.1107 -0.2839
 2745W        W22279   0.678   3.888   0.141 -0.0388 -0.0121 -0.0494
 2746W        W22280  12.949  12.339   1.093  0.0460 -0.1642 -0.0096
 2747W        W22281  12.505   1.332  11.266  0.0712  0.0675 -0.0572
 2748W        W22282   6.968   3.070   4.660  0.0081 -0.1414  0.1917
 2749W        W22283  10.444  13.068  13.571 -0.2094  0.3515  0.1199
 2750W        W22284   0.981   4.085  13.352  0.0190  0.0845 -0.4158
 2751W        W22285   1.986  16.467  15.458  0.0408  0.1946 -0.0690
 2752W        W22286  15.188  14.003   3.347 -0.0850 -0.0713  0.2021
 2753W        W22287  10.169  12.300   2.098 -0.0434 -0.0310 -0.1413
 2754W        W22288  18.290   3.870  14.871  0.1276 -0.1645 -0.0309
 2755W        W22289   5.147   9.460  12.732 -0.0560 -0.3384 -0.0565
 2756W        W22290  16.718  17.466   2.176  0.0194 -0.4452 -0.1846
 2757W        W22291  14.145   8.314  13.990  0.2030 -0.1788  0.0092
 2758W        W22292   6.280   4.841   4.500  0.1748 -0.2474  0.0870
 2759W        W22293   7.445  15.073   1.097 -0.2008 -0.0724  0.0191
 2760W        W22294  10.610   4.301  13.370  0.1606  0.2486  0.2672
 2761W        W22295   3.637   4.951  12.080  0.1289  0.0317  0.0571
 2762W        W22296  13.645   4.332   1.738 -0.1379  0.0211 -0.2409
 2763W        W22297  14.289  15.626   2.008  0.0590 -0.3104  0.1001
 2764W        W22298  18.301   7.560  13.070  0.0103  0.4804 -0.0815
 2765W        W22299   9.233   2.414  13.382  0.1619  0.1746  0.2454
 2766W        W22300  13.574   3.111  13.208 -0.2305  0.1915 -0.1500
 2767W        W22301   9.270   6.150  12.752  0.0666 -0.1490 -0.1209
 2768W        W22302   6.374  12.753  14.904  0.3860  0.2163  0.0967
 2769W        W22303  13.494   6.990   0.646  0.0110 -0.0831 -0.1491
 2770W        W22304   5.720   0.951  15.466 -0.1595  0.0378  0.0659
 2771W        W22305   3.232  14.916   2.535  0.1309 -0.0614 -0.0441
 2772W        W22306  12.887   2.871  14.774 -0.0469 -0.0225  0.2606
 2773W        W22307   0.650   6.426   1.321  0.0567  0.0203 -0.1298
 2774W        W22308  11.776   0.507   3.133 -0.2864 -0.2217  0.0884
 2775W        W22309   7.633  13.055  15.757  0.0067 -0.4096 -0.1169
 2776W        W22310  15.996   7.766  12.791 -0.0176  0.0641  0.2421
 2777W        W22311   6.121   3.712   3.165  0.1805 -0.0803 -0.1952
 2778W        W22312   7.981  10.419   4.990  0.0124 -0.2290 -0.2339
 2779W        W22313  11.348   3.803   2.651 -0.1232  0.3202 -0.3221
 2780W        W22314  10.888   6.506   1.611 -0.0881  0.0373 -0.3639
 2781W        W22315   0.036  15.404  14.511 -0.2133 -0.0673  0.4755
 2782W        W22316  17.538  13.187  14.013  0.0246 -0.1317  0.0486
 2783W        W22317  11.992  16.963  11.800 -0.0473  0.0575 -0.0004
 2784W        W22318  17.020   3.430  11.534 -0.0031 -0.0615  0.3761
 2785W        W22319   8.500  12.084   4.487 -0.0681 -0.0634 -0.0757
 2786W        W22320   1.545   4.892   4.417  0.0142  0.0516 -0.0009
 2787W        W22321  15.804   8.819   1.181  0.2238 -0.1356 -0.0443
 2788W        W22322  15.667   9.995  11.782  0.3885 -0.2121  0.1129
 2789W        W22323  11.295  18.079  14.575  0.0594 -0.2377  0.0570
 2790W        W22324   9.228  14.183   3.831  0.2028  0.0620  0.1514
 2791W        W22325   3.703  14.816   1.672 -0.0850 -0.2083  0.1446
 2792W        W22326  15.756   5.427  13.422 -0.1845  0.0662  0.3044
 2793W        W22327   4.691   8.226   1.142 -0.0888 -0.0136  0.3163
 2794W        W22328  10.221   8.354  11.642 -0.1078 -0.1292  0.2123
 2795W        W22329  12.484   8.035   3.022 -0.1273 -0.0352 -0.1711
 2796W        W22330  10.447  16.459  11.854 -0.0236  0.0034  0.2719
 2797W        W22331  13.531   0.234  13.935  0.2046  0.1050  0.0997
 2798W        W22332  12.439  13.211   4.994  0.0133 -0.1053 -0.2104
 2799W        W22333  16.391  13.513   3.496 -0.0064 -0.1321 -0.0585
 2800W        W22334   8.873   3.465  11.967  0.1568 -0.1653  0.0952
 2801W        W22335   9.000   4.081   3.417  0.1845  0.2159 -0.0974
 2802W        W22336  16.951   0.620   1.495  0.0313 -0.0373  0.1043
 2803W        W22337   9.738  14.683  14.298 -0.3606  0.3307  0.3538
 2804W        W22338   1.695   7.735   0.252  0.0878  0.2970  0.2244
 2805W        W22339  15.682  17.429   0.593 -0.0972 -0.3040  0.0728
 2806W        W22340  13.991  10.705   4.028 -0.1184 -0.0096  0.0522
 2807W        W22341   5.910   9.566   1.444 -0.2774  0.2726  0.2577
 2808W        W22342  17.777  10.408  14.532 -0.0321  0.0955  0.1728
 2809W        W22343  13.280  10.341  14.883  0.1593  0.1045 -0.1788
 2810W        W22344   4.963  10.901   5.692  0.1190 -0.0114  0.1549
 2811W        W22345  10.547  13.846  14.673  0.0997 -0.0881  0.3773
 2812W        W22346   4.068  15.114   2.121  0.2217 -0.0503 -0.2040
 2813W        W22347   9.014   6.955  11.427  0.1061  0.2660  0.0728
 2814W        W22348  10.050  17.237   0.937 -0.1839  0.2689 -0.0748
 2815W        W22349   1.918   5.631   3.676 -0.2225  0.0249  0.2523
 2816W        W22350  17.389   3.117   0.200  0.1840  0.2736  0.3849
 2817W        W22351  16.051  15.846  12.931  0.1887  0.0398 -0.0420
 2818W        W22352   8.866   4.854   1.824  0.0440  0.0997 -0.2486
 2819W        W22353  14.024   5.626  13.207  0.2023  0.0529 -0.2615
 2820W        W22354   0.187  17.542   0.919 -0.1116 -0.0594 -0.0653
 2821W        W22355   4.148   5.118   4.721 -0.0077 -0.0952  0.2081
 2822W        W22356   9.614   3.405  13.432 -0.1118  0.0533 -0.1800
 2823W        W22357   2.600  16.644   3.873 -0.3929 -0.0057 -0.0073
 2824W        W22358  10.867  14.634  12.157 -0.3070 -0.0633 -0.4186
 2825W        W22359  16.785   1.445   3.639 -0.1033 -0.0939  0.2929
 2826W        W22360   4.896   9.635   0.566 -0.0325  0.0454 -0.1686
 2827W        W22361   7.641   5.714  15.798  0.0963  0.1336  0.2855
 2828W        W22362  11.384  12.328   3.268 -0.0882 -0.0476  0.0554
 2829W        W22363  17.919   8.334   3.216  0.0744 -0.3668  0.1173
 2830W        W22364   5.379   5.269   2.587  0.0543 -0.0308 -0.1953
 2831W        W22365   3.109  15.239   3.529 -0.0334 -0.0466 -0.1390
 2832W        W22366   2.669  18.193   3.826 -0.3466  0.4742 -0.2527
 2833W        W22367  12.612   3.739  15.517 -0.1967 -0.1039 -0.0095
 2834W        W22368  15.438  14.718   2.366  0.2541 -0.2595 -0.3944
 2835W        W22369   1.557   6.122  13.182 -0.0568 -0.0988  0.1390
 2836W        W22370   6.106  13.762  13.534  0.0984 -0.2439 -0.0367
 2837W        W22371  18.183   5.720  14.706  0.1533  0.1722  0.0038
 2838W        W22372   7.685   6.665  14.826 -0.0689  0.1467 -0.2022
 2839W        W22373  10.050  15.885   1.402  0.0879  0.1968  0.1817
 2840W        W22374   9.155  13.494  14.912 -0.0326 -0.0329  0.1962
 2841W        W22375  17.835   0.207   2.940  0.0329  0.0837  0.0030
 2842W        W22376  11.915   5.795   2.213  0.3204 -0.3082  0.4516
 2843W        W22377  18.295   9.104   0.956 -0.3333 -0.1326  0.0750
 2844W        W22378   7.831   9.809   2.016 -0.0657  0.1521  0.0374
 2845W        W22379  15.850  12.278  13.894 -0.1372 -0.2137 -0.1704
 2846W        W22380   6.106   3.936  11.499 -0.0645  0.0828 -0.0470
 2847W        W22381   7.816   1.979  11.914 -0.2278 -0.1447 -0.0822
 2848W        W22382   3.810   9.321  14.249  0.0025 -0.0221  0.0985
 2849W        W22383  11.505   0.781  13.430  0.1957 -0.1546  0.2487
 2850W        W22384   3.877  16.366   0.298 -0.0108 -0.0719 -0.0630
 2851W        W22385   5.305  13.855  12.938 -0.1518  0.0529  0.0170
 2852W        W22386  16.172  17.271   0.521 -0.0878 -0.0491 -0.1834
 2853W        W22387   7.447   9.894  10.780  0.2246  0.2841 -0.1647
 2854W        W22388   3.824  18.393  14.355  0.2112  0.0045 -0.0263
 2855W        W22389   2.244   9.959  13.594  0.3915 -0.1428  0.0457
 2856W        W22390   5.993   3.154   3.726  0.0269  0.0512 -0.0750
 2857W        W22391   1.005  15.064  13.667 -0.3925 -0.1189 -0.0451
 2858W        W22392  11.533   3.613   4.167 -0.4377  0.0833 -0.1828
 2859W        W22393   3.991   5.000  13.788  0.0179 -0.1000 -0.0032
 2860W        W22394   1.602  11.205  13.251  0.0468  0.0520  0.0621
 2861W        W22395   8.113   7.532  12.924  0.1404 -0.2108  0.0751
 2862W        W22396  16.372  17.425   1.401  0.1601 -0.1362  0.0371
 2863W        W22397  11.179  10.393  13.038 -0.1266 -0.2094  0.1371
 2864W        W22398   3.014   8.454  14.315 -0.0169  0.0130  0.0616
 2865W        W22399   6.968  13.596  12.521 -0.0191 -0.0724  0.2158
 2866W        W22400   2.824  10.843  15.160 -0.2353 -0.0034  0.1064
 2867W        W22401   6.082  14.647   2.804 -0.1438  0.2163 -0.1779
 2868W        W22402  15.106  14.136   1.049  0.0413 -0.3474 -0.0182
 2869W        W22403  18.108   8.297  14.329  0.0445 -0.2154  0.0935
 2870W        W22404  16.265  10.415  14.489  0.2194  0.1378  0.1068
 2871W        W22405   8.105   1.392   2.848  0.1030  0.2542  0.1009
 2872W        W22406  12.898  15.975  13.016 -0.5177 -0.0778  0.1017
 2873W        W22407   1.031  12.805  14.119 -0.0620 -0.0444 -0.0824
 2874W        W22408   9.039   8.161  15.333  0.0727 -0.0357 -0.2431
 2875W        W22409  15.701   1.185  14.629 -0.1238  0.0336  0.3538
 2876W        W22410   9.503  17.386  15.654 -0.0466 -0.1045 -0.0170
 2877W        W22411   8.660  18.137   4.888  0.1627  0.2308 -0.0632
 2878W        W22412  15.309   1.148   2.976 -0.4108 -0.1763 -0.1190
 2879W        W22413   6.595  12.346  12.862  0.1135  0.0398  0.0021
 2880W        W22414   7.360   5.652  14.165  0.0519  0.2546 -0.1768
 2881W        W22415  17.608   9.409  14.084 -0.0588  0.2437  0.0403
 2882W        W22416  11.881   7.994  11.933 -0.1255  0.0398 -0.0950
 2883W        W22417   5.575  12.631   0.005 -0.1201 -0.1149 -0.2052
 2884W        W22418   4.896  15.329  13.512 -0.1612  0.0510  0.1464
 2885W        W22419  12.448  16.623   4.187 -0.0829  0.0256  0.2026
 2886W        W22420  10.750   5.264   1.368 -0.1230 -0.1163  0.0714
 2887W        W22421   4.229   3.834   2.346 -0.0647 -0.3476  0.1423
 2888W        W22422   6.128  13.725   4.193 -0.0644  0.0811  0.0405
 2889W        W22423   6.154  11.611  12.645  0.1699 -0.0585 -0.2096
 2890W        W22424  13.278  11.409   1.394 -0.1966  0.0462  0.2522
 2891W        W22425   2.717   5.483   0.453  0.0627  0.2525  0.0582
 2892W        W22426   6.141   1.295  15.416 -0.2051  0.2044  0.0363
 2893W        W22427  15.622   1.918  15.223 -0.0674  0.3490 -0.1097
 2894W        W22428   0.922   2.040  14.739 -0.2753  0.0374  0.1931
 2895W        W22429   3.489   0.152  13.518 -0.4994  0.0559  0.2946
 2896W        W22430   5.605   2.790  13.148  0.1459 -0.1546 -0.0301
 2897W        W22431   5.468  15.844   1.318 -0.0597 -0.1596 -0.1383
 2898W        W22432   0.513   0.937  11.139 -0.0948 -0.1693  0.2917
 2899W        W22433   9.981  15.234   1.924  0.2004 -0.0444 -0.0233
 2900W        W22434  13.780   3.694   1.161  0.0352 -0.0154 -0.1793
 2901W        W22435   1.626  11.300   4.191  0.2582  0.0225  0.2977
 2902W        W22436  14.531  15.572   4.264 -0.4148 -0.0220 -0.0481
 2903W        W22437  11.810   5.822  15.704 -0.1414  0.0823 -0.2294
 2904W        W22438  10.510   3.671   4.626  0.2574 -0.0075  0.0210
 2905W        W22439  12.369  14.627   3.583  0.1796 -0.0844 -0.0397
 2906W        W22440  16.891  17.100   3.337  0.0650 -0.0058  0.2855
 2907W        W22441  15.940  14.883   2.361 -0.0038  0.1485 -0.0832
 2908W        W22442  11.921  13.155   4.305  0.2121 -0.0717 -0.0631
 2909W        W22443   6.661  16.444  15.401  0.2076 -0.0828  0.0516
 2910W        W22444  16.166  16.567   0.974 -0.0578 -0.0872  0.0153
 2911W        W22445  11.969   0.732   0.791  0.3101  0.0967 -0.0361
 2912W        W22446   9.413   9.920   2.106 -0.1966  0.0602  0.0862
 2913W        W22447   4.223   9.040  10.723  0.2353 -0.1971 -0.1709
 2914W        W22448  12.575   7.370  12.964  0.1653  0.1253 -0.0074
 2915W        W22449  11.501  13.872  13.306  0.0530 -0.0620 -0.3525
 2916W        W22450   6.313   0.018   3.970  0.0046  0.0239 -0.1333
 2917W        W22451   8.859   1.088  15.100 -0.0652  0.1563  0.2356
 2918W        W22452  17.496  12.588  12.120 -0.0528  0.0615 -0.3263
 2919W        W22453   7.936  16.332   4.756  0.1228  0.2024 -0.1162
 2920W        W22454  10.490   6.622   1.997  0.2587  0.0529  0.2393
 2921W        W22455   1.498  12.607  14.314  0.2961  0.0035  0.2998
 2922W        W22456   2.823  11.753   2.254  0.0215 -0.0172  0.0581
 2923W        W22457  13.157  10.111  12.075 -0.0392 -0.0689 -0.1672
 2924W        W22458  10.018  14.638  11.805 -0.3141  0.0234 -0.4235
 2925W        W22459   0.977   5.819  11.144 -0.2143  0.0807 -0.2003
 2926W        W22460   9.139  13.994  14.856 -0.1661 -0.3399  0.1724
 2927W        W22461  16.037  10.382   4.108 -0.1860 -0.1656  0.0466
 2928W        W22462  15.723  11.887   0.344  0.0461  0.2377 -0.0360
 2929W        W22463   4.443   6.570  13.643  0.1057  0.1318 -0.2335
 2930W        W22464   3.381  15.419  11.393  0.2495  0.2020 -0.0969
 2931W        W22465   7.211   4.225  14.338  0.0304  0.2612  0.0364
 2932W        W22466   1.800   6.105  10.258  0.0750 -0.0657 -0.1993
 2933W        W22467   5.284   5.911  13.663  0.1366  0.2514 -0.0266
 2934W        W22468  15.552  13.670  12.920 -0.2569  0.0196  0.0495
 2935W        W22469   9.989  16.386   1.550  0.0382 -0.0959 -0.2392
 2936W        W22470  10.795  15.295   1.433 -0.0706 -0.0670  0.1807
 2937W        W22471   8.468   5.996  15.208 -0.1749  0.1741 -0.1227
 2938W        W22472   6.220   7.106   5.608 -0.1138  0.0522  0.1834
 2939W        W22473  14.814  16.444  15.695 -0.1860  0.1640  0.0174
 2940W        W22474  14.929   2.860   2.820  0.1869 -0.1360  0.1424
 2941W        W22475   7.011  12.953   0.732 -0.0789 -0.1449  0.1646
 2942W        W22476   7.201   3.841   0.058 -0.1990  0.2076  0.2578
 2943W        W22477   5.814   2.670   6.213 -0.1935 -0.0804 -0.3129
 2944W        W22478  10.938  15.530   0.944 -0.0585 -0.0005 -0.1138
 2945W        W22479  16.547   1.582  11.564  0.3035  0.0617 -0.2310
 2946W        W22480   5.807  17.054  14.431 -0.2226 -0.0649 -0.0679
 2947W        W22481  15.807   0.603   2.933 -0.0831 -0.0940  0.0489
 2948W        W22482   2.915  12.498   2.404  0.0842 -0.1259 -0.1871
 2949W        W22483   3.689  14.124   1.297 -0.2898 -0.0852 -0.0322
 2950W        W22484  15.493   9.718   2.277 -0.1929 -0.1545  0.2141
 2951W        W22485   4.263   8.320   0.303  0.0665 -0.0465 -0.1045
 2952W        W22486  17.394   0.639   0.194  0.0858 -0.2544  0.1555
 2953W        W22487   1.329  15.759  12.078  0.0054  0.0707  0.1566
 2954W        W22488  15.845   5.958  13.241 -0.0486 -0.2176 -0.4437
 2955W        W22489   7.896   0.439  14.573  0.1660  0.1873 -0.0430
 2956W        W22490   5.900   4.763  15.356  0.1573 -0.2242  0.1646
 2957W        W22491  13.848  11.699   0.159  0.0583 -0.2842  0.0522
 2958W        W22492   6.702  17.644   2.233  0.0184  0.3571  0.0834
 2959W        W22493   2.211   6.995   1.286  0.0212  0.2050  0.1642
 2960W        W22494   0.199   1.911   1.425  0.0811  0.6433  0.0027
 2961W        W22495   2.480  12.706   1.725 -0.3347  0.1457 -0.0579
 2962W        W22496   6.571   1.357  12.955  0.0475  0.2277  0.1188
 2963W        W22497   9.099   0.166  14.783  0.3917 -0.0778 -0.0567
 2964W        W22498   4.802   9.653   1.144  0.2760  0.1598  0.1958
 2965W        W22499   0.490  12.359  13.465 -0.1053 -0.1842  0.0534
 2966W        W22500   9.315   5.846  12.153  0.0204 -0.0171  0.1442
 2967W        W22501   1.041  15.339   1.523 -0.1006  0.1226 -0.1360
 2968W        W22502   3.858  17.816   1.246  0.2316  0.0372  0.0344
 2969W        W22503   4.802   6.073  14.564 -0.1213  0.0483  0.1686
 2970W        W22504  12.329  11.260  11.770 -0.1489 -0.1085  0.0847
 2971W        W22505  18.261   1.308  15.201 -0.0439 -0.0931 -0.0292
 2972W        W22506   0.353  12.502  11.603  0.0511  0.3621  0.2385
 2973W        W22507   6.506   1.809   3.847 -0.0500 -0.0873 -0.5222
 2974W        W22508  17.389   4.768   3.346  0.1015  0.0848 -0.2026
 2975W        W22509   3.185   8.387  13.364  0.2906  0.0284 -0.3409
 2976W        W22510   5.487  14.496   0.488  0.1737  0.1754  0.0029
 2977W        W22511  16.913  10.926  13.929 -0.1689  0.2012 -0.0949
 2978W        W22512   5.947  15.117   3.696 -0.1295  0.0555  0.0536
 2979W        W22513   4.743  13.780   3.899  0.2157 -0.0220  0.0088
 2980W        W22514  10.110  16.759  13.641  0.1486 -0.0202 -0.2363
 2981W        W22515   5.372   7.997   1.950  0.3881  0.2338 -0.2125
 2982W        W22516  10.001   1.931  10.587  0.0300  0.2077 -0.0579
 2983W        W22517  15.403  17.346  14.293 -0.0276 -0.2234 -0.3161
 2984W        W22518  11.441   4.977   1.893 -0.0592  0.0598 -0.3089
 2985W        W22519   8.039   4.765   1.583  0.0045  0.3087  0.0728
 2986W        W22520   3.940   6.747   1.144 -0.2040 -0.0785 -0.1011
 2987W        W22521   9.250   5.684   1.976 -0.2290 -0.0555  0.3556
 2988W        W22522   6.600  16.194   0.708  0.0664  0.3098 -0.0675
 2989W        W22523  12.727  11.594  13.241  0.0172  0.1834  0.2091
 2990W        W22524   0.100  14.091   0.531 -0.2548 -0.1808  0.0348
 2991W        W22525  11.809   4.072  15.796 -0.0777 -0.0760  0.0117
 2992W        W22526   7.547  14.438   0.855  0.0579 -0.2609  0.2315
 2993W        W22527   8.226   8.394   4.375 -0.0821 -0.1562 -0.1411
 2994W        W22528  16.545  10.218   4.118 -0.0941 -0.2592  0.0949
 2995W        W22529   2.164   7.488   1.527  0.1991 -0.0720 -0.0141
 2996W        W22530  13.208  17.072   4.185  0.1028 -0.0210  0.0600
 2997W        W22531  13.423  10.882   2.595 -0.1003 -0.0096  0.1087
 2998W        W22532   5.989   6.670   1.651  0.0202  0.1644 -0.1851
 2999W        W22533   0.218   8.031   1.524 -0.1882  0.0701  0.3387
 3000W        W22534  10.095   7.439  12.838  0.2578 -0.4042 -0.2431
 3001W        W22535  17.923  11.660   3.506 -0.2685 -0.2872 -0.2381
 3002W        W22536   1.944   6.298   1.120 -0.3980 -0.0946 -0.2828
 3003W        W22537   3.071   2.057   4.232  0.0740 -0.0915  0.1390
 3004W        W22538  15.401   7.598   4.684  0.0203  0.1811 -0.0942
 3005W        W22539   1.570  15.082  11.805  0.1672  0.2492  0.0997
 3006W        W22540  17.865   1.894  11.602  0.0946  0.0868  0.1166
 3007W        W22541   5.027   4.631   3.938  0.1603  0.1274 -0.1872
 3008W        W22542   6.693   4.592   4.706 -0.1172  0.2310 -0.2666
 3009W        W22543  15.543  18.315   3.297  0.0839  0.0880 -0.0063
 3010W        W22544   9.185  17.075   4.806  0.2808 -0.2365 -0.0638
 3011W        W22545   6.325   2.462   1.810  0.2579  0.0252 -0.1854
 3012W        W22546   9.000   9.017  11.555  0.1199  0.1422  0.2492
 3013W        W22547  14.708  10.213   0.614  0.3908 -0.0310 -0.1897
 3014W        W22548  17.198   6.452  12.798  0.4242 -0.1232 -0.2590
 3015W        W22549  16.821  18.356   3.140  0.0109 -0.0711 -0.0612
 3016W        W22550  12.697   6.087  15.345  0.0129  0.1352 -0.1658
 3017W        W22551   7.518  17.275  15.242 -0.1289 -0.0792  0.2012
 3018W        W22552  17.025  17.155   4.369  0.2297 -0.0464 -0.2617
 3019W        W22553   6.995   5.737   5.473  0.3463  0.0937  0.1151
 3020W        W22554  10.541   8.437   1.728 -0.1765 -0.0453 -0.1517
 3021W        W22555  13.717   5.545  14.299 -0.0712 -0.1827  0.1861
 3022W        W22556   2.864  10.632  14.221 -0.0784 -0.1909  0.0759
 3023W        W22557  16.909   5.534  14.039  0.0366 -0.0526 -0.4356
 3024W        W22558  10.236   8.724  12.531 -0.1261 -0.0905 -0.0765
 3025W        W22559  13.216  10.529   1.328 -0.1887 -0.1862 -0.2773
 3026W        W22560   8.240   3.112  12.758  0.0522  0.1798 -0.0381
 3027W        W22561  14.057  11.425  13.006 -0.1042  0.2160 -0.1860
 3028W        W22562   7.201  13.994  15.022  0.3613 -0.0824  0.2496
 3029W        W22563  15.234   9.714  11.060 -0.0048  0.1118 -0.1175
 3030W        W22564   0.274   2.588   2.597 -0.0405 -0.2176  0.1350
 3031W        W22565   1.396  14.251  12.715  0.0220  0.0293 -0.2783
 3032W        W22566   4.979   9.927  13.485 -0.1254 -0.1968 -0.0062
 3033W        W22567   3.186  12.178   2.153  0.1566  0.0942  0.5171
 3034W        W22568   0.243   0.882  13.249 -0.1189 -0.1648  0.1396
 3035W        W22569   3.580   2.119   4.260  0.1189 -0.3464  0.0419
 3036W        W22570   9.925  18.126  11.567 -0.0994  0.1801  0.0210
 3037W        W22571  10.667   9.600  12.621 -0.1749  0.2923  0.2288
 3038W        W22572   8.456   8.019   1.518 -0.1172  0.0667 -0.3440
 3039W        W22573  17.052  10.410  14.966  0.0333  0.2107  0.1501
 3040W        W22574   8.459  14.884   0.246  0.0081 -0.2065 -0.0879
 3041W        W22575   9.830   3.078   5.059  0.3035 -0.0657 -0.0783
 3042W        W22576  11.222   4.357   2.518 -0.0858  0.1410  0.1494
 3043W        W22577   9.536   9.060   1.653  0.0374  0.4869  0.1761
 3044W        W22578   3.132  17.731  12.564  0.2923  0.0803  0.0656
 3045W        W22579   2.199  15.543   0.082 -0.0889  0.0694 -0.2191
 3046W        W22580  16.648  15.722  11.901  0.0509 -0.0116  0.0073
 3047W        W22581   2.544  10.734   1.742  0.2867  0.0098 -0.3181
 3048W        W22582   2.300  18.015   4.764 -0.0233 -0.0652 -0.1937
 3049W        W22583  17.097  14.078   1.949 -0.0056 -0.2832  0.2136
 3050W        W22584   1.421  15.802  12.934 -0.2475 -0.0745 -0.3632
 3051W        W22585  18.301   1.472   1.579  0.2672  0.1046  0.0818
 3052W        W22586   9.486   7.854   4.494  0.2510  0.1021 -0.0290
 3053W        W22587   1.868  17.010  12.679  0.0739 -0.3248  0.0222
 3054W        W22588  12.265   8.731   1.654  0.1459  0.2084  0.1783
 3055W        W22589   4.195  16.388  14.124 -0.1352 -0.0125  0.0171
 3056W        W22590   2.208   7.325  15.043 -0.4007 -0.1195 -0.3024
 3057W        W22591  10.587  10.558   1.802  0.0193 -0.0310 -0.0771
 3058W        W22592   9.161  12.328   3.716  0.1927 -0.0597  0.1496
 3059W        W22593  10.025   9.306   1.572  0.2265  0.2213 -0.0161
 3060W        W22594   9.447  17.622  12.244  0.0325 -0.0601  0.0960
 3061W        W22595  13.767   8.925  13.262 -0.0608  0.0207 -0.2772
 3062W        W22596  15.887  11.599  13.333  0.0674  0.1463  0.0011
 3063W        W22597   7.499  18.176  14.203  0.0361 -0.0134 -0.0878
 3064W        W22598  15.864   3.291  14.013 -0.1236  0.0528 -0.3021
 3065W        W22599   1.181   4.455  13.056 -0.0224  0.0178 -0.2150
 3066W        W22600  15.480  15.596  12.535 -0.0910  0.0720  0.0604
 3067W        W22601   8.499  16.060   1.791  0.0704  0.0915 -0.0254
 3068W        W22602  17.523   1.600   0.766  0.3108 -0.0244 -0.0805
 3069W        W22603   4.224  14.301   4.699 -0.0540  0.1956 -0.1439
 3070W        W22604   8.053  17.675   2.341  0.3064 -0.2363  0.3560
 3071W        W22605   6.776  15.412  12.628  0.3361 -0.2069  0.0855
 3072W        W22606  15.962   0.469  15.457 -0.0464  0.1081  0.0855
 3073W        W22607   1.580   2.524   2.502  0.3363 -0.1001  0.2699
 3074W        W22608  11.431  12.401   1.899  0.0118  0.1437  0.0934
 3075W        W22609   2.955   3.357  13.402  0.0367 -0.3035  0.1209
 3076W        W22610   6.576  16.529  14.237 -0.0631  0.1310 -0.0751
 3077W        W22611  13.272   0.197  15.581  0.0313 -0.0655  0.3685
 3078W        W22612   8.826  16.019   2.251 -0.1036 -0.1720  0.2020
 3079W        W22613  16.269  16.507  11.812  0.0494  0.1287  0.3495
 3080W        W22614   7.858   8.734  12.989 -0.2307 -0.3041  0.3190
 3081W        W22615  10.672   2.482   3.039 -0.1561 -0.0164  0.0811
 3082W        W22616   0.819   7.542   2.017 -0.1271  0.2629 -0.0472
 3083W        W22617   7.281  11.379  12.108 -0.0704 -0.0188  0.1719
 3084W        W22618   2.183  17.860  15.651  0.3507 -0.1377 -0.3754
 3085W        W22619   2.496   4.267  13.030  0.0939 -0.0174  0.0686
 3086W        W22620   6.609  13.484   2.726  0.0061 -0.0607 -0.2102
 3087W        W22621  15.458   7.146   0.736 -0.2384 -0.2865 -0.0345
 3088W        W22622   8.352   4.298  14.199 -0.2595 -0.0707 -0.1251
 3089W        W22623  13.102  12.265   4.498 -0.2150 -0.0971 -0.1001
 3090W        W22624   1.260  14.178   2.530 -0.2026 -0.2762 -0.2504
 3091W        W22625  18.079   2.173  14.127  0.0407  0.1249  0.0114
 3092W        W22626  13.024  16.794  12.176  0.0056 -0.2500 -0.1032
 3093W        W22627  14.449  17.191  15.230  0.2725 -0.0649  0.2199
 3094W        W22628   1.098   8.148   2.651 -0.2518  0.0530 -0.0361
 3095W        W22629  14.047  11.638   4.189  0.0695 -0.3651 -0.0872
 3096W        W22630  13.637   3.230  15.256 -0.0481  0.0883 -0.1143
 3097W        W22631  16.655  15.089  14.883 -0.0664 -0.1173  0.0482
 3098W        W22632   6.569  16.688  12.105  0.0704 -0.2069  0.2033
 3099W        W22633  11.160  12.048   1.666  0.0477 -0.2981  0.1018
 3100W        W22634  17.456  15.358   2.137 -0.2961 -0.0089  0.4116
 3101W        W22635   3.021  17.325   4.124 -0.0669  0.3382 -0.1293
 3102W        W22636   0.906  17.544  15.644  0.0661 -0.0213  0.2707
 3103W        W22637  14.408   5.988   0.325 -0.0480  0.2292  0.3370
 3104W        W22638   3.560   8.855  12.086  0.0600 -0.1515  0.3049
 3105W        W22639   0.600  14.675  12.824  0.2616 -0.2356  0.2295
 3106W        W22640   2.568   2.104  11.775  0.0025  0.1435 -0.0224
 3107W        W22641  12.681  18.389  11.485 -0.0206 -0.1501 -0.0856
 3108W        W22642  10.733  16.173   1.894  0.2187 -0.1225 -0.2160
 3109W        W22643   1.106  13.453   3.370  0.0698 -0.2690 -0.0791
 3110W        W22644   3.867  10.975   0.652  0.0749 -0.0178  0.1094
 3111W        W22645   0.945   0.815   0.617  0.1781  0.1044  0.0241
 3112W        W22646   6.520   2.967  11.618 -0.4230  0.1919 -0.0033
 3113W        W22647   7.434  11.584   1.684  0.2949  0.5151 -0.1647
 3114W        W22648  11.848   3.780   5.085 -0.4083  0.0676 -0.2644
 3115W        W22649  11.798  16.926  10.922  0.1100  0.0471 -0.5019
 3116W        W22650   8.583  14.293   1.204  0.1634 -0.1718 -0.1048
 3117W        W22651  14.301   8.382   3.059 -0.1225  0.1545  0.0987
 3118W        W22652  14.492  12.190   0.528  0.0412  0.4803  0.0626
 3119W        W22653  11.104  17.607  11.957 -0.0658 -0.2500  0.3275
 3120W        W22654  16.408  17.891   4.419 -0.2271 -0.0531 -0.1115
 3121W        W22655   2.901  13.292  15.048  0.1290 -0.2611 -0.0289
 3122W        W22656   9.167  15.283   2.968 -0.1166 -0.2766 -0.3656
 3123W        W22657  15.143   4.218  14.626  0.0057 -0.1787  0.0169
 3124W        W22658  12.775   7.145   3.510  0.0749  0.3083 -0.1779
 3125W        W22659  15.764  13.221  14.689  0.0458 -0.3444 -0.2723
 3126W        W22660   6.851   5.532   1.059 -0.2849 -0.0784 -0.0998
 3127W        W22661  11.275  17.966   1.296 -0.1537 -0.0494  0.0960
 3128W        W22662  14.616   6.537   0.257  0.1223 -0.0816 -0.4495
 3129W        W22663   5.294  13.420   1.258  0.1177 -0.0431 -0.0565
 3130W        W22664   3.110   5.857   2.553  0.1122  0.1548  0.3082
 3131W        W22665   4.813   9.469   4.028  0.0028  0.0585 -0.1301
 3132W        W22666  15.079   8.170  12.705  0.1172 -0.2071  0.2251
 3133W        W22667   4.955  18.018  13.131  0.0156  0.1117 -0.0375
 3134W        W22668   0.746   6.625  15.079  0.1854 -0.0170  0.1995
 3135W        W22669  14.636   0.194   3.107 -0.3382  0.0319 -0.0569
 3136W        W22670   7.336  15.940   2.090  0.1061 -0.1121 -0.1135
 3137W        W22671   3.758  17.758   2.383 -0.0559  0.0477 -0.2443
 3138W        W22672  15.439   6.430   4.524 -0.1899  0.2249 -0.4251
 3139W        W22673   3.918   8.184   1.259 -0.1672 -0.2605  0.0129
 3140W        W22674   9.581   1.220   3.644 -0.0123 -0.3626  0.0716
 3141W        W22675   6.254   9.342   4.061  0.3009  0.0514 -0.0810
 3142W        W22676  14.636   8.643  14.448 -0.1118  0.2378  0.1449
 3143W        W22677  15.183  13.512  14.118 -0.1295 -0.1215  0.0476
 3144W        W22678   7.567  13.590  14.939 -0.0149  0.1449 -0.1577
 3145W        W22679   3.140  14.324   3.816 -0.0827  0.0681  0.0410
 3146W        W22680   9.105  14.751   2.647 -0.1338 -0.2318 -0.1253
 3147W        W22681   1.539  13.453   4.253  0.1736  0.0453 -0.3082
 3148W        W22682   6.900  18.078  12.629  0.0052  0.2291  0.0169
 3149W        W22683  14.394  11.010   4.270 -0.1519  0.0714 -0.1263
 3150W        W22684  13.648  18.251   1.460  0.3758  0.2333  0.1064
 3151W        W22685   6.302   6.117  11.215 -0.0048 -0.1276 -0.1089
 3152W        W22686   3.313  10.715  11.330 -0.2120 -0.2014  0.0567
 3153W        W22687  16.715  10.088  13.850 -0.3088  0.1282  0.0697
 3154W        W22688   4.568   3.377  11.730  0.0755 -0.0156  0.0479
 3155W        W22689   6.188   2.991   4.199 -0.0219 -0.2712 -0.2056
 3156W        W22690  10.961   6.304   3.899  0.0847 -0.1133  0.1980
 3157W        W22691   0.422   5.040  14.757  0.0623  0.0175 -0.1506
 3158W        W22692   7.705   1.329  15.634 -0.1103  0.2563  0.0337
 3159W        W22693  10.277   3.661   1.904  0.0088 -0.0556  0.2054
 3160W        W22694   4.773   2.149   3.963  0.0522  0.0046  0.2439
 3161W        W22695  13.116   8.198   4.025  0.0237  0.0312  0.1491
 3162W        W22696  15.706   7.102  11.764  0.1319 -0.0825 -0.0722
 3163W        W22697   1.904   2.651   3.162  0.1083  0.1610 -0.2693
 3164W        W22698   7.236   6.353  12.111  0.1521  0.0144 -0.4226
 3165W        W22699   1.280  12.434  12.099  0.0284 -0.2058 -0.4495
 3166W        W22700   5.704  12.364   2.979  0.0746 -0.0573 -0.0655
 3167W        W22701   9.187   9.517   1.794  0.3178 -0.2540  0.3112
 3168W        W22702   9.256  13.974   1.724  0.3582 -0.0687  0.0290
 3169W        W22703  13.641   2.456  15.704 -0.0555  0.4297  0.0560
 3170W        W22704   3.609  15.946  13.567  0.0082 -0.1116  0.0354
 3171W        W22705  18.034   8.726  13.463  0.0507 -0.4127  0.0524
 3172W        W22706   5.551  11.559  12.092  0.2728 -0.0108 -0.0557
 3173W        W22707  10.497   9.239  12.197  0.0890 -0.0371 -0.1837
 3174W        W22708   9.494   1.745   3.237  0.3076  0.2283  0.1290
 3175W        W22709   1.540   7.367  12.121  0.0514 -0.0745  0.1545
 3176W        W22710  16.664  13.966   0.139 -0.1302  0.2794 -0.0750
 3177W        W22711  14.066  11.900   3.489 -0.2541 -0.0763  0.1137
 3178W        W22712  15.122  13.723  11.132  0.2626 -0.0877 -0.3496
 3179W        W22713  17.082  10.159  13.337 -0.0911 -0.1956 -0.3389
 3180W        W22714   2.917   6.138   0.390 -0.0643 -0.1521  0.0042
 3181W        W22715  11.980  16.051   4.881  0.1655  0.0374 -0.0902
 3182W        W22716   4.770   4.478  12.742 -0.1459  0.1363  0.1055
 3183W        W22717  14.094  14.409   0.975  0.2193 -0.0138  0.2233
 3184W        W22718   8.725   7.763  15.495  0.0705 -0.0216  0.1887
 3185W        W22719   0.547   1.768  12.743  0.0832  0.0568 -0.2374
 3186W        W22720  12.930   0.803   2.053  0.1732  0.1043 -0.1005
 3187W        W22721   7.955  12.316   1.162  0.1720 -0.0393  0.0726
 3188W        W22722  14.755   9.796   4.354 -0.4436 -0.0354 -0.1074
 3189W        W22723  16.112   5.725   2.464 -0.2555  0.3288 -0.0503
 3190W        W22724   9.630   5.408   2.194  0.1919  0.0015 -0.0884
 3191W        W22725   7.886   5.183  12.397 -0.2994 -0.1022 -0.1839
 3192W        W22726  15.866  13.935  15.788  0.1267  0.2874 -0.2249
 3193W        W22727  17.608   7.176   2.811 -0.2148 -0.1195 -0.0314
 3194W        W22728   0.910   2.892   4.291 -0.0507 -0.1267 -0.2773
 3195W        W22729   1.577  11.853  14.127 -0.1119  0.0011 -0.0914
 3196W        W22730   1.062  17.096   1.626  0.0052  0.0817  0.1364
 3197W        W22731   6.680   4.770  13.635 -0.1035 -0.0689  0.0035
 3198W        W22732   7.855   6.465   0.714 -0.0034 -0.2649  0.0012
 3199W        W22733  16.857   0.104   0.598 -0.0518 -0.0359  0.1847
 3200W        W22734   7.900   3.292   4.379 -0.0325 -0.0034 -0.0542
 3201W        W22735  10.585  12.290   1.791  0.2869 -0.0180  0.0046
 3202W        W22736   3.180   0.928  13.740  0.2278 -0.0344  0.2252
 3203W        W22737  13.683   9.637  13.603  0.2870  0.1189 -0.1885
 3204W        W22738  11.094   8.315   4.124 -0.0471  0.0710 -0.1455
 3205W        W22739  14.503  12.112   3.278 -0.0559 -0.1603  0.0458
 3206W        W22740   1.794   0.137   0.778  0.0522  0.2900 -0.2153
 3207W        W22741   6.387  10.324  12.591  0.1954 -0.0528 -0.3402
 3208W        W22742   3.059  17.034  13.673  0.0644 -0.2050 -0.1647
 3209W        W22743   9.787  10.836   2.649 -0.4089 -0.1974 -0.1994
 3210W        W22744  13.988   9.137  13.786 -0.0596  0.0494  0.0641
 3211W        W22745  15.287   4.289   3.265 -0.1430  0.3584  0.2872
 3212W        W22746   3.978  16.605  12.639 -0.1459  0.0178 -0.0042
 3213W        W22747   8.802   3.981  13.620 -0.0192  0.1603  0.1001
 3214W        W22748   4.523  16.408  15.397  0.0586  0.2090  0.0131
 3215W        W22749   3.275  16.549  13.923 -0.3316  0.0444  0.0637
 3216W        W22750   7.649  17.648  15.580 -0.0944 -0.0015 -0.1181
 3217W        W22751  16.825   9.102  13.865 -0.2823 -0.1190 -0.2723
 3218W        W22752   3.011   3.592  15.255 -0.3418  0.1208 -0.1492
 3219W        W22753  14.156   0.178  12.547  0.1539 -0.0598  0.1807
 3220W        W22754  12.274   0.187  12.832 -0.0078 -0.0701 -0.2570
 3221W        W22755   1.206   0.537   4.111  0.1357  0.2308  0.1600
 3222W        W22756   5.097   9.238   2.637 -0.1977 -0.2392 -0.1557
 3223W        W22757   0.370   2.121  11.420  0.2738  0.1796 -0.1969
 3224W        W22758   4.537  11.773   2.605 -0.2730 -0.2770 -0.0824
 3225W        W22759   4.620  18.171  13.520 -0.1351  0.5713 -0.0837
 3226W        W22760  10.671  10.972   3.065 -0.1882  0.0359 -0.1613
 3227W        W22761  14.695  16.579  11.915  0.1186  0.1230 -0.2125
 3228W        W22762   1.222   2.783  14.011 -0.0130  0.0111 -0.0954
 3229W        W22763   6.885   7.302  14.811 -0.6159  0.1377 -0.3245
 3230W        W22764   5.867   6.853   0.182  0.0267 -0.0555 -0.0235
 3231W        W22765   8.203  13.493   2.272 -0.0414 -0.0179  0.2747
 3232W        W22766   4.188  14.366  12.481  0.3473 -0.1415  0.0641
 3233W        W22767   5.610  11.022   2.812 -0.0108  0.0987 -0.0551
 3234W        W22768   4.056  16.468  15.592 -0.2511  0.2959  0.2067
 3235W        W22769  11.895   8.251   2.870 -0.2531 -0.2988 -0.1496
 3236W        W22770  15.008   3.812   2.344 -0.2205 -0.0747  0.0800
 3237W        W22771  13.456   2.720   0.256 -0.1614 -0.3424 -0.0279
 3238W        W22772   3.511  13.029   0.472 -0.0363 -0.2078  0.2967
 3239W        W22773  10.347   7.677  15.128  0.0984  0.0496  0.2319
 3240W        W22774  13.777  11.241   3.093 -0.2171  0.1613  0.0098
 3241W        W22775  11.013  14.139   4.232  0.0398  0.0974  0.0790
 3242W        W22776   9.280  12.310   1.009 -0.1375  0.0695  0.1820
 3243W        W22777  11.049   3.658   2.302  0.0527  0.0402  0.2967
 3244W        W22778  18.086  18.281  15.399 -0.0294  0.0459  0.1312
 3245W        W22779  10.006  13.157  15.425 -0.2217  0.0059 -0.0832
 3246W        W22780  16.721   9.577   2.287  0.1945 -0.2202 -0.0959
 3247W        W22781   2.823   5.398  11.063  0.3008  0.3296 -0.2158
 3248W        W22782   9.294  15.025   0.213 -0.2273  0.0505 -0.1122
 3249W        W22783   1.330   3.001  14.462  0.1810 -0.0502  0.1320
 3250W        W22784   5.974   6.953  15.195  0.0663  0.1401  0.2669
 3251W        W22785   0.996  13.858  13.037  0.4660 -0.1489 -0.0393
 3252W        W22786  10.125   7.376  11.909  0.1278  0.0537  0.0170
 3253W        W22787  12.856  18.145   4.546  0.1497  0.0226 -0.1788
 3254W        W22788   0.714  15.016   4.334 -0.5203  0.1150  0.1508
 3255W        W22789   8.692   1.838  12.983 -0.0342 -0.0214  0.1212
 3256W        W22790  10.823   4.657   1.246  0.3105  0.0127 -0.0411
 3257W        W22791  10.337   3.286   2.264 -0.1570  0.0214  0.0583
 3258W        W22792   7.617   4.753  13.648  0.0488  0.2353  0.0528
 3259W        W22793  16.087  18.156  13.700  0.0582 -0.0353 -0.0184
 3260W        W22794   0.958   6.449   0.919 -0.0180 -0.0531  0.0954
 3261W        W22795   5.396   8.591  11.514  0.0585  0.1634  0.0417
 3262W        W22796  11.338  15.261   5.133  0.1039  0.0769  0.1445
 3263W        W22797   8.573  16.865   2.853  0.0707  0.0651 -0.0611
 3264W        W22798  15.152   6.894  10.415 -0.0098  0.2474 -0.0907
 3265W        W22799   2.051  17.587   2.597  0.2181 -0.0671  0.0974
 3266W        W22800   0.839   1.134   1.479 -0.3102  0.0607  0.1425
 3267W        W22801  15.289   4.183  13.203  0.1691  0.1315  0.1044
 3268W        W22802   7.858  11.885  13.003 -0.3344 -0.0015  0.1372
 3269W        W22803   6.121   9.619  15.032 -0.2662  0.1635 -0.0476
 3270W        W22804   1.904   0.890   1.023 -0.0423 -0.0051  0.2350
 3271W        W22805   4.854   5.563  14.726 -0.0356 -0.0052 -0.2042
 3272W        W22806   4.467   5.009  12.897  0.1766 -0.0964  0.4080
 3273W        W22807  11.628  12.181  11.084  0.1687 -0.1297  0.0949
 3274W        W22808   1.318   1.781  14.447  0.0123  0.1817  0.0276
 3275W        W22809  15.332   2.132  13.831 -0.0838 -0.4891 -0.2248
 3276W        W22810   4.186   0.743   1.536 -0.0691 -0.1047  0.1106
 3277W        W22811  13.043   3.820  13.891 -0.1253  0.2642  0.0749
 3278W        W22812  13.132   0.403   3.226 -0.0003  0.0347  0.1218
 3279W        W22813  15.505   2.812  14.516 -0.1024  0.3254  0.0390
 3280W        W22814  14.237   9.105  13.307 -0.1024  0.3056 -0.0890
 3281W        W22815  13.224  13.147   4.069  0.0233 -0.1042 -0.2530
 3282W        W22816  14.937  13.013  14.762 -0.0092 -0.2075 -0.1111
 3283W        W22817  16.467  13.423  11.614 -0.2775  0.0294 -0.0606
 3284W        W22818  12.196  17.201   4.910 -0.0492 -0.0159 -0.2201
 3285W        W22819   8.890   0.849  10.228  0.2899  0.0481 -0.0526
 3286W        W22820  12.599   6.082  13.636  0.0168 -0.4163  0.1869
 3287W        W22821  17.152  14.865  12.362  0.1965  0.1022 -0.2366
 3288W        W22822   3.362   7.830   0.875  0.1233  0.0209  0.1418
 3289W        W22823   5.623   4.915   3.432  0.1120  0.1843 -0.1831
 3290W        W22824  13.083   3.096  11.696  0.2856 -0.4325 -0.1224
 3291W        W22825  13.927   8.887   3.303 -0.1722  0.0436 -0.0945
 3292W        W22826   2.785  10.518  11.608  0.3540  0.2025 -0.2727
 3293W        W22827   5.123   6.262   2.344 -0.2562  0.0059 -0.0135
 3294W        W22828  14.870  11.271   3.567 -0.1707  0.1494  0.1840
 3295W        W22829  12.245  13.996   0.253  0.0315 -0.0874 -0.2197
 3296W        W22830   0.866   5.116  11.952 -0.0243  0.0388  0.2391
 3297W        W22831  13.642   2.594  14.039  0.2815 -0.0114  0.1547
 3298W        W22832  14.546  12.489   0.158 -0.0589 -0.0335  0.1405
 3299W        W22833   9.539  17.150  13.583 -0.1199 -0.0140 -0.1294
 3300W        W22834  11.350  13.435   3.700  0.2060 -0.0337 -0.2956
 3301W        W22835   9.309   6.884  14.866  0.0671  0.0818 -0.1887
 3302W        W22836   6.669   7.819   2.087  0.2294  0.0328 -0.2479
 3303W        W22837   5.652  12.907   1.287 -0.0701  0.1795  0.1096
 3304W        W22838  15.676  12.763   3.643  0.0159  0.0836 -0.3541
 3305W        W22839  11.752   0.738   1.727 -0.0650  0.0391  0.0305
 3306W        W22840   7.549   6.726  12.021  0.1283  0.0220  0.0532
 3307W        W22841  15.188  18.299   2.967  0.2108  0.2565 -0.0737
 3308W        W22842   0.697  11.840   3.800 -0.3874  0.1707  0.1550
 3309W        W22843   3.285   2.006  14.013  0.1174 -0.3261 -0.0965
 3310W        W22844  15.384   7.603   3.082 -0.3043 -0.1970 -0.1158
 3311W        W22845  13.922   8.853  15.387  0.2463 -0.2030 -0.0956
 3312W        W22846  11.869   1.457   2.221 -0.1008 -0.1266  0.3069
 3313W        W22847  18.017  16.460  15.300 -0.2432  0.1902 -0.0023
 3314W        W22848  13.799   3.547   3.869  0.0377 -0.0645 -0.1999
 3315W        W22849   7.495  14.299  15.610 -0.1260  0.0950  0.0594
 3316W        W22850   4.925  10.938   0.956 -0.3019  0.3467 -0.1530
 3317W        W22851  10.973  11.969  12.900 -0.0392 -0.0032  0.4657
 3318W        W22852   9.402   1.363   5.142  0.1934 -0.0390 -0.0978
 3319W        W22853  12.076  11.983  11.239  0.4073 -0.0378 -0.0262
 3320W        W22854   3.083  18.083   0.192 -0.1515 -0.2350 -0.0720
 3321W        W22855  10.207   4.609   2.790 -0.0117  0.3171 -0.0897
 3322W        W22856   9.509  16.534  14.647 -0.1255  0.1090 -0.0526
 3323W        W22857  17.509   0.134  11.628  0.2763 -0.0919  0.0083
 3324W        W22858  17.414  16.002   1.198 -0.4846 -0.1807 -0.0172
 3325W        W22859   1.308  18.021  11.179  0.0306  0.0612 -0.0266
 3326W        W22860   5.112   3.813   3.487 -0.0313 -0.0466  0.2209
 3327W        W22861   8.330   8.364   2.261  0.1364  0.1001  0.2456
 3328W        W22862  16.948  14.019   2.856 -0.0425  0.1127 -0.2081
 3329W        W22863   0.496  10.075   1.933  0.1748 -0.1611  0.0842
 3330W        W22864   9.081  10.671  11.897  0.2141 -0.0745  0.0188
 3331W        W22865   7.951   8.431   4.851  0.1109  0.0532 -0.3209
 3332W        W22866   9.737   7.083   3.369  0.3441 -0.1604 -0.1465
 3333W        W22867   2.545   3.143   2.923 -0.1832  0.0609  0.0375
 3334W        W22868   0.037  16.519  12.057 -0.0140 -0.0289  0.1334
 3335W        W22869  10.963   8.977   2.307  0.0964  0.1126  0.0607
 3336W        W22870   0.709   3.772  13.074 -0.2125  0.2230 -0.2254
 3337W        W22871  12.212  17.710   2.449  0.1267 -0.2770 -0.2077
 3338W        W22872  11.694   1.877   3.770 -0.0769  0.0295 -0.1066
 3339W        W22873  17.216   2.000   1.036  0.1235 -0.1821  0.1756
 3340W        W22874   2.762  15.670   1.936  0.2047 -0.1328  0.1497
 3341W        W22875   3.261  16.617   3.441 -0.0270  0.2759  0.0448
 3342W        W22876  16.043   6.143  11.461 -0.2365 -0.1511  0.0962
 3343W        W22877  11.228  13.797  14.099 -0.1825 -0.3503 -0.1618
 3344W        W22878  17.961  11.675  11.811  0.2504 -0.0053  0.3186
 3345W        W22879   9.410   0.413   4.772  0.1557 -0.0944  0.2329
 3346W        W22880   8.715   3.703   4.222 -0.0475  0.3759  0.1722
 3347W        W22881   3.038   5.736  12.226  0.1238 -0.1895  0.2766
 3348W        W22882  13.028   7.078   0.984  0.1702 -0.0005  0.2983
 3349W        W22883   8.291  12.885   4.838  0.0955  0.0397 -0.2515
 3350W        W22884  12.608   6.199   0.122  0.0331  0.0546  0.1888
 3351W        W22885  15.211  13.468   3.018  0.1109 -0.4972 -0.2135
 3352W        W22886   4.881   1.341  15.564 -0.2607  0.0798  0.1205
 3353W        W22887   6.062  14.877  15.727  0.0246 -0.0997 -0.3010
 3354W        W22888   3.573  11.307   4.275 -0.2522  0.0112 -0.2065
 3355W        W22889  15.780   6.505   3.344 -0.1164  0.2130  0.2138
 3356W        W22890  18.169   9.911   1.123  0.0902  0.0889 -0.3471
 3357W        W22891  17.167   6.142  15.313  0.2075 -0.1564 -0.2818
 3358W        W22892   4.672  13.506   0.616  0.0916 -0.2800  0.1262
 3359W        W22893   4.289  12.292  10.142 -0.0940 -0.0992 -0.0069
 3360W        W22894   3.569  12.659  13.607  0.2936  0.0915 -0.0343
 3361W        W22895  12.344  14.002   1.878  0.1341  0.0633  0.1003
 3362W        W22896  13.000   0.653  15.679 -0.0175  0.1962  0.1083
 3363W        W22897   8.267   7.964   3.524 -0.0510  0.0850 -0.2384
 3364W        W22898  11.224  15.996   4.735 -0.3200 -0.2174 -0.3442
 3365W        W22899   1.157  10.673   3.553  0.0867  0.1484  0.1312
 3366W        W22900   7.484   7.671   5.389 -0.0603  0.0453  0.4093
 3367W        W22901  14.404   8.763  10.988  0.1980  0.1386 -0.1321
 3368W        W22902  10.539  18.142   1.131 -0.0494  0.0886  0.1689
 3369W        W22903   1.582   8.490   0.622 -0.4226  0.0384  0.0214
 3370W        W22904  15.217   2.763  11.216 -0.2930 -0.2974 -0.0983
 3371W        W22905   8.545   1.191  13.640  0.0824 -0.1927 -0.1172
 3372W        W22906   9.891   8.247  11.213 -0.0472 -0.2419  0.0388
 3373W        W22907  17.462   0.993   3.518 -0.1528  0.0089  0.0744
 3374W        W22908   1.819   9.715  14.623  0.1600 -0.1368  0.2959
 3375W        W22909  18.060  14.373  15.442  0.0960  0.0635 -0.1136
 3376W        W22910  10.890  10.582   2.734 -0.0462 -0.0318 -0.1458
 3377W        W22911  13.895   0.249   0.016 -0.2008  0.1017 -0.2303
 3378W        W22912   8.399  13.326   1.725  0.0772 -0.3825  0.0597
 3379W        W22913   5.843   0.868   1.826  0.5060  0.4242  0.1016
 3380W        W22914  10.626   7.349   2.428 -0.0807  0.2668 -0.1972
 3381W        W22915   4.787   4.169   3.764  0.2275  0.3993 -0.1201
 3382W        W22916  15.278   7.519   2.108 -0.0648 -0.1765 -0.0563
 3383W        W22917   5.376   0.284  13.817 -0.1614 -0.2457 -0.3977
 3384W        W22918   8.067   9.443  15.188 -0.1743  0.0874 -0.1326
 3385W        W22919  10.404  12.088  13.977 -0.2345 -0.1132  0.0255
 3386W        W22920  13.909  12.131   3.060 -0.0304 -0.1346  0.1682
 3387W        W22921   2.936  16.005   1.556 -0.3608  0.0719  0.2114
 3388W        W22922   5.961   6.228   0.296  0.0720  0.0552  0.3289
 3389W        W22923  16.488  14.289   2.690 -0.0554  0.0079 -0.2740
 3390W        W22924  14.242   9.252   2.490  0.0326 -0.2065  0.1281
 3391W        W22925   6.854  17.797  15.557  0.3830 -0.3218  0.1900
 3392W        W22926  12.921   7.927  10.337 -0.2348  0.1309 -0.1107
 3393W        W22927   1.501   1.301  14.512 -0.0492 -0.1406  0.1108
 3394W        W22928   9.764  15.726   5.841 -0.0788 -0.0521  0.2397
 3395W        W22929  12.843  12.823   4.239  0.1338  0.1116  0.2502
 3396W        W22930  13.036   0.028   3.627 -0.0245 -0.1147  0.0124
 3397W        W22931   9.096  14.235   2.174  0.0776  0.0146 -0.0494
 3398W        W22932   4.086  10.090  11.932 -0.0491  0.0802 -0.3188
 3399W        W22933  14.930   7.998   0.329  0.0654  0.2290 -0.2705
 3400W        W22934   8.504   0.155   3.418 -0.0755 -0.0210 -0.1627
 3401W        W22935  10.236   1.716   1.187 -0.0601 -0.1897 -0.1841
 3402W        W22936   2.148  15.252   1.829 -0.1438  0.0349 -0.1027
 3403W        W22937   4.847   3.009   2.827 -0.0506  0.1919 -0.1298
 3404W        W22938   4.668  17.721  13.811 -0.2447 -0.0115  0.0820
 3405W        W22939  15.218   4.778  12.876 -0.0122  0.1512 -0.1127
 3406W        W22940   3.909  17.942   3.372 -0.0705  0.2304 -0.0072
 3407W        W22941   8.215  10.860  12.102 -0.5178  0.1118  0.1472
 3408W        W22942   9.810  10.409   1.063 -0.1492  0.1497 -0.1293
 3409W        W22943  12.858  11.891   0.252 -0.4547  0.0675  0.1436
 3410W        W22944   1.979   3.851  14.501 -0.0705 -0.1428  0.0935
 3411W        W22945   0.527  15.384   3.274 -0.3258 -0.1438 -0.0799
 3412W        W22946   4.529  17.354  12.809  0.0404  0.4811  0.2144
 3413W        W22947  11.841  13.557   0.027 -0.3532  0.0680 -0.1002
 3414W        W22948   2.830   2.960  11.634  0.1153 -0.0324 -0.2289
 3415W        W22949   0.935   0.876  11.371  0.2267  0.1092 -0.0991
 3416W        W22950  15.095   3.110  15.830 -0.0823  0.1121  0.0664
 3417W        W22951   7.502  13.764   0.609  0.1321 -0.2013 -0.2135
 3418W        W22952  10.013  13.331  11.922 -0.0685 -0.0354 -0.2849
 3419W        W22953  13.911   5.709  13.840  0.1103  0.2098  0.2045
 3420W        W22954  16.064  15.140   4.158  0.2910 -0.0768  0.0179
 3421W        W22955   9.403   8.039   2.398 -0.1660  0.0495 -0.1789
 3422W        W22956   5.786   3.596  13.970 -0.0643 -0.0382 -0.2042
 3423W        W22957  12.067  16.793   3.392  0.0212 -0.1199 -0.0773
 3424W        W22958   0.979   9.240  13.782 -0.4221 -0.0530  0.0005
 3425W        W22959   5.726   5.356   1.432  0.4876 -0.2458  0.1978
 3426W        W22960  10.168   2.750   4.424 -0.2240  0.0236 -0.0375
 3427W        W22961  18.332   5.669   0.998 -0.0843  0.0340  0.0219
 3428W        W22962   6.838   4.718   2.777 -0.1636  0.0749  0.0023
 3429W        W22963  15.184   7.545  15.003  0.0611  0.1336 -0.1522
 3430W        W22964  12.778   3.328  14.712  0.1990 -0.0630 -0.1895
 3431W        W22965  10.072   1.107   3.580 -0.0717  0.0189 -0.0298
 3432W        W22966  16.323  15.481  12.235 -0.1108 -0.4451 -0.1021
 3433W        W22967  17.895   5.743  12.667  0.2139  0.1884 -0.1783
 3434W        W22968   2.177   8.512  12.639 -0.1639 -0.2279 -0.0945
 3435W        W22969   9.071   0.122  12.076 -0.1093  0.0428 -0.1556
 3436W        W22970  11.444   8.537  13.615 -0.1371  0.0448  0.1902
 3437W        W22971   0.084  10.917   3.169 -0.3728 -0.2373 -0.0559
 3438W        W22972   4.851  11.475   2.294 -0.1685 -0.0901 -0.1127
 3439W        W22973   3.558  15.499  15.757  0.2007 -0.0799 -0.1380
 3440W        W22974  15.981   1.057  15.555  0.0390 -0.0343  0.0986
 3441W        W22975   8.276  15.910   2.805 -0.0032  0.2526 -0.2398
 3442W        W22976   9.726  16.979   1.180  0.0874  0.4143 -0.1630
 3443W        W22977   1.349  12.298  11.142  0.0155 -0.0132 -0.1863
 3444W        W22978  13.486   1.322  14.786  0.1081  0.1308  0.0255
 3445W        W22979   3.278  17.828   2.436 -0.1237 -0.0867  0.1563
 3446W        W22980  11.754  18.402   3.827 -0.3108  0.0240 -0.0882
 3447W        W22981   2.144  16.980  13.356 -0.1297 -0.1115  0.1792
 3448W        W22982  14.479   5.207   0.826  0.0867  0.0873  0.1151
 3449W        W22983  11.235   1.938  15.230  0.0557  0.1541 -0.0004
 3450W        W22984  12.761  17.932  14.336  0.0554 -0.3912  0.3024
 3451W        W22985  12.010  14.332  11.347 -0.0417 -0.2041 -0.0073
 3452W        W22986   2.693  16.649   2.675  0.0550  0.1944 -0.1237
 3453W        W22987  15.391  14.915   4.675 -0.1376 -0.1732  0.0877
 3454W        W22988  12.376   5.996   2.193  0.0338 -0.1263  0.1597
 3455W        W22989   6.793  18.235   3.397  0.1124 -0.2228 -0.0776
 3456W        W22990  13.832   7.291   3.445  0.0394  0.2066 -0.0979
 3457W        W22991   2.480   1.975  13.775 -0.0571  0.0730 -0.3237
 3458W        W22992   0.083   2.914  11.625  0.2259 -0.0814 -0.1490
 3459W        W22993  15.304  13.232   2.487 -0.1408 -0.2056 -0.0464
 3460W        W22994  14.902   7.475   2.780  0.0561 -0.2610  0.2282
 3461W        W22995   6.392   8.422   0.385 -0.0308  0.0589  0.1083
 3462W        W22996   1.250  15.180  15.822  0.2521  0.0984 -0.0071
 3463W        W22997  13.002  14.227  13.913  0.0544 -0.3648  0.0667
 3464W        W22998   7.767   1.508   1.513  0.1683  0.3236 -0.1232
 3465W        W22999   5.232   5.459   1.431 -0.1553  0.2102 -0.1096
 3466W        W23000   7.696  10.264  10.487  0.3663 -0.0492  0.1195
 3467W        W23001   5.154  15.687  15.020  0.1029  0.3086 -0.2976
 3468W        W23002   2.940   0.833   1.703  0.1180 -0.0930 -0.1662
 3469W        W23003   1.406   1.786   2.789  0.1537 -0.1402 -0.0320
 3470W        W23004  18.168  15.868   2.580 -0.3645  0.3156 -0.1035
 3471W        W23005   8.238  15.098   4.196 -0.4288  0.1253 -0.0032
 3472W        W23006   8.083  12.602  12.046  0.1882 -0.1770  0.3235
 3473W        W23007  17.004  10.192   3.933 -0.1335 -0.1829 -0.1566
 3474W        W23008  17.398  13.489  12.563 -0.0943 -0.1766 -0.1573
 3475W        W23009  14.610   1.025   1.149  0.1917 -0.1944 -0.1300
 3476W        W23010   2.112  12.304  14.920  0.0970  0.0533 -0.1321
 3477W        W23011   6.475   0.490  15.706  0.1247 -0.2827  0.3589
 3478W        W23012  13.965   2.681  10.803 -0.1611 -0.0157 -0.0035
 3479W        W23013   4.784  16.159   0.910  0.0726 -0.1033 -0.6073
 3480W        W23014   2.411  15.387  11.394 -0.2626  0.0539  0.0555
 3481W        W23015  16.588  14.185  15.119  0.2762 -0.0511 -0.0640
 3482W        W23016   7.399  10.433  13.058 -0.1395  0.2250 -0.3040
 3483W        W23017   9.694   1.436   0.686 -0.1021 -0.0233  0.0150
 3484W        W23018  12.161   1.721   0.753  0.0140 -0.3396  0.4054
 3485W        W23019   1.096  12.747  14.595  0.0646 -0.0605 -0.1305
 3486W        W23020  15.627  16.419  13.253  0.1794 -0.1071 -0.2093
 3487W        W23021   8.620  11.165  14.991  0.0463  0.2596 -0.0095
 3488W        W23022   0.120  11.697  14.258 -0.0839 -0.0025  0.1125
 3489W        W23023   2.471   4.543   2.124 -0.2536  0.1121 -0.2225
 3490W        W23024   8.601  12.832   4.161 -0.2640  0.1617 -0.0779
 3491W        W23025   8.514   6.940   4.630 -0.0444 -0.0684  0.0398
 3492W        W23026   3.678   3.828  13.674 -0.0251 -0.0315 -0.0867
 3493W        W23027   0.409   0.486   1.075  0.3222  0.0279  0.2039
 3494W        W23028  13.112  16.832  15.576  0.1993 -0.2262  0.0644
 3495W        W23029   3.755   7.597  11.757  0.1290  0.0826  0.0682
 3496W        W23030  13.516  12.573   1.694 -0.0836 -0.1350  0.0616
 3497W        W23031   8.419   2.280  13.112  0.2392 -0.0539  0.3144
 3498W        W23032   2.626  18.134  10.756 -0.1453 -0.0833  0.2149
 3499W        W23033  11.866   2.694   0.934  0.5035 -0.0901  0.0056
 3500W        W23034  18.346   9.912  13.776 -0.2745  0.2829 -0.0858
 3501W        W23035   1.813  10.352  11.529  0.4167  0.0093 -0.1755
 3502W        W23036   6.048   1.733   1.117 -0.0023  0.0041 -0.3289
 3503W        W23037   2.107   8.565   4.153 -0.0116  0.0515 -0.1706
 3504W        W23038   5.643   2.325   3.816 -0.1135 -0.0296 -0.1380
 3505W        W23039   2.988  12.465  15.126  0.0315  0.1058 -0.0960
 3506W        W23040  15.950  15.759  11.286  0.1728 -0.2731  0.0467
 3507W        W23041   6.769  17.273   3.244  0.0518 -0.2122  0.0445
 3508W        W23042   0.439   9.347   0.308 -0.0073  0.0963 -0.1436
 3509W        W23043   2.316   2.939  13.462  0.0716  0.0148  0.1612
 3510W        W23044   6.053   0.603   2.306 -0.3524 -0.1300  0.1179
 3511W        W23045   0.046   0.911   3.697  0.0076  0.0322  0.0123
 3512W        W23046  16.245  13.441   2.545  0.1985 -0.0131 -0.3099
 3513W        W23047  12.432  10.359  11.817  0.1063  0.2234 -0.0614
 3514W        W23048  15.370  16.074  13.623 -0.0808  0.0959 -0.1740
 3515W        W23049   1.465  16.661  14.477  0.2500  0.0685 -0.2639
 3516W        W23050   1.435   0.928  11.373 -0.0880 -0.0738 -0.4041
 3517W        W23051   3.363  16.543  14.444  0.0518  0.1643  0.3220
 3518W        W23052  12.399  11.461  12.293  0.3090 -0.1383  0.0243
 3519W        W23053  16.370  14.539  13.566 -0.0069  0.0167 -0.0108
 3520W        W23054  15.298  13.941   1.448  0.0253 -0.2268  0.1547
 3521W        W23055  10.491  11.955   1.411 -0.1312 -0.0525 -0.0265
 3522W        W23056   7.489  10.729  12.339 -0.2191  0.0632  0.0480
 3523W        W23057  15.063   3.414   1.998  0.3368 -0.0483 -0.2766
 3524W        W23058   8.441  17.166  15.026 -0.0166 -0.1450  0.2225
 3525W        W23059   4.567   7.391  11.140 -0.2097  0.0283 -0.1514
 3526W        W23060  13.968   7.092   3.941 -0.1913 -0.1214  0.2024
 3527W        W23061  10.015   0.384  13.974 -0.2307 -0.3121  0.2936
 3528W        W23062   7.153  16.912   3.102  0.0061 -0.0333  0.2451
 3529W        W23063   7.622  17.207   1.502 -0.0621  0.0879 -0.0131
 3530W        W23064  15.278  10.020  12.800 -0.0276  0.2098  0.3414
 3531W        W23065  11.860  15.435   3.064 -0.1358  0.1315  0.0376
 3532W        W23066  13.946  13.330  15.142 -0.3432  0.1968  0.0381
 3533W        W23067   0.108  11.562   0.962  0.2291  0.2289  0.0486
 3534W        W23068  14.743   3.370  13.381  0.2917  0.0156  0.1261
 3535W        W23069  14.003  10.479   4.570 -0.0127  0.0299 -0.2125
 3536W        W23070   7.423  11.461   3.632  0.1434  0.0578 -0.3799
 3537W        W23071  12.730  11.137   0.757  0.0807  0.0356  0.0829
 3538W        W23072   6.216   0.060  13.982 -0.2254 -0.2045  0.0557
 3539W        W23073   0.899   8.148   1.232 -0.1436  0.3272  0.2490
 3540W        W23074  15.661   3.120   0.257  0.2564 -0.1018 -0.2471
 3541W        W23075  17.446   5.491   3.522  0.1965  0.0371  0.2771
 3542W        W23076   5.432   2.534  12.407 -0.2986  0.1528 -0.3895
 3543W        W23077  16.824   5.693   4.400  0.0078  0.1480  0.0142
 3544W        W23078  13.835  13.437  12.390 -0.0408  0.0188 -0.1270
 3545W        W23079   6.552  17.501  15.310  0.0363  0.3491  0.0149
 3546W        W23080  10.785  13.320   0.016 -0.0570  0.2587 -0.2829
 3547W        W23081   6.086   4.402   2.523  0.0493 -0.1140 -0.2579
 3548W        W23082   8.519  14.927  12.991 -0.1345 -0.1898  0.0900
 3549W        W23083  13.928   1.354   1.783  0.0407  0.1529  0.0535
 3550W        W23084   2.070  13.019   1.877 -0.0088 -0.0846  0.0817
 3551W        W23085   6.151  12.908  13.688 -0.2162 -0.1237  0.1460
 3552W        W23086   2.946   3.480   2.729  0.2399 -0.1613 -0.1195
 3553W        W23087  11.857  10.180  12.944 -0.0658  0.3272  0.2030
 3554W        W23088   0.903   3.329  13.312 -0.3062 -0.3541  0.1856
 3555W        W23089   0.362   1.349   0.117  0.0834 -0.0219  0.0381
 3556W        W23090  10.050   4.283  13.318  0.0245 -0.1522 -0.3899
 3557W        W23091   9.371  12.223  13.740 -0.1731 -0.1083  0.0745
 3558W        W23092  11.443   5.523  13.462 -0.1579 -0.2684  0.0916
 3559W        W23093   7.941  10.935  14.622  0.1507 -0.3108 -0.0127
 3560W        W23094  15.577   3.149  15.022 -0.2434  0.0430 -0.0401
 3561W        W23095   3.556   6.559  12.142 -0.1631  0.1655 -0.1280
 3562W        W23096   0.595   8.445   0.643  0.0890  0.1188  0.3275
 3563W        W23097  10.645  17.378  14.982  0.2360  0.1008  0.1242
 3564W        W23098  12.606  15.160   1.907 -0.2009 -0.0657 -0.2520
 3565W        W23099  11.489   5.412   2.745 -0.0405  0.0063 -0.1501
 3566W        W23100   5.881   0.566   0.516  0.3244 -0.4054  0.2643
 3567W        W23101  16.398  15.923  13.864 -0.0903  0.0054  0.6343
 3568W        W23102   6.463  11.118   4.715 -0.0689 -0.1285  0.0480
 3569W        W23103  14.770   6.727  12.643 -0.1117 -0.2498  0.1887
 3570W        W23104   5.013  14.263  12.961 -0.3145 -0.1409  0.0129
 3571W        W23105   4.453  12.875   2.616 -0.0221  0.1257  0.2474
 3572W        W23106  11.180   3.221  11.668  0.2304 -0.2623 -0.2775
 3573W        W23107  13.318   4.169   2.748 -0.4283 -0.0151 -0.0524
 3574W        W23108   1.207   2.226   2.660 -0.1249 -0.1467  0.0259
 3575W        W23109  12.681   0.586   1.531 -0.1296 -0.1839 -0.0398
 3576W        W23110  17.155   3.681  13.038 -0.0782  0.2005 -0.3312
 3577W        W23111   2.123   4.645  13.839 -0.0610 -0.0545 -0.2628
 3578W        W23112   9.795  10.127  13.052  0.0252  0.0718 -0.1433
 3579W        W23113  10.541   3.353  13.344  0.1572 -0.1631  0.1141
 3580W        W23114  16.221  17.774   2.867 -0.3131  0.3932 -0.0609
 3581W        W23115   6.417  18.049  15.220  0.1059  0.3861  0.0737
 3582W        W23116   0.323  13.239   2.768  0.0110 -0.1232  0.2305
 3583W        W23117  12.059  13.418  12.860  0.3923  0.0336  0.1304
 3584W        W23118  13.104   0.319  11.733  0.1608  0.2096 -0.2408
 3585W        W23119   9.845   1.207  14.945 -0.0772 -0.2467  0.1374
 3586W        W23120  13.534   6.419   3.244 -0.0860 -0.2489 -0.1829
 3587W        W23121  12.697  11.279  14.196 -0.1900 -0.1757  0.1565
 3588W        W23122  16.650   9.273  15.084 -0.1616  0.1421  0.0150
 3589W        W23123  10.508  14.037  12.469 -0.0470  0.1040  0.0979
 3590W        W23124  14.401  17.914   1.561  0.2739 -0.1135  0.2486
 3591W        W23125   0.773  13.495   2.847  0.1147  0.0214  0.1203
 3592W        W23126  17.015  14.152   3.737 -0.2394  0.2554 -0.2571
 3593W        W23127  15.105   2.537   1.519  0.1136 -0.1322  0.1832
 3594W        W23128  14.861  14.627   2.787  0.3330 -0.2357  0.1260
 3595W        W23129   2.593   8.838  14.472  0.3575  0.1326 -0.0202
 3596W        W23130   0.207  18.067  13.769  0.2827  0.0825 -0.1249
 3597W        W23131  13.644   0.201   4.233 -0.1350 -0.2235 -0.3133
 3598W        W23132   8.742   0.403   2.988 -0.2695 -0.0045 -0.2702
 3599W        W23133  12.895   9.211  12.698 -0.2574 -0.1608  0.2968
 3600W        W23134  13.248  16.247   3.665  0.0503 -0.2525 -0.1167
 3601W        W23135  12.576  12.782   3.227 -0.2573  0.1862  0.1219
 3602W        W23136  18.140  18.158   2.973  0.1633 -0.0013  0.2332
 3603W        W23137   3.761  15.051   0.324 -0.0184  0.0463  0.1359
 3604W        W23138  11.496  10.659  14.866  0.1073  0.1482  0.1346
 3605W        W23139  16.045   6.349   0.324  0.2207 -0.0376 -0.2191
 3606W        W23140  13.099  11.283  14.454  0.1327  0.0765 -0.0899
 3607W        W23141  13.915   4.334  11.656 -0.2053 -0.0018 -0.2337
 3608W        W23142   2.187   2.273   4.143 -0.0230  0.1858  0.1292
 3609W        W23143  17.215  16.391   1.543  0.0431 -0.1222 -0.2183
 3610W        W23144   9.382  13.878   0.924 -0.2494 -0.0344 -0.0700
 3611W        W23145  13.016   4.931  10.992 -0.4015  0.1214  0.1511
 3612W        W23146   3.643   3.667  11.408 -0.0213 -0.1775 -0.2502
 3613W        W23147   7.849   7.884   2.684 -0.1539 -0.1305 -0.2308
 3614W        W23148   8.110   7.282   1.888  0.2446 -0.0468 -0.2259
 3615W        W23149   7.626  17.533   5.515  0.0274 -0.2804 -0.0204
 3616W        W23150  13.860  15.992   3.211 -0.0874 -0.1286 -0.1697
 3617W        W23151  16.935   7.760  12.658 -0.1475  0.3517  0.1259
 3618W        W23152  14.891  13.122  11.440 -0.2328  0.0487  0.5779
 3619W        W23153  15.168   6.307   0.409  0.1257 -0.2312 -0.2670
 3620W        W23154   9.412  12.226  11.356  0.1550  0.2572  0.0526
 3621W        W23155   2.723   0.835  11.808  0.2255 -0.2141 -0.1399
 3622W        W23156   5.808   3.298   3.179  0.1199 -0.0093  0.2188
 3623W        W23157   2.591  16.930   0.125  0.0445 -0.2083 -0.2014
 3624W        W23158   7.984  15.704  15.298  0.3698 -0.0429  0.0416
 3625W        W23159   2.516  16.147   1.043 -0.0648 -0.1801  0.1565
 3626W        W23160  12.109   6.209   0.117  0.0535  0.0326  0.0183
 3627W        W23161   6.244   3.683  15.067 -0.0909 -0.0193 -0.2411
 3628W        W23162  10.293  12.029   3.446 -0.0566 -0.3636  0.0976
 3629W        W23163   1.608   0.840  12.692 -0.2569 -0.2236  0.2778
 3630W        W23164  15.033  15.320   3.377 -0.2914 -0.2493  0.0965
 3631W        W23165  15.111  18.184  13.228  0.0902 -0.2062  0.0737
 3632W        W23166  11.638   8.274   4.162  0.1169  0.1828 -0.0097
 3633W        W23167   3.478   9.294  11.824  0.0233  0.2617  0.0790
 3634W        W23168  15.470  13.068  14.267  0.0712  0.0919 -0.2516
 3635W        W23169  12.740   5.446   2.119 -0.3168  0.0962 -0.1068
 3636W        W23170  13.554   1.906   0.834 -0.0366 -0.1370  0.0916
 3637W        W23171  17.894  15.143   4.108  0.1601  0.0543  0.1440
 3638W        W23172   5.548   5.672  14.041  0.0255  0.1540 -0.1715
 3639W        W23173   8.932  15.256  13.026 -0.0082  0.0277 -0.1737
 3640W        W23174  12.449   0.228  14.899 -0.1639 -0.0403  0.0796
 3641W        W23175  10.045  11.630   2.908 -0.0647 -0.1600  0.0845
 3642W        W23176   1.339  13.216   2.303  0.1574 -0.0252 -0.0753
 3643W        W23177   7.207   2.585  13.604  0.0502 -0.2035 -0.1079
 3644W        W23178  11.849   4.808   4.460 -0.3334 -0.0098  0.2763
 3645W        W23179   6.481   1.988   4.825  0.1503  0.1118 -0.1868
 3646W        W23180  10.083   6.715   2.327  0.2661  0.1536 -0.0788
 3647W        W23181  14.379   6.019  15.646 -0.2110  0.2586  0.0792
 3648W        W23182   9.509   2.592   1.690  0.0854 -0.3825  0.1258
 3649W        W23183  18.287   4.475   1.900  0.0364 -0.5824 -0.0575
 3650W        W23184  17.976  10.942  12.368  0.1126  0.1709 -0.2620
 3651W        W23185   8.635  18.182  12.050  0.0526 -0.0634 -0.1411
 3652W        W23186  13.979  18.343   2.081  0.3124  0.1400  0.0773
 3653W        W23187  11.288  10.087   4.248 -0.2751  0.3867 -0.3608
 3654W        W23188  13.336  15.713   2.336  0.0874  0.2123 -0.1133
 3655W        W23189   8.439  14.512   5.624  0.1260 -0.2009 -0.1034
 3656W        W23190  13.318   6.528  13.711 -0.0571 -0.1091  0.1199
 3657W        W23191  12.719  12.957  13.326 -0.4353 -0.0922  0.1838
 3658W        W23192  13.958   5.690   1.763 -0.0222 -0.2084  0.1989
 3659W        W23193  11.893  11.141  13.607 -0.1401 -0.0292  0.1296
 3660W        W23194   3.982   3.278   1.387 -0.0503 -0.2700 -0.0185
 3661W        W23195  16.078   9.855  11.470 -0.2585 -0.1089  0.0781
 3662W        W23196  12.803   0.057   2.472 -0.1156 -0.0942  0.1588
 3663W        W23197   2.562   5.163   2.514  0.0726 -0.0070 -0.0511
 3664W        W23198   3.453   8.434  13.993 -0.0621  0.0364  0.1362
 3665W        W23199   6.443   4.905  13.169 -0.0817  0.1074 -0.1190
 3666W        W23200   7.542   2.338  11.362  0.0960  0.0490  0.3374
 3667W        W23201   9.997  14.561   0.682  0.0712  0.1826  0.1687
 3668W        W23202   5.387  11.675   0.873  0.2492 -0.3210 -0.4539
 3669W        W23203  16.250   4.637   9.909 -0.0063 -0.0774 -0.1392
 3670W        W23204   7.343   8.003   4.390  0.2939  0.1306  0.0832
 3671W        W23205   9.634   2.238  15.405 -0.0850  0.1940 -0.0225
 3672W        W23206   7.315  18.205  12.965 -0.0458  0.0570  0.0967
 3673W        W23207  10.417  15.724  13.096  0.1676  0.1236 -0.0447
 3674W        W23208   1.634  14.945   0.886  0.1504 -0.1901  0.1504
 3675W        W23209  10.839   8.895   1.651 -0.4046  0.2042 -0.0230
 3676W        W23210   7.066  17.321   4.572  0.1813  0.1240 -0.0667
 3677W        W23211  16.103   1.177   1.290  0.1785 -0.1674  0.2278
 3678W        W23212  12.422   5.482   0.799 -0.0817 -0.0962 -0.1008
 3679W        W23213  17.030   3.290  14.932 -0.2311  0.1186 -0.2021
 3680W        W23214  11.375   9.358   3.571  0.0852  0.0274  0.3127
 3681W        W23215  10.129   3.325  14.880  0.0722 -0.0362 -0.1813
 3682W        W23216  16.649   8.581   2.600  0.0337  0.4906  0.3766
 3683W        W23217   9.482  13.251  15.510 -0.0531 -0.3817  0.1913
 3684W        W23218   2.951   4.475   0.521  0.0765  0.1189  0.0553
 3685W        W23219  17.752   6.739   2.600  0.0979 -0.2377 -0.0240
 3686W        W23220  12.205  17.616  13.674 -0.0352  0.0568  0.2712
 3687W        W23221  14.471   5.149  12.586  0.0199  0.0018 -0.0531
 3688W        W23222  12.896   3.871   2.702 -0.2804 -0.2268 -0.1689
 3689W        W23223  16.339   6.753   0.313  0.3006  0.1434 -0.2954
 3690W        W23224  16.637  12.190  14.758 -0.0370  0.1824 -0.1581
 3691W        W23225  15.325  13.058  12.961 -0.1455 -0.0652 -0.2575
 3692W        W23226  18.049  18.092  13.446  0.2349 -0.2144 -0.1517
 3693W        W23227   9.167   4.139   0.714 -0.0101 -0.1178 -0.1551
 3694W        W23228  17.807  17.893   0.795 -0.3826 -0.0152  0.1720
 3695W        W23229  11.066  10.530   0.477  0.3253 -0.0464 -0.2258
 3696W        W23230   4.053  16.707   1.834 -0.2522 -0.1872  0.0810
 3697W        W23231   2.356   0.784   2.252  0.1305 -0.0903  0.0072
 3698W        W23232  12.236   5.659   1.896  0.1052  0.1504  0.1485
 3699W        W23233  13.164  18.270  11.490  0.1380  0.0681 -0.0090
 3700W        W23234  10.009   7.423  14.736 -0.4918 -0.1180  0.0905
 3701W        W23235  18.004   4.410  15.443 -0.1775  0.0669 -0.0527
 3702W        W23236   1.273   3.810   3.539 -0.0054  0.0945 -0.0111
 3703W        W23237   6.340   9.866   2.182 -0.0052  0.2982 -0.1177
 3704W        W23238   2.748   1.502  15.459 -0.1167 -0.0394 -0.3472
 3705W        W23239  12.327  11.537  12.804  0.3462 -0.0833 -0.0476
 3706W        W23240  14.449  14.620  12.683 -0.0166  0.1995 -0.3280
 3707W        W23241  17.275  11.295   2.434 -0.1150  0.2290 -0.0318
 3708W        W23242  16.826  11.035   3.866  0.0611  0.3342  0.0076
 3709W        W23243  15.411  12.932   5.432  0.0721  0.3405 -0.1283
 3710W        W23244   8.936  18.027  11.671 -0.0115 -0.2145  0.1444
 3711W        W23245  17.279  10.326  14.544 -0.1923 -0.2443 -0.2713
 3712W        W23246   2.437   3.637   2.700 -0.3941  0.1039 -0.1202
 3713W        W23247   3.908   2.141   1.380 -0.0258  0.1961  0.0017
 3714W        W23248   4.854  17.524   2.567  0.1878  0.1804 -0.0859
 3715W        W23249  15.772   4.428   3.900  0.0873  0.2108 -0.1036
 3716W        W23250  11.722  16.347   4.585  0.0576  0.1113  0.2244
 3717W        W23251   4.566  18.090   0.483  0.2067  0.1292 -0.1596
 3718W        W23252   6.901  15.741  12.973  0.1203 -0.2451 -0.1547
 3719W        W23253   5.949  14.429  12.796 -0.1063  0.2963  0.3254
 3720W        W23254   2.969   0.486  15.313 -0.0613  0.2206  0.3190
 3721W        W23255   9.490  18.068  12.933 -0.2118  0.0175 -0.1207
 3722W        W23256   5.112   4.117  14.440 -0.1988 -0.2182 -0.1749
 3723W        W23257   5.094   3.262   1.650  0.4157 -0.0813  0.1203
 3724W        W23258  10.821  17.982   3.125 -0.2139 -0.0168  0.0185
 3725W        W23259  17.080   8.883   2.393 -0.2042  0.1471  0.0815
 3726W        W23260   9.719   3.235  12.970 -0.1333  0.1775 -0.0073
 3727W        W23261  15.692  13.953   1.135  0.1981 -0.0572 -0.3383
 3728W        W23262  12.363  13.372  14.027  0.1073 -0.0036 -0.2321
 3729W        W23263  17.003   8.276   5.167 -0.4731 -0.4438  0.1732
 3730W        W23264   9.844  14.293  13.088  0.0143  0.1010  0.0801
 3731W        W23265  14.814  16.743  14.327  0.2980 -0.0452  0.0209
 3732W        W23266  17.551   9.771   2.713 -0.0675 -0.2311  0.3246
 3733W        W23267   8.161   2.857   2.895 -0.1476 -0.0893  0.0674
 3734W        W23268  15.990  15.416  15.185 -0.0609 -0.0908  0.1307
 3735W        W23269   4.073   0.044  12.583  0.1481  0.0971  0.0097
 3736W        W23270   9.645  13.696  13.475 -0.0132  0.1585  0.1011
 3737W        W23271  13.202   3.736   1.112 -0.0442  0.1560  0.1074
 3738W        W23272  14.992   1.496   3.661 -0.0289 -0.0903  0.2449
 3739W        W23273   7.646  10.677   1.533  0.1113 -0.0157  0.1789
 3740W        W23274  17.611   3.598   0.775 -0.0993 -0.2280 -0.1006
 3741W        W23275  16.226  18.272  10.559 -0.1013  0.0486  0.0425
 3742W        W23276   3.221  18.128   1.421  0.0662  0.2412  0.2282
 3743W        W23277  15.526   4.420   2.572 -0.1296  0.2222 -0.0720
 3744W        W23278  16.762  10.944  11.691 -0.2762 -0.2289  0.1484
 3745W        W23279  16.134   1.274  14.300  0.0842  0.3688  0.0650
 3746W        W23280  13.584  15.052  15.006 -0.1591  0.0067  0.1594
 3747W        W23281  11.434   4.383  12.311 -0.3315  0.3660  0.0087
 3748W        W23282   0.642   7.793  14.841 -0.2924 -0.1767 -0.0141
 3749W        W23283   7.395   2.752  13.109  0.1842 -0.0365  0.0843
 3750W        W23284   5.812  13.426   2.629  0.2369 -0.0511  0.1113
 3751W        W23285   6.979   3.810   0.536 -0.0464  0.2044  0.2204
 3752W        W23286   2.468  11.802  14.003  0.1044 -0.1014 -0.2311
 3753W        W23287   9.804  11.818  12.133 -0.1360 -0.0690 -0.4940
 3754W        W23288   3.393   3.434   0.486 -0.1042  0.0170  0.2175
 3755W        W23289  11.636   5.480  10.554  0.2004  0.1843 -0.1841
 3756W        W23290   8.664  16.517  13.671 -0.1450 -0.2420  0.0292
 3757W        W23291   6.426   3.422   1.272 -0.4655  0.0279  0.0857
 3758W        W23292  16.784   4.874  15.027  0.0943  0.1338 -0.0132
 3759W        W23293  12.907   4.533  13.270 -0.1452 -0.4248  0.4255
 3760W        W23294   6.904   8.997  15.469 -0.4452 -0.0814  0.1150
 3761W        W23295   0.985   7.249   0.690 -0.0094  0.3644 -0.1677
 3762W        W23296  13.607   9.168   2.322 -0.1136 -0.0459  0.3019
 3763W        W23297  18.336  12.266  13.314 -0.1169 -0.0318 -0.1745
 3764W        W23298   2.460   5.114   1.966 -0.3517  0.2583 -0.0471
 3765W        W23299   0.664  14.684  13.792  0.0027  0.1642 -0.0872
 3766W        W23300   8.890   4.377   1.634  0.0474 -0.0570  0.0222
 3767W        W23301  10.379  14.699   3.320 -0.1680  0.1348  0.3730
 3768W        W23302  17.197  16.265  11.962 -0.1356 -0.1936 -0.0643
 3769W        W23303  13.412   4.822   1.788 -0.0062 -0.1411  0.0198
 3770W        W23304   7.535  10.113  11.679 -0.3248  0.0893  0.3043
 3771W        W23305  16.253   9.920  12.898 -0.4666 -0.2255  0.0563
 3772W        W23306  13.014  14.267   3.055  0.0005  0.1279 -0.0593
 3773W        W23307  17.087  14.287  14.996  0.0521  0.0004 -0.2351
 3774W        W23308  15.505   8.328  13.365 -0.1866 -0.0512 -0.2678
 3775W        W23309   1.141   1.255   1.938 -0.3646 -0.3618 -0.1605
 3776W        W23310  15.336   8.067   1.329  0.1100  0.1144  0.0268
 3777W        W23311   6.201   3.308  13.972  0.1131 -0.0650  0.2235
 3778W        W23312   1.534  10.513   1.114 -0.0331 -0.0725  0.1822
 3779W        W23313   6.478   4.663   3.719 -0.0447 -0.0312  0.2190
 3780W        W23314   6.817   9.765   0.263 -0.0614 -0.2034 -0.2082
 3781W        W23315   2.223   9.246   3.551  0.2546 -0.1321 -0.1577
 3782W        W23316  12.815  16.553  14.564 -0.0573  0.0384  0.0303
 3783W        W23317  13.167   6.821   1.986  0.0220 -0.2386 -0.0034
 3784W        W23318  10.509   4.979  12.087  0.0694  0.1794  0.0482
 3785W        W23319  14.321  14.472  15.073 -0.0949 -0.0221 -0.0294
 3786W        W23320  16.827  16.291   4.522  0.0934 -0.0423 -0.2664
 3787W        W23321  16.944  15.962   0.039  0.0807  0.0870  0.1469
 3788W        W23322   4.048  15.356  12.014  0.0208 -0.0012 -0.0859
 3789W        W23323   1.558  13.810   5.192  0.2483  0.1648 -0.0091
 3790W        W23324   6.961  11.737   3.593 -0.3108 -0.2001  0.0340
 3791W        W23325   0.043   5.351   3.241  0.1628 -0.2721 -0.0831
 3792W        W23326  16.202   4.347  14.574 -0.1065  0.0843  0.0564
 3793W        W23327  13.577  14.839   2.181  0.0757  0.1125  0.1170
 3794W        W23328   7.318   7.676   0.120 -0.2275 -0.1031  0.4030
 3795W        W23329   4.127   5.539  12.862  0.0176  0.3118  0.1836
 3796W        W23330   2.238   7.371   2.640  0.2919  0.1190  0.0965
 3797W        W23331  10.843  13.322  11.936 -0.4348 -0.1348 -0.3678
 3798W        W23332   1.707   2.111  14.363  0.1072  0.0685  0.1097
 3799W        W23333  14.143  17.803   2.973 -0.0866 -0.1931 -0.3532
 3800W        W23334   5.565   0.872   0.115  0.1130  0.0165  0.2540
 3801W        W23335  15.923   6.956   0.044 -0.2079 -0.1422  0.0973
 3802W        W23336   7.323   4.414   1.887  0.2430 -0.0685 -0.0856
 3803W        W23337  14.724   3.127  14.805 -0.0735  0.0105 -0.0240
 3804W        W23338   6.747  12.866  13.141  0.2861  0.3852 -0.0374
 3805W        W23339   5.249  10.625  10.570 -0.0154 -0.1123  0.0648
 3806W        W23340  16.113  17.320  11.420  0.1271  0.0265  0.4234
 3807W        W23341   5.120   3.662  13.017 -0.1705 -0.2182  0.0154
 3808W        W23342  10.421  11.638   0.778 -0.3356 -0.1619 -0.0778
 3809W        W23343   5.425  15.797   2.730  0.2490  0.2240 -0.2954
 3810W        W23344   2.365   5.390   4.465  0.2277  0.0455  0.2322
 3811W        W23345   0.052   1.625  15.554  0.1937 -0.1585 -0.1563
 3812W        W23346  11.006   9.644   4.346 -0.2785  0.2748 -0.2009
 3813W        W23347   9.955   5.253   1.030 -0.1252 -0.2513 -0.1190
 3814W        W23348  10.531   5.584   4.338  0.0357  0.0440  0.1374
 3815W        W23349  10.509  10.355  13.457 -0.0609  0.0037  0.2494
 3816W        W23350   2.714   6.529   1.915  0.0815  0.0910  0.0158
 3817W        W23351   7.425  11.779   0.714  0.2631  0.0243 -0.0208
 3818W        W23352   9.906  17.406  14.404  0.0013 -0.0172  0.0922
 3819W        W23353  18.072  16.857   1.436  0.2863 -0.1058  0.2190
 3820W        W23354  15.979  11.410   1.192  0.0366  0.0693  0.0533
 3821W        W23355   7.701   0.836  14.100  0.2642  0.2762  0.0474
 3822W        W23356   9.484  16.691   3.244 -0.2514 -0.1081  0.0599
 3823W        W23357   2.326  10.546  12.198  0.3327 -0.0461 -0.0659
 3824W        W23358   0.427  16.473   1.168 -0.2354 -0.3109 -0.2646
 3825W        W23359  15.443   1.976  14.270 -0.2078 -0.1627  0.0801
 3826W        W23360  14.984  18.097  12.655 -0.1898 -0.0074 -0.2589
 3827W        W23361   5.364   1.896   1.583  0.0528 -0.2214  0.0155
 3828W        W23362  17.481   5.310  15.544 -0.2889  0.0292  0.2066
 3829W        W23363   7.355   9.988   2.035  0.1069  0.3062  0.4629
 3830W        W23364  12.669  17.452  13.320  0.3231  0.0675 -0.3585
 3831W        W23365   3.069  14.651   4.229  0.1353  0.1330  0.1229
 3832W        W23366  12.193   5.884  13.907  0.0939  0.3362  0.1814
 3833W        W23367   0.734  14.524  12.379  0.2146 -0.2995  0.0204
 3834W        W23368   9.421   7.111   1.701 -0.2766 -0.2581  0.1392
 3835W        W23369  15.388   0.802  14.955  0.1543  0.5260 -0.1266
 3836W        W23370  15.668   4.916   2.387 -0.1305  0.2176  0.1699
 3837W        W23371  16.758   7.016   1.439 -0.1021  0.0599 -0.0708
 3838W        W23372   0.760   4.423   0.854 -0.4853  0.0525 -0.1881
 3839W        W23373   6.779   5.132   0.334 -0.2477  0.0450  0.0702
 3840W        W23374   5.352  10.899   0.594  0.2105  0.1342  0.0219
 3841W        W23375   2.881   4.760   0.074 -0.0348  0.1179 -0.0378
 3842W        W23376   8.696   1.696   4.260  0.1929  0.0123  0.1386
 3843W        W23377   1.152   4.509   1.765 -0.1154 -0.3295  0.0458
 3844W        W23378  15.122  11.046  15.776 -0.2348 -0.0967 -0.2589
 3845W        W23379   4.633   7.965   0.222 -0.1280 -0.0822  0.0818
 3846W        W23380  16.914   8.671  15.437  0.1124  0.0590 -0.1113
 3847W        W23381   7.650  17.653   3.606  0.1166  0.0991 -0.0972
 3848W        W23382   2.342  17.287  14.526 -0.0522 -0.0322 -0.2459
 3849W        W23383   6.248  12.634   3.161 -0.0908  0.0241  0.1095
 3850W        W23384   2.408   6.701  13.003 -0.0448 -0.0368  0.0322
 3851W        W23385   5.598   7.233  15.497  0.0445 -0.0991  0.4085
 3852W        W23386   5.531   8.068   0.588 -0.1719 -0.2452  0.1477
 3853W        W23387   4.866   1.719   4.317 -0.1334 -0.2016 -0.0166
 3854W        W23388  10.291   4.052   4.284  0.1787 -0.0680 -0.1377
 3855W        W23389   5.777  15.208  13.283  0.0137 -0.1458  0.0014
 3856W        W23390  16.967  15.360   1.777  0.0112 -0.0345 -0.0266
 3857W        W23391   9.746   8.228   4.267  0.1499 -0.0621  0.2012
 3858W        W23392   7.634  17.112   3.766  0.3441  0.1791 -0.1000
 3859W        W23393   0.783   6.577   0.093 -0.2832 -0.1126 -0.2216
 3860W        W23394   0.111  18.149  15.156  0.0878  0.0544  0.3220
 3861W        W23395   8.537   6.600   2.922 -0.2562  0.1805 -0.1588
 3862W        W23396   8.005   9.579  15.673  0.1706 -0.2451  0.1461
 3863W        W23397   8.940  15.763  12.653  0.0619 -0.0405  0.0544
 3864W        W23398  17.662   3.361   1.283  0.0994  0.0205 -0.0217
 3865W        W23399  11.187  10.269  15.769  0.1205 -0.0774  0.1208
 3866W        W23400  16.602  12.765  14.236  0.1656  0.1858  0.2407
 3867W        W23401   9.721  17.645   0.948  0.3414 -0.0368  0.0047
 3868W        W23402  15.835  16.010   2.320 -0.0115  0.1052  0.0057
 3869W        W23403   4.798  14.772  12.104 -0.2061 -0.1908 -0.4073
 3870W        W23404  12.984   4.468  11.228  0.1552  0.4453 -0.0603
 3871W        W23405  13.804   2.921  14.920  0.0205 -0.1103  0.0947
 3872W        W23406  10.271  16.745   2.920  0.3490  0.2482  0.0404
 3873W        W23407   8.214   0.262   4.310  0.3019 -0.2103  0.2132
 3874W        W23408   7.007  13.323   1.299  0.1621 -0.1763 -0.0456
 3875W        W23409   8.699  15.571   0.932 -0.3021  0.1783  0.0052
 3876W        W23410  14.427  11.146  11.442  0.0502  0.0300 -0.1302
 3877W        W23411  16.286   5.249   1.593 -0.1147  0.0065 -0.0158
 3878W        W23412  11.590  16.366   0.033 -0.1551  0.2180 -0.0689
 3879W        W23413  10.947  16.030   2.401 -0.2107  0.2140  0.0385
 3880W        W23414   7.615   0.218   1.335 -0.3898  0.0200 -0.1821
 3881W        W23415   7.250  17.330   3.504 -0.2258 -0.1267 -0.1037
 3882W        W23416  10.678  12.663  13.753  0.0835  0.2625  0.0950
 3883W        W23417   5.731   4.050  13.711 -0.4032 -0.2574 -0.1606
 3884W        W23418   6.820   2.432   0.086  0.1528 -0.2749 -0.0686
 3885W        W23419   6.425   4.521   1.983 -0.2947 -0.0070 -0.2569
 3886W        W23420   7.203   6.761   2.209  0.2735 -0.0353 -0.3556
 3887W        W23421   3.214  16.227  15.248 -0.0987  0.0661  0.2337
 3888W        W23422  14.323   9.818   2.103 -0.3436  0.2507  0.1518
 3889W        W23423   9.491   0.474  12.178  0.3349 -0.1909  0.0745
 3890W        W23424  10.456   3.200  15.280 -0.1145 -0.0232 -0.0995
 3891W        W23425  10.339   4.127   2.641  0.2033  0.1641 -0.0366
 3892W        W23426   7.006   0.444  14.700  0.0371  0.1558  0.0291
 3893W        W23427   0.740   8.341  14.222 -0.3596  0.0950  0.0057
 3894W        W23428   0.438   1.992  15.410  0.0848 -0.1294  0.0262
 3895W        W23429  15.057   9.240   0.574 -0.1434 -0.2708  0.0527
 3896W        W23430  13.752   1.074   0.780 -0.2151  0.3201 -0.0391
 3897W        W23431   5.933   8.850   4.119  0.2135 -0.2184 -0.0311
 3898W        W23432   0.092  18.389  13.376 -0.2902  0.2245  0.1707
 3899W        W23433  15.095  16.791   3.097  0.1663  0.0289 -0.4038
 3900W        W23434   3.410   8.440   3.125 -0.1084  0.0431  0.1480
 3901W        W23435   3.584  13.575   0.559  0.0502 -0.0731  0.0832
 3902W        W23436  10.759   6.181  12.352 -0.0998 -0.1706 -0.3005
 3903W        W23437   4.100   6.507   4.117  0.1103  0.3994 -0.1503
 3904W        W23438   1.638   4.911   0.874  0.3515  0.1970  0.1105
 3905W        W23439  11.514   4.213  12.859 -0.0864  0.2873 -0.2387
 3906W        W23440  12.930   5.746  15.098 -0.0511  0.4011  0.0035
 3907W        W23441   1.009   9.614  15.784 -0.0557 -0.1060 -0.0546
 3908W        W23442   3.042  15.375   1.558 -0.4358  0.1595 -0.0574
 3909W        W23443   6.802   7.717  15.058 -0.1283 -0.0466  0.0038
 3910W        W23444   9.601  12.822  15.446 -0.2332  0.0966 -0.0686
 3911W        W23445  10.069  14.350   4.104 -0.1406  0.0460  0.1985
 3912W        W23446  13.187  15.273   3.451 -0.0569 -0.1543  0.2096
 3913W        W23447   8.031  10.681   0.335  0.0044 -0.0514 -0.0665
 3914W        W23448   9.803   5.282  12.780 -0.0340  0.2323  0.1944
 3915W        W23449  10.651   5.263   3.381  0.0905  0.0735  0.0623
 3916W        W23450   3.202  13.796  11.690  0.0892 -0.3296 -0.2134
 3917W        W23451  16.608  15.108  13.998 -0.1123  0.2706 -0.2268
 3918W        W23452  14.482   4.179  12.202  0.2569  0.4196  0.2778
 3919W        W23453   5.430   5.259  11.972 -0.2107 -0.0929 -0.2033
 3920W        W23454   6.594  12.033   5.009  0.1660 -0.0355 -0.0424
 3921W        W23455   1.194  10.757  12.545 -0.2508 -0.1758  0.0216
 3922W        W23456  12.972  10.102   4.066  0.1504 -0.0144 -0.2346
 3923W        W23457   7.002  16.035  15.589 -0.0497 -0.0015  0.0657
 3924W        W23458   6.955  16.997   0.246  0.0630 -0.0211 -0.3046
 3925W        W23459   0.865   0.222  14.005 -0.0778 -0.3286  0.0828
 3926W        W23460  14.639  11.151  15.538  0.0061  0.0038  0.2566
 3927W        W23461   5.816  15.380  11.776  0.1310 -0.1134 -0.0616
 3928W        W23462  11.323   4.078   4.309 -0.0371  0.0660  0.1659
 3929W        W23463   0.769  15.733   3.515 -0.0230  0.2057  0.0154
 3930W        W23464   0.439   6.022  12.474  0.1117  0.0999 -0.1265
 3931W        W23465   3.616   1.561   5.710 -0.2315  0.0029 -0.1632
 3932W        W23466   4.566  17.195  13.762  0.1729 -0.0788  0.0672
 3933W        W23467  14.647  17.612   0.662 -0.0447  0.1161  0.0939
 3934W        W23468   7.746   3.216   2.346  0.1260 -0.1669 -0.0143
 3935W        W23469   9.747  11.909  15.520 -0.1379  0.1932 -0.0209
 3936W        W23470   7.204   0.524   0.074 -0.5041 -0.1436 -0.0294
 3937W        W23471  13.596  10.726  11.815 -0.0394  0.2655 -0.0279
 3938W        W23472   1.722   4.255   2.681  0.0580 -0.0123 -0.0503
 3939W        W23473  15.334  11.385   2.901  0.0504 -0.0058 -0.1157
 3940W        W23474   8.548  12.822  15.484 -0.2872  0.1483 -0.0593
 3941W        W23475  11.675   0.178  14.674  0.0852 -0.0578 -0.0382
 3942W        W23476   8.073   5.482  15.739 -0.1064  0.1128  0.0586
 3943W        W23477  15.394   1.541  15.607  0.0295 -0.0519 -0.2979
 3944W        W23478  15.180   8.347   3.129 -0.1097 -0.1813  0.0867
 3945W        W23479  13.636  13.671  14.836  0.0103 -0.0378 -0.0968
 3946W        W23480  12.229  13.275  14.958 -0.0040 -0.1216  0.2439
 3947W        W23481  10.582   9.033  11.280  0.1452  0.3685  0.1976
 3948W        W23482   0.773  14.013   2.774  0.0853  0.1589  0.0442
 3949W        W23483   4.619  13.230   1.834  0.0213  0.0103  0.1683
 3950W        W23484   2.061   4.255   0.538 -0.1150 -0.2141 -0.1810
 3951W        W23485  13.703   0.040  12.396 -0.1445 -0.0370 -0.0796
 3952W        W23486  10.129   6.182   0.683 -0.0128  0.0509  0.1254
 3953W        W23487  15.582   2.653   3.957  0.0805 -0.1945  0.2030
 3954W        W23488  12.319  15.644   1.134 -0.2542  0.0100  0.3919
 3955W        W23489   2.738  16.796  13.272  0.1805  0.1416  0.0435
 3956W        W23490   7.162   3.822   4.062 -0.1074 -0.1670  0.1047
 3957W        W23491  10.107  10.553  15.323 -0.2537  0.2163  0.1696
 3958W        W23492  16.876   0.124  14.570  0.0455  0.2235 -0.0704
 3959W        W23493  12.318   7.539  15.757  0.2581  0.0861 -0.2623
 3960W        W23494  13.055   0.863  14.647  0.0020  0.4078 -0.3897
 3961W        W23495  15.699  15.420  13.045 -0.2052  0.2530  0.2277
 3962W        W23496   4.054  18.038  12.881  0.2362 -0.1211 -0.0396
 3963W        W23497  14.848  12.339  13.773  0.0972  0.0864  0.0465
 3964W        W23498  12.753   7.278   4.021 -0.2169  0.2641 -0.0867
 3965W        W23499   2.563   4.022   5.310 -0.0333 -0.3073 -0.1819
 3966W        W23500  15.865   6.338  15.009  0.0613  0.3214 -0.1630
 3967W        W23501  12.103  10.195   0.235 -0.1670  0.2991  0.0898
 3968W        W23502  17.738   2.641  13.051 -0.2014 -0.4723  0.2036
 3969W        W23503  17.244   0.126  12.439 -0.0720 -0.4293  0.0890
 3970W        W23504  16.709  16.266   1.823 -0.3182  0.0014  0.2579
 3971W        W23505   8.186  15.435  12.963 -0.0710  0.0817  0.0349
 3972W        W23506   0.697   4.574   2.685  0.0928  0.3131  0.2495
 3973W        W23507  16.297  15.796   2.072 -0.3156  0.1984  0.0153
 3974W        W23508  16.514  17.427   0.882 -0.0303 -0.0085 -0.0705
 3975W        W23509   7.427  10.417   3.872  0.0584  0.0125  0.0546
 3976W        W23510  12.336  16.745  13.039 -0.1141  0.0897 -0.1679
 3977W        W23511   5.715   8.390   2.670 -0.2762  0.1468 -0.1044
 3978W        W23512  15.504   3.025   5.131  0.1206 -0.2281 -0.1376
 3979W        W23513  18.314  10.443   3.141 -0.1079  0.4351 -0.0203
 3980W        W23514  16.225  17.805   0.606  0.0913  0.4135 -0.0320
 3981W        W23515   5.207  13.055  15.719  0.0951 -0.0774 -0.1947
 3982W        W23516  14.508  14.251  13.720  0.1023 -0.0995 -0.0064
 3983W        W23517  17.990   2.577   1.513  0.0084  0.0194  0.1749
 3984W        W23518  16.789   0.942  14.925  0.0771  0.0500 -0.2878
 3985W        W23519   5.271  13.953  11.247 -0.2891  0.0507  0.1846
 3986W        W23520   9.151  15.334  12.573 -0.0206  0.0135 -0.0384
 3987W        W23521   2.938   2.127  11.430  0.0692 -0.2041  0.1007
 3988W        W23522   2.187  11.246   3.422 -0.2984  0.1306 -0.2234
 3989W        W23523   1.773  10.073   1.286  0.1970 -0.0204  0.1273
 3990W        W23524  12.144   7.493  12.030 -0.4082  0.0199 -0.0697
 3991W        W23525  16.286  13.629  15.689 -0.2259  0.1817 -0.0085
 3992W        W23526   2.945   6.977   2.031  0.0564 -0.1327  0.3394
 3993W        W23527  14.213   1.445   3.802 -0.3035 -0.2413  0.3994
 3994W        W23528   6.667   4.316  15.635  0.1440  0.0796  0.2398
 3995W        W23529  11.295  13.873   3.241  0.0873 -0.1023 -0.0220
 3996W        W23530   8.398  16.669   4.366 -0.0142  0.0738  0.3215
 3997W        W23531   5.649   2.346   2.919  0.2094  0.2019  0.2175
 3998W        W23532   2.929   7.911  13.505  0.2462  0.0464 -0.1312
 3999W        W23533   5.973   3.695  14.496  0.1286  0.0989  0.0105
 4000W        W23534   3.335  13.820   2.175 -0.1776  0.2849  0.1721
 4001W        W23535   3.638   0.463   2.911 -0.0434 -0.1426  0.0858
 4002W        W23536  16.639   6.130  15.257  0.1343  0.0140 -0.2102
 4003W        W23537   5.828  16.378   4.758  0.1507  0.1014  0.0298
 4004W        W23538  12.082   1.671   4.829  0.0221 -0.0842 -0.0071
 4005W        W23539   5.754   4.916   0.296 -0.2622  0.0009  0.0192
 4006W        W23540   0.015   9.062   0.452  0.0081 -0.1739 -0.0305
 4007W        W23541  12.645   4.332   3.958 -0.3080 -0.2322  0.0399
 4008W        W23542   5.668   7.000   4.567  0.0287 -0.0061  0.1394
 4009W        W23543  17.010   3.948   3.660 -0.2814  0.1248  0.2817
 4010W        W23544   9.066   8.426  12.354  0.1539  0.0451 -0.0200
 4011W        W23545  13.972   8.772  14.863  0.1094 -0.0518 -0.0425
 4012W        W23546   7.093   9.315   4.016  0.0737  0.1707  0.1433
 4013W        W23547  15.697  11.115  11.628  0.3998  0.0111  0.2414
 4014W        W23548  16.147  10.765   3.046  0.3949 -0.1881 -0.1315
 4015W        W23549   0.422   2.615  14.755 -0.1340 -0.0343 -0.0864
 4016W        W23550   0.716  13.524  12.302 -0.1271 -0.0493  0.1389
 4017W        W23551  15.084   1.149   1.360  0.1550  0.0049 -0.1619
 4018W        W23552   0.769   3.274   1.169 -0.3009 -0.0517  0.0875
 4019W        W23553   9.684  16.263  15.626  0.1028  0.1288  0.1436
 4020W        W23554  10.430   6.344  12.028  0.1155  0.0453 -0.1888
 4021W        W23555   7.649   8.092  12.996 -0.3048  0.1397 -0.3177
 4022W        W23556   1.740   0.015   1.620  0.3546 -0.0028  0.0471
 4023W        W23557   8.872   4.476  13.882  0.2999 -0.0950  0.0717
 4024W        W23558  14.594   6.491  12.147 -0.1020 -0.0372  0.0920
 4025W        W23559   0.870   2.458   2.344  0.3123  0.0395 -0.3401
 4026W        W23560  13.991   4.842  11.435  0.0322 -0.1201  0.1699
 4027W        W23561   1.067  12.481   3.095  0.1794  0.2227 -0.1959
 4028W        W23562  10.656  12.542  14.275  0.1774 -0.0953 -0.0507
 4029W        W23563  12.985   7.834  11.247  0.1348  0.1924  0.1941
 4030W        W23564   0.545   7.825   4.167  0.2411  0.1907  0.1888
 4031W        W23565   9.687   8.380   2.084 -0.1465  0.1736  0.0260
 4032W        W23566   7.973  17.804   4.490  0.0347  0.0463 -0.1087
 4033W        W23567   6.955   5.387  13.731 -0.0863 -0.2701 -0.1063
 4034W        W23568   2.129  10.718  15.549  0.1761 -0.0281 -0.0815
 4035W        W23569  15.727  13.186   4.385 -0.0826  0.3399 -0.0859
 4036W        W23570  16.613  10.925   0.867  0.3647  0.1778 -0.0590
 4037W        W23571   8.762  11.033   2.537 -0.1928  0.0437  0.0797
 4038W        W23572   6.150   3.671   0.143  0.1421  0.1553 -0.1598
 4039W        W23573  15.887  13.560   4.714 -0.0746 -0.3409  0.0672
 4040W        W23574   9.362   2.931   2.924  0.0977  0.3736 -0.2127
 4041W        W23575  18.091   1.284   2.058  0.0692  0.0738  0.0061
 4042W        W23576  17.880  15.977  13.084 -0.1487 -0.0617 -0.1599
 4043W        W23577  17.771  10.872  11.434  0.4985  0.0817 -0.1123
 4044W        W23578   8.147   6.404  10.572  0.1790 -0.0238 -0.2433
 4045W        W23579  12.176   4.909   2.335 -0.0110  0.0175 -0.0919
 4046W        W23580   3.103   2.486  15.228  0.2774 -0.2708  0.1234
 4047W        W23581   0.857   2.971  12.886  0.2002  0.0466  0.0740
 4048W        W23582   3.644   0.605   4.408  0.0951  0.2598 -0.2887
 4049W        W23583   0.903  16.736  11.628  0.3528 -0.1456 -0.1175
 4050W        W23584  13.803  12.641  11.755  0.1326  0.1977 -0.1062
 4051W        W23585  12.557  10.598   4.596  0.2942 -0.1849  0.0452
 4052W        W23586  14.582  11.401   2.116 -0.0843  0.1326  0.3720
 4053W        W23587  11.489  10.711  13.304  0.0684  0.0505 -0.3750
 4054W        W23588  13.411   8.413  11.075  0.0790 -0.0094  0.0423
 4055W        W23589   5.563  17.854   1.794  0.4301 -0.0184 -0.0718
 4056W        W23590  13.949  18.006  13.531  0.0036 -0.0959  0.1279
 4057W        W23591   9.479   8.478  13.037 -0.1806  0.2136 -0.1059
 4058W        W23592   6.359   8.158   4.063 -0.0703 -0.1633 -0.0578
 4059W        W23593  15.794   5.236  11.113 -0.0776 -0.0409 -0.0325
 4060W        W23594  11.208   1.511   4.945 -0.2202  0.1131  0.1675
 4061W        W23595   9.218   4.553   4.257 -0.0758 -0.1532 -0.2133
 4062W        W23596   2.295  17.776   3.009 -0.0796  0.1096 -0.2119
 4063W        W23597  17.700  11.174   1.351  0.1522  0.1031  0.0497
 4064W        W23598   7.131   5.075  15.562 -0.2720  0.1518  0.0918
 4065W        W23599  17.528   8.584  13.140 -0.2911 -0.0613  0.0910
 4066W        W23600  15.092  15.017   0.218  0.0271 -0.0279  0.0023
 4067W        W23601   4.376  14.003   2.994 -0.1006 -0.1141 -0.0248
 4068W        W23602  15.776   2.945   1.705 -0.0665 -0.2816  0.1107
 4069W        W23603   2.652  14.149   0.600  0.0589  0.0093 -0.0798
 4070W        W23604  10.857  12.262   3.227  0.1659 -0.0725  0.2112
 4071W        W23605   1.371   2.182   2.152  0.4141 -0.1576  0.1771
 4072W        W23606  10.846  12.041  13.807 -0.3858 -0.1956 -0.2594
 4073W        W23607   4.655  14.103  12.663 -0.0436  0.1170 -0.0023
 4074W        W23608   0.122   4.305  11.850 -0.2045  0.1597  0.0154
 4075W        W23609   1.652   3.898  11.342  0.0275  0.0747 -0.3436
 4076W        W23610   4.193   9.448  11.192 -0.2754  0.3358  0.0718
 4077W        W23611   7.430   0.619  14.491 -0.2260 -0.0292 -0.2490
 4078W        W23612  10.528  14.596   1.799 -0.0574 -0.2572  0.0133
 4079W        W23613   9.337  11.453   4.228 -0.1590 -0.1027 -0.1425
 4080W        W23614  10.096  14.338   1.494 -0.3901  0.0894  0.2108
 4081W        W23615   2.285   8.751  15.295  0.0074  0.0296 -0.2631
 4082W        W23616  16.030  15.435   3.739 -0.3652  0.0384  0.0042
 4083W        W23617  18.089  14.404  14.195  0.3339 -0.0152 -0.2204
 4084W        W23618  14.713   2.182  14.944  0.1814  0.4355 -0.0908
 4085W        W23619   2.777   0.972   4.399  0.0522 -0.0018 -0.1337
 4086W        W23620   4.129   4.370  12.104 -0.1328 -0.0973  0.0570
 4087W        W23621   1.621   2.572  14.576 -0.3044  0.4765 -0.3001
 4088W        W23622  17.653   3.590  14.325  0.4737 -0.1309 -0.1708
 4089W        W23623   9.499   0.476   4.293  0.2917 -0.0349  0.0927
 4090W        W23624   2.470   2.742   1.241 -0.4261  0.4719  0.1748
 4091W        W23625  10.186   0.227   3.297 -0.3640  0.3534  0.1830
 4092W        W23626   3.074  13.256  14.533 -0.2181  0.0777  0.2756
 4093W        W23627  13.908  13.450   0.776 -0.0224 -0.0040  0.1082
 4094W        W23628  10.055  12.727  13.554  0.0757  0.0113  0.2512
 4095W        W23629  15.472   7.011  15.590  0.1418 -0.2368 -0.1043
 4096W        W23630   0.672   5.793  15.403 -0.0411 -0.0330  0.0734
 4097W        W23631   6.243   0.302   1.300 -0.3836 -0.0968 -0.2066
 4098W        W23632  16.856   7.975  15.746 -0.1439  0.1421  0.0409
 4099W        W23633  17.988  17.751  12.612 -0.1972 -0.0990 -0.1005
 4100W        W23634   7.328  11.170  11.642  0.3347  0.0829  0.3583
 4101W        W23635   8.675   3.523   1.509 -0.1023 -0.3114 -0.1508
 4102W        W23636   3.226   3.165   4.442  0.1640 -0.0298 -0.2942
 4103W        W23637  17.190  14.112   0.111 -0.0372 -0.0207 -0.3508
 4104W        W23638   8.265  14.770   2.149  0.0967  0.0385 -0.4703
 4105W        W23639   8.974   6.072   4.743 -0.0395 -0.1504 -0.2477
 4106W        W23640   4.827   6.618  14.362 -0.1627  0.1775 -0.2690
 4107W        W23641  12.442  17.711  11.603 -0.1532 -0.2106 -0.2602
 4108W        W23642  11.244  12.852   4.512  0.0849 -0.0433 -0.3034
 4109W        W23643  10.687   7.136  13.565 -0.0556 -0.2743 -0.1449
 4110W        W23644  11.650   8.321  11.414 -0.3222 -0.1195  0.0807
 4111W        W23645  12.668   0.690   4.287  0.1767  0.0511  0.2954
 4112W        W23646   5.299   5.667   0.975 -0.0197 -0.1207  0.0772
 4113W        W23647  13.238  13.828  13.754  0.2099  0.0675 -0.1817
 4114W        W23648   6.726  14.259  11.457 -0.1484  0.1275 -0.0754
 4115W        W23649  16.997  13.777   0.441  0.0887  0.0790  0.2631
 4116W        W23650   0.053  17.694   4.669 -0.0101  0.1807 -0.1171
 4117W        W23651  13.012  15.481  13.552 -0.1143 -0.0830 -0.2022
 4118W        W23652   4.398   0.407  13.041  0.0863  0.0616 -0.1128
 4119W        W23653   9.518   8.573   1.084 -0.1966  0.0403  0.3183
 4120W        W23654  10.347  13.630   0.825  0.0803 -0.3284 -0.1745
 4121W        W23655   7.454  14.537   4.598 -0.1099  0.1361  0.3574
 4122W        W23656  10.504  16.464   0.597 -0.2537 -0.0440  0.1313
 4123W        W23657  12.436   1.897   4.133 -0.1203  0.2409 -0.0756
 4124W        W23658   6.372  16.733   2.077 -0.0038 -0.2030 -0.1987
 4125W        W23659   6.168   4.780  10.957  0.0808 -0.0848  0.3985
 4126W        W23660   6.590   5.724  12.979  0.0480 -0.1683  0.2298
 4127W        W23661  13.569  12.450  13.413 -0.0281  0.2326 -0.0144
 4128W        W23662   3.812  10.741   3.380  0.2742  0.1234 -0.0611
 4129W        W23663  14.131   0.857   2.535  0.0309 -0.2818  0.0211
 4130W        W23664  14.548  17.420  12.498  0.4062 -0.1692 -0.1351
 4131W        W23665  11.839   8.914   1.290  0.0478  0.0060 -0.0547
 4132W        W23666  10.811   4.298   0.906 -0.0493  0.0956 -0.2663
 4133W        W23667  11.778   3.849  12.095 -0.2063  0.0393  0.1368
 4134W        W23668   4.292   6.860   0.821  0.0344 -0.2641 -0.1732
 4135W        W23669   6.835   3.008  15.421  0.0504 -0.1665  0.3272
 4136W        W23670   7.463   8.987   4.132 -0.4131 -0.0293 -0.0487
 4137W        W23671  16.312  11.026   1.454  0.2694  0.0068  0.1485
 4138W        W23672   4.572  14.395  14.917  0.0209 -0.2579 -0.1873
 4139W        W23673  16.879   2.313  14.800  0.1676  0.0674  0.3403
 4140W        W23674  14.190   1.815  11.931 -0.1831 -0.0536  0.1209
 4141W        W23675   9.137   7.290  12.780  0.1848  0.1935 -0.0307
 4142W        W23676   1.523   5.702  13.505 -0.4912  0.5780 -0.0884
 4143W        W23677   2.263   0.555  11.882  0.3151 -0.0892  0.2034
 4144W        W23678   9.908  13.232   2.827  0.2061  0.1764  0.3734
 4145W        W23679   3.351   3.062  12.451 -0.2861  0.0948 -0.1583
 4146W        W23680   6.099   0.522  14.237  0.1916 -0.0007 -0.2037
 4147W        W23681   6.172   2.762   2.214 -0.0679 -0.1482  0.2550
 4148W        W23682  13.590   2.294  12.718 -0.0940 -0.1249  0.2385
 4149W        W23683  12.765   7.736   1.764  0.0251  0.1567  0.1731
 4150W        W23684   8.844   9.757   2.013  0.0780 -0.0038 -0.0267
 4151W        W23685   4.020   8.022  15.092 -0.0682  0.2181  0.1931
 4152W        W23686  13.880  11.196  12.618  0.1832  0.2408  0.1389
 4153W        W23687   2.611   5.054  12.315 -0.1773 -0.2286  0.1291
 4154W        W23688   4.047  15.422   3.122  0.1619  0.0930 -0.1293
 4155W        W23689  11.902   4.277  14.124  0.3877  0.2378  0.1610
 4156W        W23690  17.570  13.745  11.504 -0.3577 -0.0129 -0.0832
 4157W        W23691   7.972  11.407  13.409 -0.1279  0.2184 -0.0784
 4158W        W23692   9.462  13.873   2.961  0.1280  0.2411  0.0788
 4159W        W23693   0.302  12.905  14.911  0.3340  0.4360  0.1357
 4160W        W23694  16.741  13.113   0.572 -0.0809  0.0526  0.0139
 4161W        W23695  15.155  17.454   1.027 -0.0624  0.0697  0.0831
 4162W        W23696   3.887  10.329  13.725  0.1361 -0.1076  0.0169
 4163W        W23697   0.093   5.168  11.444 -0.1135  0.2861  0.0449
 4164W        W23698  10.037  15.057  14.135 -0.0967  0.2734 -0.1072
 4165W        W23699  16.004  14.519  15.709 -0.1112  0.1432 -0.1301
 4166W        W23700  10.022  13.114   0.798  0.3366  0.0974  0.0082
 4167W        W23701   3.045   6.551  15.357  0.1980 -0.0167  0.1751
 4168W        W23702   9.955   6.074   4.836 -0.0559 -0.3390 -0.0761
 4169W        W23703   6.023   0.566   5.117 -0.0243 -0.0881  0.0388
 4170W        W23704   4.477  17.697   0.098  0.1465  0.1259  0.1365
 4171W        W23705  10.913  11.415   0.797  0.1896  0.1163  0.1350
 4172W        W23706   4.515   6.257  11.422 -0.0302 -0.1290  0.0880
 4173W        W23707  10.245   4.397  15.752  0.1317  0.0514 -0.1187
 4174W        W23708  16.260   4.549   3.537 -0.0268 -0.2189 -0.2167
 4175W        W23709  16.007  15.653   0.472  0.1807 -0.2921  0.2382
 4176W        W23710   7.797   1.939   2.957 -0.2837 -0.1605 -0.0834
 4177W        W23711   8.144   5.835   4.009  0.0963  0.2589 -0.0446
 4178W        W23712   7.839   4.347  14.952 -0.1924  0.0677 -0.1379
 4179W        W23713   9.834  17.720  13.035 -0.2641  0.0980 -0.3002
 4180W        W23714   0.850  13.156  14.813 -0.0412  0.1626  0.2063
 4181W        W23715   0.923  11.976  15.463 -0.2911 -0.3753 -0.2190
 4182W        W23716   1.192  10.576   3.041  0.1655 -0.0095 -0.0712
 4183W        W23717  11.341   6.060   0.555  0.0165 -0.0123 -0.0787
 4184W        W23718  16.593  15.607  15.763  0.1408  0.2145 -0.0723
 4185W        W23719  14.118  16.614   2.308  0.0225  0.2908  0.2838
 4186W        W23720   7.998  13.387  15.767 -0.1624 -0.4989 -0.3031
 4187W        W23721   6.481  17.046  11.721 -0.0072  0.0169 -0.0911
 4188W        W23722   2.947   8.880  11.213  0.2205 -0.0998 -0.0215
 4189W        W23723  12.292  14.164  12.794 -0.1362 -0.0198 -0.1831
 4190W        W23724   8.727  10.051   3.594 -0.1009  0.1818 -0.3222
 4191W        W23725   4.457  11.866   1.541  0.0015 -0.0447  0.0939
 4192W        W23726  17.019   8.901   1.425  0.1668  0.3880  0.1186
 4193W        W23727  10.450  13.870   0.207  0.2957 -0.0917  0.3204
 4194W        W23728   8.141  15.670  15.799  0.2558 -0.1606  0.1445
 4195W        W23729   4.696   3.179   1.905  0.1068 -0.1530  0.3528
 4196W        W23730   4.363   2.074  14.089  0.0907 -0.0992  0.2468
 4197W        W23731  14.316   2.990  14.578 -0.0325 -0.0418  0.0377
 4198W        W23732  12.570   6.984   0.692  0.0330 -0.0332 -0.3170
 4199W        W23733  13.867   0.545  10.355 -0.0097  0.2020 -0.1364
 4200W        W23734   6.443   5.435   0.739  0.1162  0.4563  0.0656
 4201W        W23735   9.160   5.841  14.434  0.3275  0.2108 -0.0741
 4202W        W23736  18.275   0.819  12.349  0.4107 -0.3514  0.4014
 4203W        W23737   9.211   8.064  13.575  0.0492  0.1690 -0.0106
 4204W        W23738  18.296   6.119  15.669 -0.0661  0.3873 -0.1096
 4205W        W23739  14.306  14.090   0.250  0.2485  0.2916 -0.1083
 4206W        W23740  12.394   7.307  14.942 -0.0927  0.1074 -0.0452
 4207W        W23741   7.963   2.408   1.755  0.0104  0.1692  0.1697
 4208W        W23742   9.170  11.911  13.390  0.1143  0.0619 -0.0182
 4209W        W23743  16.276  11.464   2.402 -0.2344  0.0342 -0.1619
 4210W        W23744  11.741   7.312   0.522 -0.0858 -0.2031 -0.0139
 4211W        W23745  16.717  12.631   0.122 -0.1332  0.0161  0.1759
 4212W        W23746  17.967  17.596   4.395 -0.0482  0.0493  0.0984
 4213W        W23747  14.651   3.323   5.225 -0.1053 -0.3603 -0.1757
 4214W        W23748   0.218  15.179   0.118 -0.0158  0.0965 -0.0350
 4215W        W23749   7.888   4.828  11.411  0.2574  0.0260  0.1128
 4216W        W23750   0.763   6.240   2.592  0.1075  0.1394 -0.0499
 4217W        W23751  15.490   6.620  15.263  0.1684  0.0191 -0.1497
 4218W        W23752   9.043  10.681  13.869 -0.0541  0.1879  0.0961
 4219W        W23753   1.746  10.958  11.537  0.0344  0.1179 -0.0409
 4220W        W23754   3.456  11.206   3.789 -0.2058  0.0666  0.1335
 4221W        W23755  15.179  11.174  13.000  0.5027 -0.0072 -0.0005
 4222W        W23756   8.130   5.946   0.149  0.0569  0.1880 -0.2068
 4223W        W23757  14.675  17.940  15.786  0.1974 -0.1210  0.2067
 4224W        W23758   5.007   2.605  13.803 -0.0702  0.1160  0.0911
 4225W        W23759   8.566   4.413   3.519 -0.1228 -0.0195 -0.3950
 4226W        W23760   7.531  11.904  14.602 -0.0133  0.0279  0.0835
 4227W        W23761  15.680  15.992   0.795  0.1860 -0.4423 -0.0916
 4228W        W23762   5.682   2.128  15.056  0.3420  0.1187 -0.1412
 4229W        W23763   0.525  13.894  11.629 -0.1969  0.0729 -0.1840
 4230W        W23764   5.251  16.198   1.062 -0.1146 -0.1266 -0.0001
 4231W        W23765   9.980  10.548  14.827 -0.0130 -0.4224 -0.3827
 4232W        W23766   7.822  14.193   0.526  0.0148 -0.0908 -0.1932
 4233W        W23767  14.899  15.031   4.899 -0.0385 -0.1115  0.0280
 4234W        W23768  15.482  16.182   1.941 -0.0048  0.0171  0.0663
 4235W        W23769   8.773  13.938  13.903  0.1483 -0.1721 -0.0312
 4236W        W23770   5.223   2.010   3.598  0.0900 -0.1981 -0.4539
 4237W        W23771   4.586   5.956  12.227 -0.0886  0.0965 -0.0201
 4238W        W23772  14.772   9.973  10.220 -0.0565  0.3619  0.3366
 4239W        W23773  10.520   0.463  13.004  0.1775  0.3254 -0.3687
 4240W        W23774   1.302  16.780   4.789  0.3876 -0.1834 -0.0018
 4241W        W23775  11.931  16.250  15.533  0.1111 -0.0299 -0.3281
 4242W        W23776  13.539   1.011  15.170  0.0067 -0.1607 -0.0487
 4243W        W23777  12.155  16.903   0.202 -0.1241 -0.1378 -0.1446
 4244W        W23778   9.043   1.938  12.511 -0.1521  0.0654 -0.0901
 4245W        W23779   9.718   5.872  11.788  0.2224  0.1734 -0.1070
 4246W        W23780   9.325   3.356  14.330  0.2475  0.1700  0.0837
 4247W        W23781   4.462  11.336  14.620 -0.3275 -0.0521 -0.0347
 4248W        W23782   5.106  15.413   1.394 -0.0490  0.1939  0.2145
 4249W        W23783   2.063  10.113  14.065  0.0401 -0.1330  0.3596
 4250W        W23784   3.701  15.450   0.824  0.1375 -0.0325  0.0497
 4251W        W23785   1.068  14.313   2.978  0.0722 -0.2368  0.0703
 4252W        W23786   6.189  15.338  15.025  0.0396  0.1399 -0.1017
 4253W        W23787   1.980   3.677  15.109  0.1633 -0.0972 -0.0052
 4254W        W23788   6.886  11.613  15.757 -0.2237 -0.1290 -0.0114
 4255W        W23789   9.701  12.499  14.682  0.2611 -0.2230 -0.2791
 4256W        W23790   8.715   9.792   1.072  0.0597 -0.0450 -0.0576
 4257W        W23791   2.221   3.774  13.877 -0.2136  0.2533 -0.1677
 4258W        W23792  15.079  12.767   1.984 -0.0517  0.3665 -0.0916
 4259W        W23793   1.299   5.391   2.822 -0.0628  0.0541 -0.2445
 4260W        W23794  13.048   8.777  15.347  0.0915  0.1269  0.1100
 4261W        W23795  16.824   2.857  15.803 -0.2981  0.0064  0.1987
 4262W        W23796  15.549   2.526   1.731 -0.1419  0.3069 -0.0563
 4263W        W23797  12.990   2.694   0.480  0.0704 -0.2222  0.0706
 4264W        W23798   2.593   9.160  11.499  0.2209 -0.1029 -0.0270
 4265W        W23799  11.041  13.336  14.050 -0.1273  0.1236 -0.1317
 4266W        W23800   2.799  15.517  14.549  0.1200 -0.3111 -0.1841
 4267W        W23801   7.182   2.282  14.971 -0.0191  0.0266  0.2996
 4268W        W23802   4.913  12.722   3.261 -0.1169 -0.2471 -0.0514
 4269W        W23803  13.347  10.892   0.371 -0.0320  0.1148  0.0580
 4270W        W23804   9.864  16.317  13.395 -0.0008 -0.0608  0.1653
 4271W        W23805  17.846   6.406  10.417  0.0808  0.1709 -0.2099
 4272W        W23806   7.743   0.979  13.310  0.1531 -0.0638  0.1355
 4273W        W23807  12.362  15.010  10.915  0.2142 -0.0288 -0.1668
 4274W        W23808   1.031   3.574   2.216  0.1861 -0.0690 -0.0292
 4275W        W23809   3.698  17.646   2.912  0.1437  0.1369 -0.2139
 4276W        W23810   4.841   1.289   3.022  0.4013 -0.1926 -0.1415
 4277W        W23811  15.539  14.482  12.063  0.1317 -0.1960 -0.3275
 4278W        W23812  14.140  16.057   1.601 -0.0639 -0.0942 -0.0365
 4279W        W23813   1.820  15.209   3.414  0.3108  0.2713 -0.2427
 4280W        W23814   7.054   9.056   2.156 -0.1437  0.1640 -0.2871
 4281W        W23815  13.809   3.660   0.029 -0.1778 -0.1509  0.0600
 4282W        W23816  15.667   7.989   0.780  0.0058  0.1624  0.0948
 4283W        W23817  15.263   7.141   0.226  0.0405 -0.0713 -0.1610
 4284W        W23818   9.680  14.321   3.659 -0.2783 -0.0786  0.2758
 4285W        W23819   7.209   2.205   2.055  0.0984 -0.2974 -0.1773
 4286W        W23820  16.085   3.241  13.242 -0.5264  0.1116  0.0993
 4287W        W23821   7.229   4.001   2.169  0.0736 -0.0666 -0.1696
 4288W        W23822   0.550  13.011  12.420  0.1424 -0.1401 -0.0870
 4289W        W23823  14.455   9.379   3.826  0.0764 -0.0257 -0.0774
 4290W        W23824   5.422   1.550   4.193 -0.0123  0.0624  0.1114
 4291W        W23825  16.470   6.860   0.980  0.1160 -0.2335  0.2225
 4292W        W23826   6.237   1.502   4.556  0.2527  0.1960  0.0118
 4293W        W23827  14.519  14.914  11.805 -0.0239  0.1201 -0.0181
 4294W        W23828   7.335   5.575   2.157  0.3316 -0.0665 -0.0703
 4295W        W23829   6.030  18.244   1.209  0.0141  0.0053  0.1045
 4296W        W23830   0.014   2.253   1.768  0.0288 -0.0642 -0.1957
 4297W        W23831  11.054   2.714  12.958 -0.3809 -0.0186 -0.0128
 4298W        W23832   4.644   0.770  13.287  0.2732 -0.0886  0.1551
 4299W        W23833  11.923  11.628  12.521  0.2698 -0.1261 -0.1303
 4300W        W23834   6.949   5.454  14.280  0.0144  0.0299  0.1316
 4301W        W23835   1.201   7.605  12.564  0.1041  0.1776 -0.2590
 4302W        W23836   4.025   8.849   3.037  0.0490  0.1146  0.2655
 4303W        W23837  17.446   1.583  13.768 -0.1987  0.3691  0.0138
 4304W        W23838   5.113  13.636   5.370  0.0449  0.1067 -0.0435
 4305W        W23839   2.406  13.562  13.000 -0.1645  0.2262  0.0456
 4306W        W23840   6.971  15.692   0.672  0.3013 -0.0379 -0.1974
 4307W        W23841   6.862  10.548  10.652  0.2052 -0.0028  0.0516
 4308W        W23842  13.527  13.891   2.410 -0.1187  0.1887 -0.0248
 4309W        W23843   3.639   0.323   0.936  0.3749  0.3842 -0.3461
 4310W        W23844  10.595   7.920  12.234 -0.0509  0.2497 -0.1258
 4311W        W23845   9.742   7.765   1.002 -0.1978  0.0920  0.5382
 4312W        W23846  14.152  16.784   1.121 -0.1168 -0.0463 -0.1307
 4313W        W23847   5.419   3.315  10.840 -0.1935  0.1525  0.2013
 4314W        W23848  14.795   0.770  12.067 -0.1758  0.1150 -0.0744
 4315W        W23849   5.843   5.173  15.728 -0.1387 -0.0503  0.0798
 4316W        W23850   2.077  16.880  15.822  0.1195 -0.1134 -0.1748
 4317W        W23851   5.151  15.211  15.233 -0.0741 -0.3283  0.1573
 4318W        W23852  18.077   9.690  14.255  0.0597 -0.2784 -0.2326
 4319W        W23853   8.313   7.793   4.355 -0.1804 -0.0119 -0.0366
 4320W        W23854  11.505   6.240   2.183 -0.0232 -0.1274 -0.2071
 4321W        W23855  14.165   7.324   0.296 -0.1945 -0.0425 -0.1878
 4322W        W23856  12.391  17.229  11.706 -0.1227  0.0839 -0.1188
 4323W        W23857   3.512   9.056   3.745 -0.0103  0.0342 -0.0843
 4324W        W23858   8.215   9.540  14.084 -0.1753  0.2630 -0.3039
 4325W        W23859   0.648  11.703   0.024 -0.0011  0.2827  0.2560
 4326W        W23860   1.777   4.821   3.968 -0.1150 -0.0224 -0.0212
 4327W        W23861  10.715  13.812  13.100  0.2739  0.2700 -0.1487
 4328W        W23862  13.788  16.773  14.810 -0.1091 -0.1408 -0.0229
 4329W        W23863  12.627   7.217   0.125  0.2781  0.0949 -0.1966
 4330W        W23864   6.331   0.262   2.733 -0.3487  0.1629  0.0832
 4331W        W23865   9.230  15.255  14.916  0.0410 -0.4249  0.0155
 4332W        W23866  17.359  10.812  14.803  0.2104  0.0055  0.2258
 4333W        W23867   1.133   6.812  11.991 -0.1843  0.0666 -0.1773
 4334W        W23868  10.215  13.741  14.349  0.0496 -0.1331 -0.0281
 4335W        W23869  10.299  14.049   2.624  0.0937 -0.2019 -0.2356
 4336W        W23870   0.750  17.130  11.929 -0.1855 -0.2303  0.1460
 4337W        W23871   3.896   8.360  13.719  0.0227  0.3089  0.1435
 4338W        W23872   4.296  12.820   3.836  0.2373 -0.0319  0.1263
 4339W        W23873   4.432   4.318  13.348  0.3445  0.1258 -0.1638
 4340W        W23874  16.783   2.257  12.118 -0.0168  0.0910 -0.0688
 4341W        W23875   7.601  12.747   2.019  0.4034  0.1972 -0.1707
 4342W        W23876  11.877   1.161  14.114  0.4009  0.2957  0.2098
 4343W        W23877   0.318  10.464  11.496 -0.2464  0.0324  0.1722
 4344W        W23878   7.160  17.447  13.853 -0.2057  0.0182  0.0313
 4345W        W23879   0.691   4.888  14.298  0.2332 -0.0432  0.0454
 4346W        W23880   1.221  11.241  13.744 -0.1531  0.0792 -0.0842
 4347W        W23881  15.697   6.754  14.167 -0.0081 -0.4173  0.0274
 4348W        W23882   6.893   8.816   2.902  0.1696  0.2849  0.2324
 4349W        W23883   8.649  14.929  12.462  0.0925 -0.3022  0.0070
 4350W        W23884   2.160   3.540   1.101  0.1488 -0.2633  0.0413
 4351W        W23885  11.405   9.050  12.051  0.1619 -0.1437  0.1353
 4352W        W23886  16.639   0.040   1.104  0.0335  0.0610 -0.4489
 4353W        W23887   1.138  13.513   3.881 -0.0393 -0.1208  0.0903
 4354W        W23888   6.332  17.829  15.657  0.2545  0.2368  0.0736
 4355W        W23889   3.552  16.503  12.949  0.2418  0.0380  0.0210
 4356W        W23890   4.475   4.084   1.928 -0.1184 -0.1465 -0.3102
 4357W        W23891   1.275   9.658  14.248  0.0686  0.0576  0.2574
 4358W        W23892   0.322  14.458   0.878 -0.1811  0.1880  0.1820
 4359W        W23893  10.605   2.040   1.235  0.0243  0.1414 -0.1532
 4360W        W23894   3.345   9.508   3.849 -0.2455 -0.0004 -0.0371
 4361W        W23895  17.226   7.089  14.124  0.1391  0.0519 -0.1710
 4362W        W23896   3.197   2.925  14.817 -0.3812  0.1821  0.0248
 4363W        W23897   4.071   5.147   0.298 -0.1120  0.0937 -0.1019
 4364W        W23898  12.225   5.001  11.917  0.1460 -0.2321  0.2592
 4365W        W23899   9.327  10.152   4.520 -0.3581  0.3260  0.2789
 4366W        W23900  13.868  13.712  11.796 -0.1846 -0.1932 -0.0669
 4367W        W23901  14.590  12.992  12.895  0.1242  0.3154  0.2429
 4368W        W23902   9.175  17.187  12.565 -0.1941  0.0830 -0.0661
 4369W        W23903  14.552  18.063  14.973  0.3982  0.1374  0.0748
 4370W        W23904  18.108   7.481  15.667 -0.0553 -0.0909  0.3626
 4371W        W23905  10.149  17.643   0.070  0.0279 -0.0656 -0.1508
 4372W        W23906  13.619  11.795   2.745 -0.0599 -0.0224  0.0882
 4373W        W23907  13.593  12.521   2.183  0.1854 -0.1067  0.1193
 4374W        W23908   4.653   2.454   0.583 -0.0074 -0.1349 -0.3400
 4375W        W23909  15.976  10.582   0.159 -0.1029  0.1030 -0.0631
 4376W        W23910  11.466  16.547  12.755 -0.0921  0.0581  0.0831
 4377W        W23911  17.752   1.653  15.231  0.0339  0.1049 -0.0251
 4378W        W23912  15.319  12.956   2.958 -0.0012 -0.2780  0.3305
 4379W        W23913  14.770  11.696  13.463 -0.1263  0.0932 -0.0419
 4380W        W23914  11.254  17.321  15.258 -0.2074  0.1285 -0.0866
 4381W        W23915  11.972  13.705   1.785  0.0430  0.0340  0.1631
 4382W        W23916   1.542  15.047  12.684  0.0668 -0.2068 -0.0568
 4383W        W23917   9.055   5.288   4.304  0.1752  0.1660  0.1221
 4384W        W23918   9.037  13.882   2.613  0.0437 -0.0279  0.1351
 4385W        W23919  13.896   8.298  14.884 -0.1578  0.1742 -0.3080
 4386W        W23920   1.679   6.687  12.788 -0.2400  0.0433  0.0955
 4387W        W23921  12.758  10.560  12.668  0.1930 -0.0067 -0.1276
 4388W        W23922   7.977   2.055  13.964 -0.1934  0.1718  0.2665
 4389W        W23923  10.124   2.975   3.650 -0.0280 -0.0990  0.1853
 4390W        W23924   8.186  12.314   0.302 -0.0359  0.1602 -0.0468
 4391W        W23925   3.176  17.528   2.996 -0.0754 -0.2732 -0.2169
 4392W        W23926  10.603   3.912  11.677  0.3145 -0.0592 -0.0011
 4393W        W23927   1.215   1.687  13.743 -0.0857  0.2495  0.3011
 4394W        W23928  12.551   9.502   3.854  0.2333 -0.0025  0.2898
 4395W        W23929   8.754   4.381  12.990  0.0195 -0.0187  0.0048
 4396W        W23930   0.814  10.853   4.436 -0.1688  0.0661 -0.5231
 4397W        W23931  10.923   3.984   6.173  0.1388  0.1497 -0.2447
 4398W        W23932  10.212   9.781   1.800  0.1014 -0.6472  0.2981
 4399W        W23933   6.395   1.050  11.014 -0.0976  0.0817 -0.0791
 4400W        W23934   6.416  10.698  13.310 -0.3079  0.1623  0.1301
 4401W        W23935  16.421   5.452  11.728  0.2663  0.0328  0.2721
 4402W        W23936   1.319  17.980   4.611 -0.0072  0.1880 -0.2081
 4403W        W23937  10.971   1.460  12.520  0.1627  0.0580  0.0826
 4404W        W23938  13.527  11.973  14.190 -0.1185  0.3177  0.0122
 4405W        W23939  17.534   5.122  12.468  0.2254 -0.0798 -0.2600
 4406W        W23940  17.536   7.337  11.881  0.0376  0.1815  0.0114
 4407W        W23941  16.809  13.659   3.820  0.2841 -0.2358  0.1732
 4408W        W23942  16.469   0.572   2.436  0.1421  0.2693 -0.1965
 4409W        W23943   0.649   0.451  14.573  0.6448 -0.1409 -0.1086
 4410W        W23944  11.379   5.959   1.218 -0.1060  0.3001 -0.1968
 4411W        W23945  17.224   9.157   4.811  0.1328  0.0786 -0.5120
 4412W        W23946   5.816   6.234  11.289  0.1711  0.1467 -0.0133
 4413W        W23947  16.300  14.779   2.750 -0.1426 -0.0324  0.1907
 4414W        W23948  11.435   5.998  13.180  0.1828  0.0679  0.0023
 4415W        W23949  11.778   8.892   3.591  0.0384  0.0872  0.1683
 4416W        W23950  17.237   9.999  13.823  0.0550  0.0873  0.0656
 4417W        W23951  12.878  16.632   1.409 -0.0882  0.2002 -0.1763
 4418W        W23952  17.347   4.662  13.310 -0.1546 -0.0328 -0.1903
 4419W        W23953   7.369  15.543   4.820  0.2194  0.4208 -0.3982
 4420W        W23954   4.396   4.826   2.175 -0.1545 -0.0615 -0.0428
 4421W        W23955  10.729   9.723  15.634 -0.1798 -0.0863  0.0267
 4422W        W23956   4.565  15.447   0.089  0.0635  0.2447 -0.1321
 4423W        W23957   5.631   1.544   0.205  0.0953  0.2195  0.1860
 4424W        W23958  16.490  13.591  13.603 -0.0703  0.2252  0.0317
 4425W        W23959  14.440  14.790   2.099  0.0049  0.3315  0.2345
 4426W        W23960   7.798  15.580  14.511  0.1081 -0.0242 -0.0323
 4427W        W23961  15.184   4.065  12.224  0.0672 -0.1151  0.2473
 4428W        W23962  15.942   5.022   4.375 -0.1062  0.0183 -0.0849
 4429W        W23963   2.145   9.736   9.992 -0.0071  0.1503  0.0212
 4430W        W23964   0.398   6.173   1.725  0.0261 -0.2072 -0.0476
 4431W        W23965   6.685   2.993   1.118  0.0700  0.3830 -0.0266
 4432W        W23966   6.384   2.430   2.513 -0.1693  0.1426  0.0137
 4433W        W23967  17.736  14.684  11.416 -0.0082 -0.1964  0.0562
 4434W        W23968  14.052  11.324  14.252 -0.2046 -0.0949 -0.1816
 4435W        W23969  16.993  15.446  11.748 -0.0811 -0.0440 -0.0264
 4436W        W23970  11.936   4.775  14.956  0.1352 -0.1854  0.0570
 4437W        W23971  15.001  10.497   2.412  0.2528 -0.0668  0.1726
 4438W        W23972   9.003  15.807  14.609  0.1774 -0.1571  0.0445
 4439W        W23973   7.766   0.234   0.174 -0.1133 -0.0008 -0.2527
 4440W        W23974   1.533   5.463   0.023 -0.0777 -0.3582  0.1650
 4441W        W23975  16.784   0.103   4.639 -0.2021  0.0743 -0.2980
 4442W        W23976   9.936  10.986  13.992 -0.1354  0.1116 -0.1447
 4443W        W23977  13.914   7.594   3.905  0.0180 -0.4031  0.0745
 4444W        W23978   3.653  18.315   1.284  0.2784 -0.0917  0.1678
 4445W        W23979  11.880   2.439   4.757  0.2263  0.0416  0.0675
 4446W        W23980   7.289  17.454   4.069  0.0523 -0.1933  0.0807
 4447W        W23981   8.081  16.094   1.523  0.1447  0.0066  0.0534
 4448W        W23982   2.082   7.239  13.641 -0.3157  0.0631  0.4347
 4449W        W23983   3.200  16.496   4.104 -0.3310 -0.1518 -0.0821
 4450W        W23984   7.733   3.724  14.834  0.0072 -0.0798  0.0652
 4451W        W23985   0.274   4.164   2.601 -0.2325 -0.1285 -0.0196
 4452W        W23986  11.712   2.903   2.358 -0.2257  0.3269 -0.1813
 4453W        W23987   3.029   1.004   0.740 -0.1887 -0.2693  0.0555
 4454W        W23988   6.369   6.988   0.208 -0.0685 -0.3227 -0.0858
 4455W        W23989   1.772   0.357  12.512  0.2283 -0.0903 -0.0566
 4456W        W23990  14.081   1.992  13.582  0.1521 -0.2123 -0.0720
 4457W        W23991  15.896  14.495   2.007  0.0396  0.1401  0.1383
 4458W        W23992   4.174  10.408  11.599  0.2086  0.1608  0.1086
 4459W        W23993  10.990  14.317   4.716 -0.1363 -0.2848  0.1381
 4460W        W23994  11.307  14.840   0.347  0.1056 -0.0304  0.1344
 4461W        W23995   0.061  10.059   0.697  0.1968 -0.1115 -0.0965
 4462W        W23996   9.075   0.708   4.378  0.3182 -0.0948  0.0914
 4463W        W23997   8.707   9.800   4.049  0.1497 -0.0371  0.0249
 4464W        W23998  16.248  16.224   3.488 -0.0243  0.0826  0.2042
 4465W        W23999  15.364  17.867   3.222 -0.0327 -0.0097 -0.1679
 4466W        W24000   6.304   7.804  15.324 -0.1487 -0.0097  0.0702
 4467W        W24001  17.208  18.100  13.058 -0.0870 -0.0111  0.2031
 4468W        W24002  13.786   1.400   3.995  0.0077 -0.0749 -0.2006
 4469W        W24003  15.123  14.571  14.303 -0.2107 -0.0387  0.0038
 4470W        W24004   5.890  14.102   0.453 -0.0421 -0.1570  0.0267
 4471W        W24005   5.743  12.421   3.802  0.1819  0.0408 -0.0885
 4472W        W24006   5.613   3.195  11.848 -0.1385  0.0075  0.0307
 4473W        W24007  15.145   5.969   2.241 -0.2066  0.4099  0.3329
 4474W        W24008  10.801  10.073   4.133 -0.1693 -0.3647  0.0939
 4475W        W24009   0.381  17.046   1.046  0.2142  0.0941 -0.0069
 4476W        W24010   4.503  15.440   3.622 -0.1943 -0.4602  0.0132
 4477W        W24011   3.139   9.021   4.146  0.1827 -0.1668  0.1976
 4478W        W24012  12.327  15.733  12.523 -0.4060  0.0275 -0.1013
 4479W        W24013   8.675   3.549  13.373  0.0860 -0.2271 -0.2334
 4480W        W24014  11.626  10.663  12.786 -0.3062 -0.2459  0.2472
 4481W        W24015  11.382  18.130  11.577  0.1514 -0.0353  0.2247
 4482W        W24016  10.885   9.632  13.857 -0.1719  0.1204  0.0930
 4483W        W24017   9.173   3.358   1.374  0.0529 -0.0070 -0.2499
 4484W        W24018  13.720  13.372   2.104  0.1460 -0.1002  0.0101
 4485W        W24019  12.501   4.773   3.695 -0.3928 -0.0114  0.2939
 4486W        W24020  14.596  15.904   2.775 -0.2213 -0.2047  0.1480
 4487W        W24021  10.058  14.605  15.621 -0.0200 -0.2786 -0.2516
 4488W        W24022  10.098   8.655   0.877 -0.2395 -0.1403  0.0457
 4489W        W24023   1.988   2.853   1.095 -0.2058  0.0624  0.1219
 4490W        W24024   3.164   6.686   0.373 -0.2847 -0.2342  0.3182
 4491W        W24025  18.193   5.488   4.183 -0.0401 -0.2571  0.0306
 4492W        W24026  11.469  10.237  14.619  0.2612  0.0053  0.0567
 4493W        W24027   4.839  10.276  15.174  0.2016  0.0678  0.3159
 4494W        W24028  11.537  11.770   2.522 -0.2596 -0.3144  0.2037
 4495W        W24029   4.697  14.940  13.126  0.1757 -0.2225 -0.1582
 4496W        W24030   2.161  17.149   4.770 -0.0348  0.0637  0.1668
 4497W        W24031  12.794   8.915   0.441 -0.1559  0.1347  0.3413
 4498W        W24032   7.128  17.349  11.056 -0.1423  0.0708 -0.0824
 4499W        W24033  16.119   6.693   4.146  0.1601  0.4773 -0.3057
 4500W        W24034  10.012  14.435  13.925 -0.1111 -0.3237 -0.1248
 4501W        W24035  16.310  15.325   2.783  0.3405 -0.0576  0.0381
 4502W        W24036  12.260  12.185   1.661  0.0798 -0.0188 -0.1670
 4503W        W24037  10.795  15.879  12.637  0.1609  0.1286 -0.2287
 4504W        W24038   3.761  14.316   3.029 -0.2474  0.0998  0.2650
 4505W        W24039   3.580   3.729  14.185  0.2100  0.1725  0.0897
 4506W        W24040  15.868   1.788  14.434  0.2253  0.1345 -0.1755
 4507W        W24041   6.080   9.744   3.643  0.0617  0.0904  0.0462
 4508W        W24042  12.764  10.495   1.132 -0.0565  0.1398  0.1322
 4509W        W24043  17.105  12.396   1.008  0.0669 -0.2072  0.0814
 4510W        W24044   8.501  17.098  13.215 -0.3113  0.0167  0.3553
 4511W        W24045   1.255  13.494  11.916  0.4083 -0.0690 -0.1338
 4512W        W24046   4.258  16.541  11.566 -0.0004  0.2855  0.0480
 4513W        W24047   9.407   8.015   1.924  0.0177 -0.0687  0.0685
 4514W        W24048   3.120  17.161   5.111  0.0438 -0.4064  0.1164
 4515W        W24049  17.532   8.812   1.371  0.0545 -0.3514 -0.3442
 4516W        W24050  14.530  15.616  12.830  0.1436 -0.0009  0.3827
 4517W        W24051   9.479   9.750  12.890  0.0889  0.1572  0.1460
 4518W        W24052   4.410   9.633   3.697  0.0939  0.2138  0.0312
 4519W        W24053  17.342   9.729  12.239  0.0313  0.1855  0.0590
 4520W        W24054   9.066  13.959   4.302  0.0501 -0.4054 -0.3749
 4521W        W24055  16.353   5.745  12.162 -0.2070  0.5130  0.1843
 4522W        W24056  16.931  11.750  13.580 -0.0928 -0.1631 -0.1708
 4523W        W24057   8.773  14.510  12.929 -0.1708 -0.0198 -0.3885
 4524W        W24058   4.236  13.397  12.054 -0.0846  0.1301  0.0968
 4525W        W24059   2.582   7.559  14.669  0.0517  0.2561  0.1478
 4526W        W24060   4.307   4.522  12.906 -0.0339  0.3450 -0.1513
 4527W        W24061  11.328   7.432  12.418 -0.1477  0.1932 -0.0162
 4528W        W24062  13.817  10.661   3.111 -0.1189  0.0497  0.1369
 4529W        W24063   0.553  14.402   3.153 -0.0617 -0.1204  0.2600
 4530W        W24064   0.475   3.999   0.624  0.1644 -0.1643 -0.1706
 4531W        W24065  11.955   0.025  11.636  0.1732 -0.5056  0.0726
 4532W        W24066  12.280   7.525   0.998  0.2362  0.2693 -0.2754
 4533W        W24067  13.343   3.332   3.941 -0.0322 -0.0839  0.0467
 4534W        W24068  17.923  14.391   4.082 -0.0301  0.1585 -0.2600
 4535W        W24069  17.314   1.793  14.280 -0.2977 -0.1397  0.3257
 4536W        W24070   5.674  17.285  15.553 -0.1266  0.1823 -0.0398
 4537W        W24071   4.539   5.504  13.983  0.4453  0.0733  0.0205
 4538W        W24072   3.380   1.153   2.045 -0.0715  0.0479 -0.1016
 4539W        W24073   2.369  14.863  11.638  0.1700 -0.2487 -0.0418
 4540W        W24074  17.273  15.112  15.311 -0.0779  0.0140 -0.1739
 4541W        W24075   9.006  13.026  12.049 -0.4127  0.0451  0.1936
 4542W        W24076  14.818  15.346   2.908 -0.0481 -0.3360 -0.2400
 4543W        W24077   5.506  13.784   0.901  0.0861 -0.2163  0.0122
 4544W        W24078   9.026  13.433  15.383 -0.0424 -0.2091 -0.0931
 4545W        W24079   7.193  15.579   3.369  0.3706  0.2099  0.0992
 4546W        W24080   0.415  11.246   0.097 -0.1256 -0.1812 -0.3175
 4547W        W24081   5.186   3.851   4.030 -0.2687 -0.0619 -0.3418
 4548W        W24082  17.728  14.910   0.644  0.2682 -0.2185  0.1077
 4549W        W24083  11.533  12.497   3.697  0.1549 -0.0218 -0.0944
 4550W        W24084  17.949  14.222   1.320 -0.1355 -0.3326  0.2892
 4551W        W24085   5.578   0.631  14.244  0.3446  0.1696 -0.1311
 4552W        W24086   7.367  16.411   3.300 -0.1755 -0.3607  0.0752
 4553W        W24087  14.226   2.510  13.543  0.1679  0.2611 -0.0118
 4554W        W24088   6.437   8.910   3.915  0.0640 -0.1011 -0.3428
 4555W        W24089   7.412  14.977   1.984 -0.1632  0.0394 -0.2117
 4556W        W24090  13.796   0.323   1.429  0.2834 -0.2278 -0.2664
 4557W        W24091  14.764  14.959   3.652 -0.1271 -0.1918 -0.0356
 4558W        W24092  10.393  11.387  13.312 -0.0651 -0.1995  0.1683
 4559W        W24093  11.262  14.286   0.382  0.3128 -0.0802 -0.2499
 4560W        W24094  12.589   6.696  14.315 -0.4284 -0.1328 -0.0949
 4561W        W24095   8.162   1.959  14.594  0.0489  0.2973 -0.1410
 4562W        W24096  11.468  13.937   0.048 -0.1428  0.0707 -0.2112
 4563W        W24097  17.909   7.973  13.968 -0.2144 -0.2279  0.0070
 4564W        W24098  13.943  14.826  11.499  0.3120  0.0555  0.0762
 4565W        W24099   8.572   0.202   3.975 -0.3458 -0.0536  0.1250
 4566W        W24100  14.201  12.006  14.629  0.0128 -0.1108  0.0422
 4567W        W24101  16.289  17.695  14.702  0.3431 -0.1822  0.3728
 4568W        W24102   1.228   3.980  10.461  0.1043  0.2345 -0.0834
 4569W        W24103  14.872  11.879   2.340  0.0105 -0.1078  0.0611
 4570W        W24104  15.524  15.522   1.068  0.1026  0.0098 -0.1197
 4571W        W24105   3.704   4.456  12.974 -0.0582  0.0415  0.0614
 4572W        W24106   8.033   3.294   2.724  0.0085 -0.0470  0.2290
 4573W        W24107  10.358   2.192   2.674  0.0562 -0.1432 -0.0605
 4574W        W24108   2.353   6.546   1.452 -0.2141 -0.0323  0.1311
 4575W        W24109  17.444  12.728   1.182  0.2345  0.1230 -0.0303
 4576W        W24110  13.377   1.607  12.586 -0.2386 -0.5151 -0.1838
 4577W        W24111  11.968  15.524   0.272 -0.1492 -0.0714  0.0420
 4578W        W24112  11.643  12.827   1.687 -0.0432 -0.0688  0.1877
 4579W        W24113  15.356  17.472  13.800  0.0988 -0.0903 -0.2425
 4580W        W24114   3.931   9.940  15.822 -0.2259 -0.1267  0.1126
 4581W        W24115   1.743   3.611   2.738  0.1022 -0.0869 -0.0957
 4582W        W24116   2.425  18.006  11.167 -0.2284 -0.0378 -0.3360
 4583W        W24117   8.285  16.913   2.048  0.0300  0.0546  0.1137
 4584W        W24118  17.377  16.747  12.665 -0.1835  0.0213 -0.0963
 4585W        W24119   0.257  16.598   3.233  0.0897 -0.1987  0.3152
 4586W        W24120   7.558   0.776  11.609 -0.0625  0.0689  0.1832
 4587W        W24121  15.704   3.511   1.318 -0.0992  0.0983 -0.3261
 4588W        W24122  17.070   8.259  12.845 -0.1471 -0.0707 -0.1067
 4589W        W24123   5.521   2.815   3.697 -0.0880 -0.1119  0.0229
 4590W        W24124   1.370   1.086   3.118  0.2616  0.1073  0.0399
 4591W        W24125  10.986  16.671   4.241 -0.2260 -0.2785 -0.2036
 4592W        W24126  17.708  10.072   0.794 -0.0170  0.2193 -0.1930
 4593W        W24127  13.689   8.500  12.174 -0.3355  0.0886 -0.1913
 4594W        W24128  17.416   2.818  12.602 -0.1055 -0.0044 -0.3628
 4595W        W24129   4.664   1.909   1.806 -0.1254 -0.2148 -0.2419
 4596W        W24130   9.731   3.494  13.953 -0.1002 -0.1542  0.0588
 4597W        W24131   8.964   7.400   2.863  0.0166  0.3093 -0.0685
 4598W        W24132   3.532   2.448  11.920 -0.3167  0.1144  0.1739
 4599W        W24133   0.765   6.868   4.149  0.0106 -0.2150  0.4396
 4600W        W24134  10.181  10.151  14.567 -0.0262  0.0344 -0.0956
 4601W        W24135  14.037   6.469   3.138  0.0347  0.1654  0.1614
 4602W        W24136  16.719   9.200  12.386 -0.2224 -0.3113 -0.1160
 4603W        W24137   2.228   0.073   4.643 -0.0204 -0.0851  0.4082
 4604W        W24138   4.201  13.638  15.251 -0.2689  0.1059  0.1618
 4605W        W24139   8.106   1.872   1.669 -0.0550 -0.1723 -0.1001
 4606W        W24140  12.297   9.246  12.092  0.1286 -0.2506 -0.2308
 4607W        W24141  17.960   4.087   0.898  0.2171 -0.2397 -0.0517
 4608W        W24142   6.512  11.781  11.550  0.3555 -0.0074  0.1306
 4609W        W24143  13.843   2.221   3.477 -0.1872  0.0285 -0.2114
 4610W        W24144   3.216  16.120   3.757  0.0057  0.2751 -0.1105
 4611W        W24145  14.624   9.613  15.468 -0.2328 -0.1960 -0.1264
 4612W        W24146   9.925  11.548  13.001  0.0976 -0.0821  0.1542
 4613W        W24147  15.757  15.569  13.595 -0.4108 -0.1324  0.0807
 4614W        W24148  12.497   3.389   3.467  0.0356  0.0748  0.2912
 4615W        W24149  16.138   3.229   3.535  0.1696  0.1887 -0.1679
 4616W        W24150  16.409  10.449  13.075  0.3171 -0.2240  0.1410
 4617W        W24151   7.679  16.708  14.383 -0.1395  0.2030 -0.2741
 4618W        W24152  12.777   2.038  14.554  0.0362 -0.0801  0.0371
 4619W        W24153   1.554   8.321   1.143  0.1710 -0.0100  0.3279
 4620W        W24154   7.790   5.835   2.274  0.0621  0.4913 -0.1526
 4621W        W24155   4.420   1.621   4.574  0.1898  0.0786  0.2015
 4622W        W24156   1.451   5.780  12.828 -0.0365 -0.1157 -0.0122
 4623W        W24157  12.296   5.033   0.496  0.0494 -0.0669  0.3671
 4624W        W24158   0.178   3.504  12.613 -0.2389  0.1520 -0.0390
 4625W        W24159   3.831   2.048  13.919  0.2740 -0.1161  0.2374
 4626W        W24160  12.519   1.467  11.956  0.0702  0.0706  0.0300
 4627W        W24161  16.546   0.565   0.285  0.2216  0.0123  0.1427
 4628W        W24162  13.068   9.798  12.556  0.0971  0.2506  0.4221
 4629W        W24163  13.760   4.110   0.291 -0.0480  0.2869  0.0746
 4630W        W24164  16.843   1.457   0.028  0.1422  0.2093 -0.1357
 4631W        W24165   0.202   5.112  15.456 -0.0320 -0.1151  0.3114
 4632W        W24166  12.729   4.790   3.071 -0.0080 -0.0310  0.1940
 4633W        W24167   7.204  11.103  11.139 -0.1961 -0.0969 -0.0911
 4634W        W24168   5.430  17.740  14.654  0.0077 -0.5030 -0.0786
 4635W        W24169   2.059   5.767   4.239 -0.3620 -0.2967 -0.1204
 4636W        W24170   5.137   8.894   3.598 -0.0472 -0.3509  0.4862
 4637W        W24171   8.392  11.439   4.945 -0.0090 -0.0082  0.0837
 4638W        W24172   8.788   6.158  13.885  0.2641  0.1312 -0.0577
 4639W        W24173  11.406   0.295   3.512 -0.1041  0.3183 -0.1986
 4640W        W24174   7.996   7.454  14.304 -0.1955 -0.0486  0.2726
 4641W        W24175  11.896   2.741  11.385 -0.0457 -0.1621 -0.1003
 4642W        W24176   6.570   2.700  13.351 -0.0266  0.0262 -0.0485
 4643W        W24177   1.747  15.847   1.649  0.2026  0.1306  0.1454
 4644W        W24178   0.962  12.278   4.057 -0.1576 -0.1838 -0.2230
 4645W        W24179   2.445   1.896   2.632  0.0223 -0.2753 -0.1107
 4646W        W24180   9.982   6.231   2.120 -0.0260  0.1345 -0.0484
 4647W        W24181   6.241  12.707  10.575 -0.0815 -0.0651  0.1596
 4648W        W24182   1.105  14.239   1.966  0.2675  0.0761  0.0955
 4649W        W24183  18.297  13.760  12.119 -0.1183  0.0406  0.0672
 4650W        W24184  13.062  15.815   0.483  0.2764 -0.0491  0.2080
 4651W        W24185  16.522   2.845   2.629  0.1841  0.2054 -0.3028
 4652W        W24186   9.212   3.816   3.075 -0.0828  0.3682  0.0662
 4653W        W24187  14.296  18.400  13.376  0.2192 -0.1230 -0.3724
 4654W        W24188   4.553   6.235   4.026 -0.0161  0.0167  0.1156
 4655W        W24189   1.004   7.903   9.971 -0.0211  0.1195 -0.0662
 4656W        W24190  15.507   3.649   2.244  0.0163  0.0831 -0.1408
 4657W        W24191  13.981   1.894   3.834  0.0227  0.2522  0.0133
 4658W        W24192   6.073  13.919   0.936  0.1672  0.1195 -0.1926
 4659W        W24193  11.929   4.091  15.200 -0.1713  0.0121 -0.0178
 4660W        W24194   6.777  12.485  13.504 -0.0639  0.5910  0.2159
 4661W        W24195   2.532   3.521  11.593  0.0655 -0.0951  0.1187
 4662W        W24196   0.081   5.525  14.381  0.1659  0.1145  0.3218
 4663W        W24197   6.350   8.616  14.817 -0.5089 -0.1495 -0.0399
 4664W        W24198   3.573   4.027  12.626 -0.5589 -0.0045  0.2054
 4665W        W24199   3.322  13.330   2.495 -0.0378 -0.0896 -0.0392
 4666W        W24200   8.395   7.959  10.827  0.0623 -0.1186  0.1303
 4667W        W24201   9.836   1.632  13.595  0.3243  0.0002 -0.3215
 4668W        W24202  11.777   1.425   0.044  0.0541  0.1264  0.1297
 4669W        W24203  15.188  10.587   3.277 -0.0404  0.0896 -0.0957
 4670W        W24204  12.863   5.984   2.263  0.2147  0.2649  0.0418
 4671W        W24205  10.861   9.170  11.853  0.0055 -0.3275 -0.1055
 4672W        W24206  17.477  13.261  15.776 -0.1007  0.0122 -0.1342
 4673W        W24207  12.508  17.029   1.542 -0.1528  0.3335 -0.0014
 4674W        W24208   1.380  14.622  11.917 -0.1219  0.4746 -0.1531
 4675W        W24209  10.975   7.038  12.280  0.1786  0.0203  0.2254
 4676W        W24210  11.741   9.860  12.347  0.0067  0.1950  0.0660
 4677W        W24211   6.407  10.970  11.458  0.0755 -0.1899  0.1763
 4678W        W24212   1.877   5.173  14.406  0.2183  0.1731 -0.0775
 4679W        W24213   7.734   8.935  13.649  0.0712 -0.0793  0.1608
 4680W        W24214   7.241  17.437  11.554 -0.0764  0.0112  0.1433
 4681W        W24215   7.962  14.681   1.746 -0.1196 -0.1662  0.1465
 4682W        W24216  11.654  11.240   2.574  0.2308 -0.4332 -0.1444
 4683W        W24217  13.251  14.062   1.921 -0.0492 -0.1646 -0.1436
 4684W        W24218   2.747   8.654  13.473 -0.0374  0.0844  0.0320
 4685W        W24219   3.041   3.774   3.561  0.3927  0.0158 -0.0335
 4686W        W24220  16.491   8.221   1.078  0.1015 -0.0461 -0.1974
 4687W        W24221   2.943  10.484   1.400  0.0337 -0.3296  0.3014
 4688W        W24222  14.158   5.818  14.343 -0.0091 -0.0298 -0.1825
 4689W        W24223   0.070   0.639   5.814  0.1178  0.0565  0.2223
 4690W        W24224   3.583   6.885  12.793  0.0211 -0.4880 -0.1535
 4691W        W24225  10.526   4.838   0.299 -0.0471 -0.1550 -0.4044
 4692W        W24226   7.240   1.154  14.298 -0.3736 -0.1490  0.1884
 4693W        W24227  11.834  10.998  11.631 -0.2304 -0.0567  0.0754
 4694W        W24228   1.535  12.923  13.812  0.0301 -0.1992 -0.0857
 4695W        W24229  13.966   5.917   2.312 -0.0891 -0.0521  0.1031
 4696W        W24230  17.364   5.629   1.322 -0.0251  0.0638 -0.2351
 4697W        W24231  16.119  10.744   1.856  0.1945 -0.1807 -0.0641
 4698W        W24232   8.903   0.017  11.276  0.1129 -0.1215 -0.4485
 4699W        W24233   9.042  13.441   4.187 -0.2216 -0.2285  0.1798
 4700W        W24234  11.997   2.267   1.876  0.0842 -0.1245  0.3296
 4701W        W24235  15.089  16.643   0.616  0.1805  0.0270 -0.0723
 4702W        W24236  11.005   3.512   2.903 -0.3016  0.3684  0.3020
 4703W        W24237   3.240  12.763   0.058 -0.0963  0.0856  0.0464
 4704W        W24238   8.330   0.565  11.581  0.3309  0.2619 -0.0079
 4705W        W24239   3.627   5.734  12.172  0.2623  0.0745  0.0183
 4706W        W24240  11.983  12.955   2.439  0.3292 -0.1045 -0.0808
 4707W        W24241   2.911   7.664  15.020  0.0785  0.2741  0.1132
 4708W        W24242  13.995   2.857   0.930  0.1442  0.1850 -0.2120
 4709W        W24243  15.520   0.533   3.845  0.0810 -0.2037 -0.1156
 4710W        W24244  15.056  15.947  12.505 -0.1933 -0.2708  0.2349
 4711W        W24245  14.779   6.163   3.064 -0.1270 -0.0076  0.0896
 4712W        W24246   4.272  10.757   0.886 -0.2144 -0.3212  0.1995
 4713W        W24247   6.930  12.743   4.266 -0.2791  0.1751  0.1324
 4714W        W24248   8.669  14.838   4.079  0.0455 -0.1387  0.1601
 4715W        W24249   2.662   2.664   3.530 -0.1789 -0.0721  0.3322
 4716W        W24250  14.549  14.384   2.419 -0.0568  0.0608 -0.0761
 4717W        W24251   5.296  10.760  15.397  0.2499 -0.2229  0.1800
 4718W        W24252   1.413   9.845  14.805  0.0483 -0.3324  0.1027
 4719W        W24253  17.878   6.228  13.409  0.4422  0.1707  0.1151
 4720W        W24254  12.707  10.434  11.360 -0.0326  0.4199 -0.1018
 4721W        W24255   3.347   2.914  13.435  0.1847  0.0495 -0.1827
 4722W        W24256  12.352   6.146   1.069 -0.0826 -0.0946  0.0820
 4723W        W24257  13.894  11.263   2.523  0.2068  0.1482  0.3738
 4724W        W24258   8.207   8.481  13.570 -0.1368 -0.1732 -0.0665
 4725W        W24259  12.567  17.838   1.813 -0.0497  0.0485 -0.1622
 4726W        W24260  12.521   4.521  12.025  0.1682 -0.1820  0.0596
 4727W        W24261   4.695   5.152   1.982  0.0943 -0.2688 -0.2935
 4728W        W24262  12.683  15.745   4.357  0.0373 -0.1787  0.0851
 4729W        W24263   9.195  14.811   3.164 -0.1073  0.2919  0.1774
 4730W        W24264   3.601  10.889  13.905  0.3308  0.1644  0.0940
 4731W        W24265   0.320  10.178  15.636  0.0351 -0.0823  0.1867
 4732W        W24266   5.975   4.095   3.529  0.0122 -0.0324 -0.1824
 4733W        W24267  10.577  14.302  15.822 -0.2284  0.3568  0.0264
 4734W        W24268  18.285   2.648  12.067  0.2716  0.1148  0.1011
 4735W        W24269   9.637   0.099  11.836  0.1179 -0.1878 -0.0286
 4736W        W24270   8.402  10.578   1.281 -0.0537  0.3454  0.0432
 4737W        W24271   7.400   1.733  14.944 -0.1326 -0.0918 -0.3310
 4738W        W24272   8.780   4.039   0.403  0.1993  0.1362  0.0323
 4739W        W24273  10.345   1.974   1.652  0.0295 -0.0435  0.3141
 4740W        W24274  14.387  10.629  11.456 -0.0768  0.0193 -0.0081
 4741W        W24275  17.340  10.535  15.341  0.2503  0.3302 -0.1758
 4742W        W24276   9.990   0.441   4.475  0.4511  0.2186 -0.0723
 4743W        W24277  10.375   5.389  11.208  0.0359 -0.0873  0.1903
 4744W        W24278  10.442  13.643   5.277  0.1285 -0.2202  0.0870
 4745W        W24279   5.722  10.767  12.554 -0.1119 -0.0289  0.0149
 4746W        W24280   8.291  15.370  12.185 -0.0100  0.0084 -0.3995
 4747W        W24281  17.241  10.977  11.536  0.2555  0.1588  0.0192
 4748W        W24282  14.153  12.495   3.338  0.0140 -0.1909 -0.2223
 4749W        W24283  15.110   2.555  14.408 -0.0495 -0.0305 -0.0660
 4750W        W24284   3.536  15.158  13.513  0.0307  0.2276 -0.1263
 4751W        W24285   6.941  17.559  14.853 -0.2356  0.0393 -0.0380
 4752W        W24286   6.278  10.909   3.693  0.0759  0.2720 -0.2877
 4753W        W24287  10.347  17.209  12.532 -0.0127 -0.1352  0.0353
 4754W        W24288   3.771   0.291   4.055  0.0439  0.3363  0.0077
 4755W        W24289  16.108   2.576  15.423  0.0755  0.0881  0.1688
 4756W        W24290  12.623   9.933  13.864 -0.0815 -0.0607 -0.0599
 4757W        W24291   1.704  18.080  14.048 -0.1008 -0.0777 -0.2513
 4758W        W24292   1.045  11.263  14.700 -0.2371  0.1352 -0.0087
 4759W        W24293  15.213   3.290  14.639  0.0535 -0.1037 -0.3130
 4760W        W24294   8.475  17.123  15.538 -0.1238 -0.1730  0.1495
 4761W        W24295  13.789   8.926   4.110  0.0737 -0.1420 -0.3848
 4762W        W24296  13.546   7.573  11.879 -0.4203 -0.1260  0.1993
 4763W        W24297   7.188  16.233   3.736 -0.3308  0.0702  0.2637
 4764W        W24298  15.675  16.764   4.560 -0.1167 -0.2111  0.0251
 4765W        W24299   9.416  10.420  12.205  0.0261 -0.1766 -0.3796
 4766W        W24300  10.336   8.434   3.389 -0.1522  0.2329 -0.0726
 4767W        W24301   5.795   5.379  11.529 -0.0296 -0.0534  0.1105
 4768W        W24302  11.501  16.745   4.340  0.3077  0.0768 -0.1423
 4769W        W24303   6.013   7.918  14.631 -0.0857 -0.0684 -0.0774
 4770W        W24304  10.281   6.474  11.214  0.0545  0.0293  0.0781
 4771W        W24305  16.715  14.615   4.468 -0.2000 -0.0533 -0.2582
 4772W        W24306  17.970  13.418  12.268 -0.0573 -0.1000  0.0065
 4773W        W24307   0.110  11.692  11.207  0.1876  0.0072  0.0729
 4774W        W24308  15.315  14.508   4.363  0.4140  0.2846  0.2325
 4775W        W24309   0.004   7.768   1.079 -0.0908  0.3035 -0.2956
 4776W        W24310   1.512   4.934  15.253 -0.0144  0.0978  0.2090
 4777W        W24311  11.723  15.863  14.577  0.0957 -0.0437 -0.0141
 4778W        W24312   2.727   6.761   1.217  0.0378  0.3222 -0.1355
 4779W        W24313   0.253   3.169   1.385  0.2959  0.0904 -0.1782
 4780W        W24314   7.585  15.814   1.613 -0.0220 -0.2152  0.1289
 4781W        W24315   8.599  13.469   0.593  0.1850  0.0508  0.0822
 4782W        W24316   6.506   3.015   0.583  0.0296 -0.1471 -0.2328
 4783W        W24317  14.950   4.861  13.814 -0.1649 -0.3199 -0.1415
 4784W        W24318   0.732   3.828   3.436 -0.0712 -0.0182 -0.2290
 4785W        W24319  16.778   7.925   4.774  0.0053  0.1605  0.2473
 4786W        W24320   6.450  11.271  12.420 -0.1856 -0.1279  0.0077
 4787W        W24321   9.464   8.978  13.160 -0.1808  0.0765  0.0396
 4788W        W24322  18.275   8.193   2.868 -0.0094  0.1290  0.2549
 4789W        W24323   1.585  15.876   5.105 -0.3064 -0.0009 -0.3836
 4790W        W24324   7.583   8.429   3.451  0.1349  0.0843  0.2022
 4791W        W24325   0.968  13.031   3.723  0.0385  0.0844  0.1237
 4792W        W24326   4.984  14.462   4.571 -0.0088  0.0704  0.1813
 4793W        W24327   6.760   2.605  11.931  0.1547  0.0196  0.0030
 4794W        W24328  14.367  12.400   3.815 -0.0046 -0.0151 -0.4383
 4795W        W24329  16.089   8.748   4.387 -0.1409 -0.1377  0.2127
 4796W        W24330  14.263   6.784   2.690  0.2704  0.0184  0.0245
 4797W        W24331  17.440   5.607  12.889 -0.2455 -0.1912 -0.0951
 4798W        W24332  10.887   1.353   3.749 -0.0006  0.0065 -0.0202
 4799W        W24333   2.074  15.906   2.445 -0.1210  0.1420  0.2244
 4800W        W24334  14.969  16.472  12.369  0.1756  0.0020  0.0378
 4801W        W24335  14.632   5.397  11.010  0.0252 -0.2251 -0.1069
 4802W        W24336  13.799   2.387  14.936 -0.0831  0.0716 -0.0364
 4803W        W24337  11.474   6.454   2.719 -0.0001 -0.1560 -0.1108
 4804W        W24338  17.472  18.369  14.330  0.1428 -0.1570  0.0689
 4805W        W24339  16.457   6.130  14.439  0.0008  0.1783  0.0598
 4806W        W24340  10.690  12.135   4.362  0.0268  0.1348 -0.0358
 4807W        W24341   1.220  13.224  11.477  0.0775  0.2131 -0.1135
 4808W        W24342   2.290  18.299  12.700  0.2749 -0.0306  0.1433
 4809W        W24343  12.973  10.829  15.569 -0.1050  0.1151 -0.0398
 4810W        W24344   0.397  11.123   1.077  0.0770 -0.0027  0.0446
 4811W        W24345   6.564   6.429  13.903  0.1839 -0.1653  0.1339
 4812W        W24346   5.074   0.529  13.499  0.3675 -0.2104 -0.2340
 4813W        W24347  11.340  14.427  12.052  0.0249 -0.0506  0.2441
 4814W        W24348   4.582   2.977  14.560 -0.0889  0.1416 -0.0066
 4815W        W24349   3.089  10.964  11.695  0.0845  0.1346 -0.2052
 4816W        W24350  11.871  11.912   0.242 -0.1527  0.1569 -0.0765
 4817W        W24351   5.604   9.076  13.497 -0.2541  0.2294  0.0400
 4818W        W24352   1.251   6.205  14.770  0.0333 -0.2419 -0.1530
 4819W        W24353   6.332   8.603   0.874 -0.0690 -0.4755 -0.1454
 4820W        W24354  13.489  18.304   2.914  0.5444 -0.0459 -0.0771
 4821W        W24355   7.182  14.808   0.694 -0.0410  0.1995 -0.1015
 4822W        W24356  17.843  10.397  11.748  0.2573  0.0461 -0.1204
 4823W        W24357  11.009   5.298   0.981 -0.0708  0.1955  0.2665
 4824W        W24358   7.499   8.209  12.115  0.0283  0.2112 -0.1967
 4825W        W24359  17.394  17.939  15.792 -0.1746 -0.0655  0.0785
 4826W        W24360  11.943   9.029   4.401 -0.1773  0.4606  0.3171
 4827W        W24361  16.777   3.134   4.266  0.2738  0.2065 -0.2999
 4828W        W24362   5.780  16.843   5.596  0.3813  0.0023  0.1148
 4829W        W24363  12.280  12.819  13.680  0.3061 -0.0501 -0.0010
 4830W        W24364  13.662   6.747  12.952 -0.1307 -0.0123  0.1794
 4831W        W24365  13.843  14.664   1.338  0.1336 -0.1105  0.0624
 4832W        W24366   0.289   3.995  14.204  0.3567 -0.3949  0.1741
 4833W        W24367   1.223  14.427  14.896 -0.0039  0.4344  0.1803
 4834W        W24368   5.784   2.281  15.630 -0.4621 -0.0040 -0.3309
 4835W        W24369  15.778   1.883  13.914 -0.3010 -0.0984  0.1691
 4836W        W24370   0.658  12.583  14.861 -0.0377  0.1359  0.0746
 4837W        W24371   2.852   7.604  11.820  0.0648  0.1353 -0.1600
 4838W        W24372   9.303  14.392  13.139  0.1077  0.0671  0.1187
 4839W        W24373   3.360   4.273   2.472 -0.0190  0.0521 -0.2752
 4840W        W24374   6.248   3.378  12.676 -0.0633  0.1202 -0.0744
 4841W        W24375  16.761  14.649  14.364 -0.1721  0.3232 -0.1145
 4842W        W24376  15.583  17.793  12.965  0.0128 -0.0004  0.0214
 4843W        W24377  14.813   2.779   3.997  0.1216  0.0633 -0.1097
 4844W        W24378  14.037   9.630  15.277  0.3857  0.3700 -0.1234
 4845W        W24379   3.169   8.059   0.485 -0.4044  0.1043  0.1713
 4846W        W24380  10.027   0.429  12.768  0.2705  0.0500 -0.1727
 4847W        W24381   7.380   6.144   2.010  0.2536  0.0437 -0.1690
 4848W        W24382   8.847   7.198   1.484  0.3661  0.0676 -0.1575
 4849W        W24383   6.777   2.762  13.833 -0.2642  0.0026  0.1613
 4850W        W24384   7.900   8.499   2.152  0.4620 -0.4425  0.3883
 4851W        W24385  11.940  16.736  15.574 -0.1315  0.1057  0.1836
 4852W        W24386  10.733  15.695   3.282  0.1874  0.1661 -0.1400
 4853W        W24387   3.306   6.995  12.226 -0.1531 -0.2070  0.0222
 4854W        W24388  12.740   9.922  11.067 -0.1633  0.1466 -0.2586
 4855W        W24389  14.557  13.480   1.680 -0.0238  0.2329 -0.0242
 4856W        W24390  10.727   8.278   3.017  0.0971 -0.2109  0.3791
 4857W        W24391   5.964  13.912  12.691 -0.1857  0.0566  0.1629
 4858W        W24392   7.222  10.346   4.286  0.2697 -0.1272  0.2784
 4859W        W24393   7.425  17.891  13.680  0.2132 -0.3389  0.1520
 4860W        W24394   1.442   6.019  11.262 -0.1061 -0.3142 -0.1710
 4861W        W24395   3.270  12.973   1.174 -0.1735  0.0058 -0.2253
 4862W        W24396  10.002  15.672  14.868  0.1794 -0.1667  0.0182
 4863W        W24397   1.888  10.705  12.379 -0.0463  0.0959  0.0398
 4864W        W24398   4.936   0.356   1.029 -0.1574 -0.1146  0.2194
 4865W        W24399  13.990  14.328  14.286  0.0395 -0.2960  0.1610
 4866W        W24400  16.904   7.426  11.787  0.2378 -0.2974 -0.0421
 4867W        W24401  18.085  14.394  13.693 -0.0841 -0.0652  0.0245
 4868W        W24402  16.664  17.718   3.149  0.2382 -0.1244 -0.0779
 4869W        W24403   3.467   8.933  11.156  0.2543  0.0144  0.0049
 4870W        W24404   0.893   8.453  12.372 -0.0139  0.1518  0.3383
 4871W        W24405   0.549   7.126   2.119 -0.1447  0.0551  0.0596
 4872W        W24406   6.611   5.053  12.162  0.3114  0.0682 -0.0383
 4873W        W24407  14.666  10.372   3.396 -0.0842  0.1601  0.0095
 4874W        W24408  17.526   1.714   1.269 -0.2701 -0.2111  0.0273
 4875W        W24409  12.767  11.611  13.759  0.1662 -0.2573 -0.1156
 4876W        W24410  15.978  16.681   0.492 -0.3141  0.1391  0.0091
 4877W        W24411   6.820   8.648   4.677 -0.1884  0.0841 -0.3035
 4878W        W24412   9.094   1.214  13.884 -0.0898  0.0419 -0.0361
 4879W        W24413  13.089   5.812   3.978  0.0083 -0.1760  0.0867
 4880W        W24414   5.423   0.398   0.175 -0.1064 -0.2264  0.2586
 4881W        W24415  16.971  16.704  15.515  0.0024 -0.0589 -0.1773
 4882W        W24416  10.484  12.769   1.686 -0.1330  0.0798  0.3017
 4883W        W24417   5.048  16.002  14.232 -0.0269 -0.0389 -0.3603
 4884W        W24418   1.298   4.332   4.479 -0.0067  0.0010  0.1970
 4885W        W24419   0.846   5.337   2.438  0.0512 -0.0355 -0.1365
 4886W        W24420   7.229  14.221  13.245  0.0525  0.2444 -0.2472
 4887W        W24421  17.171   5.390  14.460 -0.2050 -0.0498  0.0118
 4888W        W24422   6.389  12.101  11.123 -0.1708  0.0569  0.0178
 4889W        W24423   7.496  14.003  14.587  0.0406  0.0875  0.0682
 4890W        W24424   1.300   9.415   2.546  0.1254 -0.0819 -0.3086
 4891W        W24425   8.222   0.770   1.873 -0.0822 -0.1080 -0.1702
 4892W        W24426   6.865   9.031   3.649  0.0474 -0.2014  0.1799
 4893W        W24427  11.142   5.481  11.639 -0.0721  0.1796  0.1171
 4894W        W24428  10.781  16.345  13.346 -0.0928 -0.1705 -0.2629
 4895W        W24429   1.882  13.974  12.712  0.1338  0.0680  0.0549
 4896W        W24430   5.552   2.931  15.597 -0.0552  0.0847  0.0005
 4897W        W24431   3.729   1.487   2.967 -0.2971  0.0397  0.2675
 4898W        W24432   3.918   7.924   3.743 -0.0219  0.2640 -0.0865
 4899W        W24433  17.082   4.372  14.882 -0.1825 -0.0770  0.1078
 4900W        W24434  11.336   1.781   0.008 -0.1818  0.2665 -0.3994
 4901W        W24435  18.116  17.914  12.171  0.1377 -0.0072  0.1870
 4902W        W24436  11.079   3.555  12.715  0.2081 -0.1400  0.0668
 4903W        W24437   6.110  10.631  12.906  0.1072  0.2183  0.0546
 4904W        W24438   5.126   4.160  12.861 -0.2304 -0.0923 -0.4560
 4905W        W24439   7.453  15.124   3.344  0.3652  0.0396 -0.1649
 4906W        W24440   7.978   6.901  12.324  0.2609 -0.1307 -0.3426
 4907W        W24441   6.166   0.685   3.286 -0.1013 -0.1672  0.0410
 4908W        W24442  16.322   8.894   3.886 -0.0298 -0.2556  0.1426
 4909W        W24443   0.480   7.980   1.080  0.1649 -0.3689  0.3214
 4910W        W24444   1.674  13.867   2.706 -0.2973 -0.0261 -0.2942
 4911W        W24445  16.445  11.257  11.887 -0.1456  0.4255  0.2934
 4912W        W24446  15.692   0.985  12.319  0.1586  0.1174 -0.4076
 4913W        W24447   4.881   4.939   5.642  0.2069  0.0235  0.2311
 4914W        W24448   6.734   0.756  11.345  0.0058 -0.0312 -0.0942
 4915W        W24449   1.672  16.758   3.276  0.2981  0.0545  0.1169
 4916W        W24450  15.916  17.901   1.874 -0.0320 -0.0068  0.0538
 4917W        W24451  17.750   8.934   0.924  0.0258  0.6718  0.3532
 4918W        W24452  17.323   5.396  14.937 -0.4384  0.1641 -0.1358
 4919W        W24453   5.460  15.302   1.023  0.2100  0.2702  0.2177
 4920W        W24454   2.126  14.681  15.759  0.0823  0.0324  0.3890
 4921W        W24455   4.347   8.455   2.612 -0.0086  0.0306  0.3295
 4922W        W24456   4.483  11.511  13.931  0.3145 -0.3482  0.1807
 4923W        W24457   7.810  14.125  13.709 -0.0640  0.2050  0.0757
 4924W        W24458   9.515   4.882  14.561  0.0197  0.0819 -0.1492
 4925W        W24459   7.697   7.455   1.586  0.0316 -0.0624 -0.2447
 4926W        W24460   5.944  12.966   0.041 -0.4255 -0.0134  0.1632
 4927W        W24461   2.476   2.309  14.724  0.0716  0.1335 -0.1351
 4928W        W24462   4.071  17.405  15.198 -0.1974 -0.1790  0.2136
 4929W        W24463  16.715   9.609  12.110 -0.0730  0.3388 -0.2925
 4930W        W24464   8.602  17.520   0.361  0.0964  0.1669 -0.3925
 4931W        W24465  16.364  16.086  15.616 -0.1228 -0.3204 -0.0769
 4932W        W24466   6.803   3.689   2.097 -0.0549  0.1397 -0.2773
 4933W        W24467   5.531  15.907  11.706  0.3552 -0.0534 -0.0215
 4934W        W24468  12.225  12.195  13.502 -0.1524 -0.3153 -0.1451
 4935W        W24469   2.874   2.967  14.395  0.0463  0.0501 -0.2082
 4936W        W24470  10.817   9.269   1.266 -0.0349  0.0257 -0.0427
 4937W        W24471   5.573  10.391   2.040 -0.0333  0.3360  0.0894
 4938W        W24472   3.559  16.147   2.764  0.1918 -0.2680  0.0390
 4939W        W24473   7.363   4.674  14.695 -0.1031  0.1265 -0.1742
 4940W        W24474   2.092  13.032   2.976 -0.1162 -0.0339  0.5006
 4941W        W24475  16.157   5.017   3.393 -0.2628  0.1157 -0.1346
 4942W        W24476  18.049   5.268  14.457 -0.0521  0.2655 -0.3368
 4943W        W24477  13.396   2.800   0.824  0.2982  0.0119 -0.1009
 4944W        W24478   1.780   4.343  14.490 -0.0814 -0.0012 -0.4077
 4945W        W24479  18.065   0.204  13.561  0.2988 -0.1942 -0.1698
 4946W        W24480   7.708   5.655   1.334 -0.1877  0.0345  0.3072
 4947W        W24481   0.169   4.256  13.730 -0.1293  0.0815 -0.2306
 4948W        W24482  14.978   9.758  12.406 -0.0334 -0.1112  0.0919
 4949W        W24483  16.859  15.527  12.359 -0.2576 -0.2534  0.0606
 4950W        W24484   8.517   4.164   4.357  0.2339 -0.2582 -0.0787
 4951W        W24485  12.758   5.424   3.711  0.1216  0.3150 -0.0575
 4952W        W24486   7.999  18.255  14.725  0.3563  0.1408  0.0065
 4953W        W24487   2.389  15.769   4.006 -0.0379 -0.0491 -0.2117
 4954W        W24488   8.302   4.422  15.734 -0.3099 -0.0520 -0.0104
 4955W        W24489   6.229   7.686   3.949 -0.0816  0.2143 -0.0948
 4956W        W24490  12.122   1.295  13.607 -0.0342 -0.1450  0.2951
 4957W        W24491  12.219   6.815   5.391 -0.0643  0.0915 -0.0403
 4958W        W24492  15.862   5.026  15.187 -0.1103 -0.0709  0.0951
 4959W        W24493   1.355  16.473  13.993 -0.0619 -0.0070  0.2022
 4960W        W24494   2.093  15.397  11.806 -0.0781 -0.0392  0.0471
 4961W        W24495  16.596  10.831  15.806 -0.1170 -0.0452  0.2319
 4962W        W24496  17.417   4.037  14.646  0.1259 -0.1885  0.0776
 4963W        W24497   6.666  16.705  14.948 -0.0793  0.0241  0.0182
 4964W        W24498  10.141   6.225  13.666  0.5534 -0.1706  0.0240
 4965W        W24499  12.918   3.518  11.559  0.0910 -0.3959 -0.0417
 4966W        W24500   4.593   9.831   0.236  0.1007  0.2383 -0.0139
 4967W        W24501  14.641  13.527  12.936 -0.0465 -0.1967  0.0505
 4968W        W24502  17.260   2.946   4.621 -0.0447 -0.0989  0.1531
 4969W        W24503   4.940  17.582  12.937  0.3299  0.3546  0.2959
 4970W        W24504   9.994   4.492   4.038 -0.1576 -0.0158 -0.3848
 4971W        W24505   5.836   0.098   2.522  0.0123 -0.0776  0.1513
 4972W        W24506   3.984   5.556   4.474  0.2032 -0.0362  0.0359
 4973W        W24507   4.924   8.621   0.275 -0.1244  0.3505 -0.0311
 4974W        W24508   6.757  17.352  15.757 -0.3223  0.2230  0.2108
 4975W        W24509   4.024   5.905   4.870  0.0092 -0.0921 -0.0529
 4976W        W24510  10.425  16.652  15.209  0.0173 -0.1574 -0.1529
 4977W        W24511  18.094   1.985  10.336  0.3531  0.1071  0.1372
 4978W        W24512   2.037  10.204  12.440  0.0729  0.0191 -0.1453
 4979W        W24513   4.457   1.121  14.648  0.0011  0.2617 -0.1510
 4980W        W24514  13.962   6.171  13.121  0.3830  0.1400  0.1775
 4981W        W24515   5.081   0.309   2.157 -0.1101  0.0042 -0.0008
 4982W        W24516  17.670   9.526  11.894 -0.0643  0.1073 -0.3355
 4983W        W24517   7.460  16.743  12.231  0.2190  0.1523  0.1130
 4984W        W24518  10.729  12.688   0.165  0.1787 -0.0465  0.1875
 4985W        W24519  10.561   8.735  14.678  0.1494 -0.2932  0.0644
 4986W        W24520  14.055  16.908   0.137  0.1444 -0.3883 -0.0899
 4987W        W24521  11.127  12.921  15.839  0.2036 -0.1883  0.0182
 4988W        W24522   5.920  16.675   1.458  0.1694 -0.2291 -0.0170
 4989W        W24523  17.138  11.808   2.407  0.0297 -0.0337 -0.0416
 4990W        W24524   8.479   6.738  14.472 -0.0442 -0.1826  0.2311
 4991W        W24525  12.269  11.284   0.709 -0.3604 -0.3051 -0.2534
 4992W        W24526   6.159  13.160   2.882  0.2110  0.0748  0.2026
 4993W        W24527   9.092   8.716  14.498 -0.0255  0.0219  0.3015
 4994W        W24528  11.371   0.307  12.321  0.0412  0.2626 -0.0734
 4995W        W24529  15.841   9.430  11.608 -0.0929 -0.2398 -0.4711
 4996W        W24530   5.184   8.476   3.859  0.0750 -0.2956  0.2373
 4997W        W24531  14.975  14.372   1.476  0.2623  0.0079 -0.1580
 4998W        W24532  16.736   4.358   0.877 -0.0648  0.2330 -0.3393
 4999W        W24533   2.987   5.323   4.389  0.1103  0.0888  0.0849
 5000W        W24534   8.148   8.928   0.998  0.2269 -0.0821  0.1929
 5001W        W24535   1.681   5.169  11.262 -0.2048 -0.2264 -0.0860
 5002W        W24536  11.586   1.106   0.665 -0.0118  0.0661  0.3579
 5003W        W24537  12.640   5.413   0.286 -0.1473 -0.2333 -0.1186
 5004W        W24538   9.867   7.915  12.669  0.0593  0.4004 -0.2314
 5005W        W24539   7.784   4.928   4.012 -0.0643 -0.2142 -0.0536
 5006W        W24540   1.702  14.176   3.795 -0.0761  0.0708 -0.1277
 5007W        W24541   9.978   1.406  12.235  0.2425  0.4604 -0.1387
 5008W        W24542   7.439   1.667  14.462 -0.0252 -0.1365  0.0855
 5009W        W24543  17.664   4.463  15.112  0.0224  0.2501  0.1250
 5010W        W24544   3.127  10.936  13.611 -0.0406 -0.0968 -0.0776
 5011W        W24545   9.653   2.487  13.662  0.0790 -0.1843 -0.0647
 5012W        W24546  17.345  13.750   3.851  0.0658  0.2100 -0.1544
 5013W        W24547   1.610   6.944  13.637  0.3074  0.1505  0.0729
 5014W        W24548   6.545  10.818   5.389 -0.0855 -0.0302 -0.0377
 5015W        W24549   2.489  16.732  11.506  0.0764  0.1938 -0.0783
 5016W        W24550   3.307  16.905  13.234  0.0624  0.0810  0.3316
 5017W        W24551  17.566  15.425  14.623  0.1981  0.2708  0.3655
 5018W        W24552  16.833   3.714  14.086  0.2265  0.0309  0.2623
 5019W        W24553   8.812   4.903  11.342  0.0387 -0.1865 -0.2106
 5020W        W24554   1.740  17.837  15.442  0.0093  0.1588  0.0899
 5021W        W24555  12.793  13.911  13.448 -0.1216 -0.3514  0.1770
 5022W        W24556  14.306   3.021  12.167 -0.0141  0.4296  0.1166
 5023W        W24557  15.876  14.463  13.507  0.0177  0.0635 -0.1674
 5024W        W24558  10.013  17.476   1.858 -0.0289  0.0013 -0.0397
 5025W        W24559   8.981   2.833   3.784 -0.0206  0.0258 -0.3838
 5026W        W24560   6.479   2.027   0.894 -0.3448  0.0480 -0.2652
 5027W        W24561   3.070   4.384   1.869  0.0487  0.1514 -0.1211
 5028W        W24562  14.772   1.459   0.987 -0.0260  0.1974  0.1623
 5029W        W24563   3.509   9.982   3.613 -0.0345 -0.1126  0.2698
 5030W        W24564  15.513   7.512  15.797  0.2692 -0.0622 -0.0358
 5031W        W24565   4.169  16.339  13.038 -0.0086  0.3769 -0.3063
 5032W        W24566   1.250  12.339  15.191 -0.2239 -0.3323 -0.2798
 5033W        W24567   5.948  17.168   2.286 -0.1138  0.2091 -0.1143
 5034W        W24568   5.705   2.383   0.331 -0.0342  0.0425 -0.0434
 5035W        W24569  13.543  15.916   4.288  0.0855 -0.0095  0.1654
 5036W        W24570  10.500   0.734   5.375  0.0873 -0.2951 -0.0649
 5037W        W24571  11.783  17.838  12.434 -0.3213  0.0556 -0.2869
 5038W        W24572   9.309   1.044   5.613 -0.2100 -0.0651 -0.2600
 5039W        W24573  15.500  18.020  12.450 -0.0092  0.1664  0.2749
 5040W        W24574   4.662  13.328  12.977 -0.0422  0.1600  0.2912
 5041W        W24575   7.462  16.251  12.552 -0.1510 -0.0324 -0.1303
 5042W        W24576   6.438   1.068  15.781  0.0505  0.0514  0.0793
 5043W        W24577   7.198  12.169  14.858 -0.0372 -0.1329 -0.0192
 5044W        W24578   4.541   2.709   3.265  0.0662 -0.2444 -0.2965
 5045W        W24579  11.192   1.008   4.892  0.2061  0.3304  0.1560
 5046W        W24580   9.807  10.384   0.402  0.3089 -0.0819  0.0611
 5047W        W24581  16.428   3.514  11.658  0.2859 -0.0249  0.0632
 5048W        W24582  17.006   4.738   2.916 -0.2004  0.1040 -0.0449
 5049W        W24583   9.862   7.741  11.057 -0.0928 -0.1042 -0.0368
 5050W        W24584   1.549  10.214   2.831 -0.0407 -0.0890  0.0096
 5051W        W24585   5.040   8.404  15.021  0.1298  0.0560 -0.2158
 5052W        W24586  16.684  10.046  11.515 -0.0394  0.1786 -0.4074
 5053W        W24587   0.141  11.887   3.782 -0.1373  0.2510  0.1523
 5054W        W24588   4.423   5.230   2.656 -0.0058 -0.0396 -0.0696
 5055W        W24589  15.328   2.726   3.138 -0.0523  0.1766  0.0606
 5056W        W24590   8.888  14.781   3.631 -0.0186  0.3501 -0.3226
 5057W        W24591   2.182  15.072   1.193 -0.1025 -0.0635  0.0240
 5058W        W24592  11.308  16.508  13.288  0.1819 -0.0241  0.2816
 5059W        W24593   4.661   3.389  14.935  0.5168  0.0128 -0.3325
 5060W        W24594  12.014  18.237   4.876  0.0013 -0.2117 -0.1568
 5061W        W24595   4.328   2.770  13.550 -0.3611  0.2655  0.0151
 5062W        W24596   9.714  12.551  11.613  0.1252  0.0520  0.0998
 5063W        W24597   3.486   3.417  10.931 -0.1393 -0.0289 -0.2545
 5064W        W24598   0.254   3.680   2.392 -0.1172 -0.4107  0.4465
 5065W        W24599  13.153  13.951   3.467 -0.0274  0.3720  0.2627
 5066W        W24600   9.366   6.099   4.039  0.2851 -0.1641 -0.1831
 5067W        W24601   2.558   9.764  10.771  0.0831 -0.0264  0.0617
 5068W        W24602   5.211  12.507  13.712  0.0643  0.0106 -0.0385
 5069W        W24603  13.867  12.495   0.959 -0.1728 -0.2663  0.0401
 5070W        W24604   3.834  12.252  15.455  0.0052 -0.0027  0.2258
 5071W        W24605   4.618   4.619   3.684 -0.2488  0.0007  0.0063
 5072W        W24606  13.368   8.412  11.645 -0.0860 -0.0282  0.1520
 5073W        W24607  16.233   1.440   0.686 -0.0892 -0.1380 -0.0211
 5074W        W24608  16.793   5.350  14.790 -0.1704 -0.0784  0.1096
 5075W        W24609  13.888   3.353  11.932 -0.1335  0.0297  0.1948
 5076W        W24610   7.045   3.033  13.452 -0.0236 -0.2361 -0.1430
 5077W        W24611   0.335   5.561  13.497 -0.0277  0.0707  0.0082
 5078W        W24612  17.342  10.081   0.186  0.1281  0.3368  0.0252
 5079W        W24613  16.383   7.311   1.753  0.2924 -0.1921  0.0060
 5080W        W24614  10.495  10.269   2.628 -0.0878  0.0623 -0.1908
 5081W        W24615   9.800   9.475  11.330  0.5650  0.1703  0.2602
 5082W        W24616  14.456  11.832  10.795  0.2082  0.0944  0.0900
 5083W        W24617   2.279  18.339  14.870  0.0584 -0.0728 -0.0631
 5084W        W24618  15.211  12.070  14.595 -0.1607  0.0817 -0.0683
 5085W        W24619   6.616  17.049   1.558  0.0866  0.1953  0.1055
 5086W        W24620   9.293   4.106  15.522  0.0624 -0.0733 -0.1751
 5087W        W24621   8.807  15.259   0.402  0.3217 -0.2007 -0.1183
 5088W        W24622   1.416  17.537  15.658 -0.1998  0.0529 -0.3239
 5089W        W24623   5.734   1.467   3.303 -0.0721 -0.2386  0.2349
 5090W        W24624  17.038   3.453   3.537  0.0995  0.1318  0.0482
 5091W        W24625   1.134   3.046   3.099  0.0109  0.3276  0.2304
 5092W        W24626  16.696   2.410   3.409 -0.0542  0.2521 -0.0078
 5093W        W24627   7.724  14.693  15.380 -0.0982 -0.3051 -0.0427
 5094W        W24628  15.969  18.087  12.290  0.1575  0.0025 -0.1782
 5095W        W24629   5.260  10.883  13.927  0.0273  0.1636  0.0249
 5096W        W24630   9.502  10.609   3.092 -0.0806 -0.1836  0.2557
 5097W        W24631   1.173   7.987  11.045  0.0770 -0.0337  0.0135
 5098W        W24632   7.912  12.898  14.629  0.0806 -0.1191  0.1259
 5099W        W24633   9.632   3.896  12.177  0.0093 -0.2902  0.1785
 5100W        W24634   4.103   1.969   0.969 -0.1941 -0.0577  0.3102
 5101W        W24635  13.590  13.808   1.614  0.1917 -0.2999 -0.1453
 5102W        W24636   3.843   6.346   1.874 -0.0473  0.0015 -0.3232
 5103W        W24637  18.059   8.612  11.545  0.0791 -0.3838 -0.1999
 5104W        W24638   1.682   1.117  11.901 -0.1190  0.0238  0.0416
 5105W        W24639  12.369   2.828  12.544 -0.0363  0.1188  0.1222
 5106W        W24640   6.204  17.291  12.788  0.0015  0.4775  0.4123
 5107W        W24641   9.779  11.802   2.568  0.1658  0.3954  0.2595
 5108W        W24642   8.287   2.996   4.436  0.1540  0.0231  0.3154
 5109W        W24643  16.481   0.811  12.477  0.2271 -0.1406 -0.2474
 5110W        W24644   3.612   7.995   2.903  0.0416 -0.1403  0.0312
 5111W        W24645   7.351   6.557   1.676 -0.0936  0.1850 -0.0215
 5112W        W24646   1.145  11.142  15.210  0.0506  0.3594  0.2393
 5113W        W24647   2.418   8.216   3.901  0.0505  0.0321  0.0680
 5114W        W24648   6.095   7.230   4.213  0.1077  0.0054 -0.1397
 5115W        W24649   4.494  12.398  12.959 -0.3377 -0.2217 -0.0479
 5116W        W24650  13.198   7.827  14.734  0.1842 -0.2474  0.2058
 5117W        W24651   0.689   6.304  15.452 -0.1961 -0.1285 -0.2130
 5118W        W24652  13.136  14.358  12.388 -0.1123  0.1917 -0.0432
 5119W        W24653   8.748   4.436   0.697  0.0520 -0.2818  0.1386
 5120W        W24654   1.047  10.803  14.469  0.1522  0.0520  0.0527
 5121W        W24655   6.455   8.190  14.317 -0.1934 -0.3418 -0.2481
 5122W        W24656   2.762   8.205  12.943  0.0038  0.0925  0.1418
 5123W        W24657   5.788  10.276  14.148 -0.0289  0.0090 -0.0616
 5124W        W24658   0.048   8.321  15.713 -0.2367  0.2958  0.1965
 5125W        W24659  15.653  10.080   4.048  0.0123  0.0593  0.2621
 5126W        W24660   5.861  10.219  11.851 -0.2006  0.1441  0.1849
 5127W        W24661  14.522   7.498   1.123 -0.3593  0.0452 -0.0590
 5128W        W24662   4.246   3.191  13.925  0.0116 -0.0542  0.0292
 5129W        W24663   7.887  10.196  14.011 -0.1611 -0.0245 -0.0476
 5130W        W24664   0.507   9.628  11.578  0.2512 -0.0665 -0.0170
 5131W        W24665   5.722   6.307  15.719 -0.1439  0.1807 -0.1388
 5132W        W24666  16.096   9.488   3.854  0.1253 -0.1795 -0.0133
 5133W        W24667   0.581   0.571   2.158 -0.1643 -0.2721  0.2249
 5134W        W24668   7.528   7.218  12.062  0.0837  0.0753 -0.1335
 5135W        W24669  11.905   7.596  13.733 -0.0578 -0.0416  0.2680
 5136W        W24670  10.803   3.841   1.832  0.1229 -0.0494  0.1388
 5137W        W24671   0.879   2.885  13.632 -0.1292 -0.2160  0.2900
 5138W        W24672  17.386  16.288  14.116  0.2971  0.1617  0.1291
 5139W        W24673  11.845   5.883  13.458  0.3012 -0.0312 -0.0378
 5140W        W24674  13.446  11.191  13.747 -0.0242  0.1715 -0.1242
 5141W        W24675   8.065  17.913  12.514  0.1191 -0.0961 -0.1558
 5142W        W24676  18.169   5.673   0.027  0.0552 -0.0113  0.1317
 5143W        W24677  11.919  18.333   0.182  0.1865 -0.0217  0.1277
 5144W        W24678   2.830  17.782  11.569  0.0428 -0.3297 -0.0622
 5145W        W24679  10.131  15.014  14.677 -0.0492 -0.2672 -0.1652
 5146W        W24680  14.033  10.510   0.947 -0.0850  0.0895 -0.1950
 5147W        W24681   6.414  15.744   5.457 -0.0785 -0.1205  0.1765
 5148W        W24682   6.560  13.260  12.545  0.2084  0.2479 -0.1175
 5149W        W24683  13.790  15.311   0.654  0.0261  0.1615  0.2732
 5150W        W24684   9.626   3.620  12.595  0.1346 -0.0235  0.2526
 5151W        W24685   9.619   0.373  14.960  0.1663 -0.0372  0.2616
 5152W        W24686  14.487   2.635  11.819  0.3297  0.0888 -0.2539
 5153W        W24687   7.830  15.743   2.564  0.2667  0.2120  0.0030
 5154W        W24688   5.534   8.848   2.583  0.0876  0.0878  0.2063
 5155W        W24689   6.527   1.307  12.067  0.2107 -0.1666  0.2960
 5156W        W24690   2.200  12.742   3.750 -0.1015  0.2100  0.1831
 5157W        W24691   2.538   1.374  11.820  0.2874 -0.2672 -0.1042
 5158W        W24692  11.737   6.416   0.452  0.2193  0.1015  0.2882
 5159W        W24693  14.429   2.315  11.199 -0.0341 -0.2514  0.1469
 5160W        W24694   0.176  16.842   1.482  0.0560  0.2756  0.1916
 5161W        W24695  12.776  14.139  12.899 -0.0000  0.0811  0.3535
 5162W        W24696   8.963   0.642  13.869  0.2068  0.0911  0.1750
 5163W        W24697  12.220   3.979   4.006  0.0857  0.0227  0.0345
 5164W        W24698   6.020  11.846  12.226 -0.2893  0.1170 -0.0126
 5165W        W24699  11.883   7.176   2.269 -0.2397  0.1305  0.0918
 5166W        W24700   9.641  15.855  15.255  0.0926 -0.0790 -0.0713
 5167W        W24701   3.156   7.091   3.963 -0.1409  0.2165 -0.2127
 5168W        W24702   3.311  11.336   0.151 -0.0566 -0.0430 -0.1111
 5169W        W24703  17.598  10.235   3.882 -0.1181 -0.3921 -0.1789
 5170W        W24704  15.138  17.025   2.476  0.1997  0.0877 -0.1592
 5171W        W24705  12.318  11.522  15.412  0.0495 -0.0056  0.1629
 5172W        W24706  12.890  15.906  11.788 -0.2504  0.1539  0.2183
 5173W        W24707   1.008   8.838   3.292 -0.0765  0.0576  0.5735
 5174W        W24708   5.075   8.314  11.863 -0.0827 -0.0983 -0.0935
 5175W        W24709   8.756  13.710  15.676 -0.0058 -0.0154 -0.1033
 5176W        W24710   0.254   6.751   5.322  0.2818  0.2525 -0.1639
 5177W        W24711   0.063   4.480   3.747  0.0601  0.1755 -0.1176
 5178W        W24712   1.897  15.144   0.219 -0.1371 -0.0394 -0.1031
 5179W        W24713  10.409   3.858  13.631  0.1721  0.1381  0.0612
 5180W        W24714   5.592   3.306   4.533 -0.0918 -0.3384  0.0408
 5181W        W24715  14.502  10.798   1.915 -0.3054 -0.0960 -0.0230
 5182W        W24716  10.883   7.718  13.530  0.2659  0.3039 -0.0705
 5183W        W24717   2.721  15.659  12.462  0.1644 -0.4036 -0.3220
 5184W        W24718   2.433   0.682   4.098  0.0877  0.0828  0.1972
 5185W        W24719   8.273   0.148   2.266 -0.1809 -0.0478  0.0583
 5186W        W24720   7.343   3.996   3.630  0.1524 -0.0748  0.1858
 5187W        W24721  11.431  16.214   0.508 -0.1809 -0.2841  0.0369
 5188W        W24722   3.260   8.018   4.123 -0.0202 -0.3367 -0.1080
 5189W        W24723  17.467   2.033   3.737 -0.1830  0.1194  0.2727
 5190W        W24724  18.375   3.989   3.980 -0.2694  0.1151  0.2367
 5191W        W24725   4.511   5.329   0.462  0.3017 -0.0968  0.2144
 5192W        W24726   5.730   7.593   1.912 -0.1078  0.1390  0.4016
 5193W        W24727  13.882  18.105   4.153 -0.3293  0.0481  0.0707
 5194W        W24728   5.378  16.057   0.098  0.1053 -0.2464  0.1815
 5195W        W24729  10.848  14.256  15.426  0.3135  0.1199  0.2584
 5196W        W24730  14.250   3.576  13.543  0.0293  0.0592 -0.0775
 5197W        W24731  12.497  10.677   0.633 -0.0347  0.1704 -0.0423
 5198W        W24732   3.387   5.547  10.845 -0.0150  0.2272 -0.1055
 5199W        W24733  17.245  15.451   4.552 -0.2030  0.1257  0.3396
 5200W        W24734   4.168  13.754  13.789 -0.2721  0.2142 -0.2579
 5201W        W24735  10.895  11.763  15.511 -0.3149  0.2033  0.5309
 5202W        W24736  11.235   8.140  12.709  0.2182  0.0100 -0.1678
 5203W        W24737   3.790   8.458  11.227 -0.1126  0.1132 -0.1941
 5204W        W24738   5.266  11.907   4.994  0.4766  0.0556 -0.2367
 5205W        W24739   1.643   8.432   2.536 -0.0059  0.1545 -0.3789
 5206W        W24740   2.303   9.445   0.147 -0.0814  0.2837  0.0818
 5207W        W24741  16.862   7.540   0.182 -0.1216 -0.2025 -0.1167
 5208W        W24742   9.254  13.965   0.029  0.2342 -0.0138 -0.0286
 5209W        W24743  17.467   6.372  14.923 -0.0697  0.3704  0.1880
 5210W        W24744   2.849  12.769   3.194  0.4403  0.3912  0.0850
 5211W        W24745  13.633  13.063  12.750  0.0400 -0.2216 -0.2464
 5212W        W24746  11.385   1.332   3.850  0.1728 -0.0078 -0.1001
 5213W        W24747   7.110   1.338   0.642  0.0828  0.1908 -0.1745
 5214W        W24748  10.945   1.249  13.189  0.1123  0.0688 -0.2637
 5215W        W24749   5.473  10.031  12.106 -0.0319  0.0756  0.2105
 5216W        W24750   5.551   7.123  14.167 -0.1568 -0.0329  0.0876
 5217W        W24751  14.240  16.151  12.816  0.0926 -0.0224 -0.1800
 5218W        W24752  13.166  14.945  12.116  0.2107 -0.1377  0.2051
 5219W        W24753  10.349  15.457   3.017  0.1221 -0.1054 -0.0612
 5220W        W24754   8.037   4.528  13.919 -0.2368 -0.0205 -0.3853
 5221W        W24755   0.299  16.854   4.173 -0.1464  0.1837  0.0182
 5222W        W24756   2.945   1.874   3.802  0.0876  0.0774  0.1635
 5223W        W24757   6.098  11.904   0.094  0.3030  0.1468 -0.2045
 5224W        W24758   2.695   2.838  13.925 -0.3388 -0.0093  0.3887
 5225W        W24759   1.350   9.584  12.103 -0.0086  0.1774 -0.4896
 5226W        W24760  10.946  17.449   3.182 -0.0232 -0.0862 -0.2948
 5227W        W24761   0.769  11.127  13.181 -0.2090 -0.1649 -0.1918
 5228W        W24762   0.611   7.544  12.541 -0.0453 -0.2863  0.2201
 5229W        W24763   5.973   5.626  15.388  0.0397  0.0473  0.2578
 5230W        W24764  14.430   1.079  13.543 -0.1697 -0.0361 -0.1633
 5231W        W24765  11.789  13.048   1.245 -0.0149 -0.2305 -0.0353
 5232W        W24766  10.011  13.254  13.587  0.5763 -0.0539  0.1215
 5233W        W24767   5.760  11.213  15.136 -0.2176  0.0035  0.1067
 5234W        W24768   2.789   1.092  14.263 -0.0388 -0.2939 -0.0829
 5235W        W24769   8.391   4.418   1.024  0.2915  0.0516 -0.1415
 5236W        W24770   4.009   0.551   2.110  0.1172 -0.1409  0.0947
 5237W        W24771  10.289   4.893   3.258 -0.0354 -0.2798 -0.1619
 5238W        W24772   4.557   7.534  15.185 -0.2301 -0.0745 -0.3029
 5239W        W24773  10.219  17.686   2.522 -0.1061 -0.0809 -0.0309
 5240W        W24774  14.116  14.649   4.395  0.1219  0.2866 -0.0725
 5241W        W24775  10.771  11.079  12.028 -0.0125  0.2058 -0.4583
 5242W        W24776  12.963   3.434   3.663  0.0875  0.1871  0.4381
 5243W        W24777   5.664   4.347   1.560 -0.1193  0.1357 -0.0761
 5244W        W24778   5.653  17.677   0.536  0.0687 -0.2072  0.0966
 5245W        W24779   5.233   5.781   3.491 -0.1671 -0.3891  0.0425
 5246W        W24780   2.788   7.657   0.085 -0.0072 -0.0171 -0.1952
 5247W        W24781  14.129   9.654   1.656 -0.3650 -0.2277  0.2514
 5248W        W24782   1.134  11.674  13.983  0.1899 -0.1316 -0.0243
 5249W        W24783  15.057  13.788  13.214  0.4308 -0.1557 -0.2272
 5250W        W24784   6.110   0.891  12.946 -0.0679 -0.2446  0.0176
 5251W        W24785   7.942   6.640   1.197  0.2740 -0.2012  0.0266
 5252W        W24786   5.412  13.931   0.289 -0.2153  0.2140 -0.0030
 5253W        W24787  16.437   5.242   0.986  0.0545 -0.0954 -0.2238
 5254W        W24788   5.125   7.000  13.075 -0.2083  0.1255  0.1734
 5255W        W24789  15.453   6.981   1.500  0.1687  0.0319  0.0177
 5256W        W24790  17.010  11.118   4.367 -0.1449  0.0460 -0.0486
 5257W        W24791  11.867  11.706  14.497 -0.1273  0.1654 -0.2253
 5258W        W24792  11.172   0.572   3.162 -0.1895 -0.0673 -0.2853
 5259W        W24793   1.351  17.782   0.544 -0.1336 -0.2167 -0.3667
 5260W        W24794  13.430   8.821  11.959  0.1269  0.0656 -0.0477
 5261W        W24795  12.115  16.854  14.432  0.0646  0.1152  0.1092
 5262W        W24796  16.290  10.908   0.385  0.1888  0.0427  0.2317
 5263W        W24797   0.928   4.374   4.053  0.0363  0.2368 -0.1808
 5264W        W24798   0.169   3.634   3.705  0.0747  0.0568  0.0595
 5265W        W24799   2.498   6.054  15.697 -0.2846 -0.3622 -0.2364
 5266W        W24800   7.686   9.921   0.150  0.1031 -0.0845  0.2565
 5267W        W24801   4.094  13.286  12.572 -0.0248 -0.0754  0.0760
 5268W        W24802   9.868  14.325   2.309  0.1981  0.1261 -0.1544
 5269W        W24803  14.279  11.397  15.187 -0.2024 -0.2422  0.2649
 5270W        W24804  12.748   3.779   3.263 -0.0707 -0.0260 -0.3549
 5271W        W24805   6.504   9.561  13.201  0.0130 -0.2286  0.2277
 5272W        W24806  15.297   2.719  15.487 -0.1303 -0.0661 -0.2883
 5273W        W24807   3.317   7.518  10.969  0.3845  0.0167  0.2476
 5274W        W24808   9.807   9.434   0.149 -0.2138 -0.2285 -0.2656
 5275W        W24809   1.586   8.530   4.011 -0.1134  0.0719 -0.0324
 5276W        W24810  14.458  17.361   2.854 -0.1111 -0.1355  0.0266
 5277W        W24811   9.594  13.485   1.857  0.3255 -0.0792 -0.2131
 5278W        W24812   5.337   4.086  13.380 -0.2130  0.3566  0.2263
 5279W        W24813   6.098   7.935  15.780 -0.5492 -0.3071  0.0006
 5280W        W24814   1.434  16.459   4.414 -0.4352 -0.1227  0.2322
 5281W        W24815   5.509  12.445  11.455 -0.0945 -0.0858 -0.1632
 5282W        W24816   2.674  10.553   0.916  0.1732  0.1489 -0.1886
 5283W        W24817   4.591   2.771  11.536 -0.0491 -0.5256  0.0095
 5284W        W24818   8.413  18.296   2.740 -0.1132 -0.1800 -0.3520
 5285W        W24819   8.128  18.311  15.759 -0.2927  0.0568 -0.0763
 5286W        W24820   1.220   5.558  11.894 -0.0185  0.0297  0.1338
 5287W        W24821  14.916   6.560  11.233  0.0412 -0.1064  0.0468
 5288W        W24822   3.647   2.982   1.758 -0.1107 -0.2198  0.1228
 5289W        W24823   7.503   7.613  12.977  0.1944 -0.0639 -0.1961
 5290W        W24824   3.994  18.311  11.759 -0.0401 -0.0664 -0.1911
 5291W        W24825   0.842   9.227  10.306 -0.0375 -0.1127 -0.1075
 5292W        W24826   9.059   1.488   2.475  0.0543  0.1190 -0.0568
 5293W        W24827   1.024   6.719   2.639  0.0564  0.2084 -0.1293
 5294W        W24828  17.391   5.705  11.452 -0.0689  0.0705 -0.2682
 5295W        W24829  14.434   9.309   2.954 -0.1329 -0.1672  0.2027
 5296W        W24830   9.136   3.716   3.962 -0.1487  0.3601  0.1363
 5297W        W24831   4.261  13.315   3.983  0.1721 -0.3031  0.0890
 5298W        W24832   3.322  16.182   3.219 -0.0257 -0.0847  0.1927
 5299W        W24833   7.879   3.429   3.191 -0.0234 -0.1279 -0.1918
 5300W        W24834  15.572   6.088   0.574  0.2761 -0.0223 -0.2024
 5301W        W24835   9.276   7.122   3.452  0.1920 -0.1124 -0.2567
 5302W        W24836  16.644   1.174   4.072  0.0259 -0.3204  0.0819
 5303W        W24837  13.720   4.309  14.327  0.0826  0.3194 -0.0161
 5304W        W24838  10.266  15.269  13.404 -0.1978 -0.0904 -0.1174
 5305W        W24839  15.954  16.412   4.294 -0.1124 -0.3226  0.1412
 5306W        W24840  17.979   5.340   3.103  0.0437 -0.1407 -0.1666
 5307W        W24841  14.788   3.468   3.934  0.1878 -0.0202  0.2240
 5308W        W24842   7.572   7.412  15.507 -0.2341 -0.2417  0.0477
 5309W        W24843   7.153   7.689   0.870 -0.1388 -0.1862 -0.4074
 5310W        W24844  10.238  12.655  13.985  0.0537 -0.3671 -0.1848
 5311W        W24845   4.231  17.721   0.807 -0.0466 -0.2688  0.2682
 5312W        W24846   6.204   8.448   3.300  0.3051  0.1764 -0.0412
 5313W        W24847   8.389  10.263   0.457 -0.1868 -0.1445  0.4682
 5314W        W24848   1.619  13.382   3.261 -0.0962  0.4116 -0.2278
 5315W        W24849  17.470  15.330   1.586  0.0588 -0.0936  0.1318
 5316W        W24850   8.830   0.316  11.671  0.0933 -0.0120 -0.3640
 5317W        W24851   3.910   3.957  11.774  0.0152  0.0055 -0.3769
 5318W        W24852  17.462  10.850  12.415  0.1402  0.4143  0.0930
 5319W        W24853   1.634   9.158  11.099 -0.0449 -0.0054 -0.1499
 5320W        W24854   1.098   0.977   5.403 -0.1757 -0.0995 -0.0549
 5321W        W24855  17.217  14.847  14.020  0.0522  0.0144 -0.0723
 5322W        W24856   8.298  13.642   3.715  0.0465  0.2788 -0.0977
 5323W        W24857  16.644   3.038  12.416 -0.1339  0.0409  0.3876
 5324W        W24858  16.983  18.010   0.243  0.1287  0.4859 -0.3117
 5325W        W24859  16.322   5.591  14.306  0.1247 -0.1195 -0.2041
 5326W        W24860   4.408   9.744  15.522 -0.1503 -0.0859 -0.0555
 5327W        W24861  14.489  13.871   2.665 -0.3265  0.0503 -0.0383
 5328W        W24862  11.508   3.613  14.249  0.1372 -0.1490  0.0840
 5329W        W24863   1.433  16.097   2.673 -0.1813 -0.0751  0.1089
 5330W        W24864  10.024  15.575  12.412 -0.1929  0.0090 -0.2156
 5331W        W24865  15.892   7.556   4.585  0.0573 -0.0281 -0.2774
 5332W        W24866   2.916  10.904   3.014 -0.2277  0.0150  0.0257
 5333W        W24867   5.635  12.548  12.917 -0.0515 -0.0951  0.0038
 5334W        W24868   1.896   0.336  15.220 -0.0689  0.1145  0.0214
 5335W        W24869  13.245  15.637  15.524 -0.3462 -0.0460 -0.0604
 5336W        W24870   2.569   8.311   2.743 -0.0550  0.2346 -0.0608
 5337W        W24871  13.642   2.632   4.508 -0.2525 -0.1986 -0.0609
 5338W        W24872  17.537   7.543   0.462  0.0910  0.0221 -0.0243
 5339W        W24873   6.705  14.359   0.973  0.0296 -0.1734 -0.0794
 5340W        W24874   1.495   8.762  13.354 -0.2175  0.0953 -0.0069
 5341W        W24875   1.614  16.968  15.697 -0.1119 -0.0775 -0.0266
 5342W        W24876   8.762  15.068   2.778 -0.1610 -0.1261 -0.2151
 5343W        W24877  12.717   0.652  15.075  0.0181  0.2414  0.1232
 5344W        W24878  15.066   5.154  13.338 -0.0654  0.0133  0.1385
 5345W        W24879  12.580  15.621  13.900  0.1132 -0.0850  0.0134
 5346W        W24880   8.090  14.761  12.137 -0.0206 -0.2940  0.1248
 5347W        W24881   9.764  16.957  15.368  0.0640 -0.2274 -0.1022
 5348W        W24882   1.237  14.126  11.739  0.0397 -0.1359  0.1104
 5349W        W24883   7.371   3.083   1.290  0.1893 -0.1345 -0.0741
 5350W        W24884  12.949   7.594   3.631  0.0182 -0.1889  0.3623
 5351W        W24885  18.293   7.569   2.720  0.1095 -0.0017  0.0989
 5352W        W24886  11.450  18.343   2.291  0.0381  0.2756  0.1180
 5353W        W24887   8.548  12.663   0.510  0.2311  0.1240  0.0236
 5354W        W24888  13.946  10.123  14.434 -0.0040 -0.2083 -0.2461
 5355W        W24889  12.870   1.763  12.668 -0.0451  0.1686  0.2807
 5356W        W24890  11.759   5.533   1.208  0.0226 -0.2706  0.0284
 5357W        W24891  16.500  15.045   2.365  0.1993  0.0873 -0.0885
 5358W        W24892  12.782  17.425   1.700  0.0443  0.4594  0.3092
 5359W        W24893   6.782  14.543  12.465 -0.0471  0.1580  0.0368
 5360W        W24894  11.167  12.248  14.110 -0.1399 -0.0612  0.1037
 5361W        W24895   0.257   9.299  15.699 -0.3134  0.1049 -0.1071
 5362W        W24896   5.145   1.692   0.759  0.1506  0.0755 -0.1512
 5363W        W24897   0.746   0.929  12.498  0.2952 -0.0560 -0.1322
 5364W        W24898  10.080   3.087  13.278  0.1672 -0.1940 -0.1705
 5365W        W24899   6.224   9.188  14.780  0.0502  0.0029 -0.0192
 5366W        W24900   3.024   3.133   2.376 -0.1793 -0.1063 -0.0822
 5367W        W24901  15.685   8.205   3.303 -0.3731 -0.0608 -0.2778
 5368W        W24902   2.875  17.781   1.115 -0.3230 -0.0960  0.1755
 5369W        W24903  10.760  14.173   1.816  0.1329  0.2068  0.0213
 5370W        W24904   1.842  12.700  13.422 -0.1719  0.1574 -0.1657
 5371W        W24905  15.040   1.645   1.877  0.2159  0.0119  0.1729
 5372W        W24906   1.721   3.575  12.897  0.0563  0.0402  0.1773
 5373W        W24907  13.158   4.961  14.180 -0.1392  0.2200 -0.1789
 5374W        W24908  14.354  17.800   5.491 -0.1441  0.0351 -0.1743
 5375W        W24909   7.911  13.630  12.515 -0.1556  0.1956 -0.1321
 5376W        W24910  14.608   9.552   2.541  0.0003  0.2406 -0.3192
 5377W        W24911   7.871   7.048  15.230  0.0367 -0.1613 -0.0252
 5378W        W24912   9.274  17.866   1.107 -0.1996 -0.1657  0.1931
 5379W        W24913   3.879   7.383   0.109  0.0245  0.0484 -0.3319
 5380W        W24914   6.930   3.910  14.529 -0.0225  0.1254  0.0562
 5381W        W24915   0.189   2.341   1.156  0.0639 -0.1415 -0.1391
 5382W        W24916   1.179  17.653  14.540 -0.0615 -0.0984  0.2417
 5383W        W24917   7.352   4.670  11.641  0.1965 -0.3349 -0.0506
 5384W        W24918   0.433  14.085   4.209 -0.1802 -0.0458  0.2615
 5385W        W24919   1.029  11.156   2.301  0.0084 -0.2181 -0.2428
 5386W        W24920   1.679  16.138  11.680 -0.2226 -0.0016  0.0288
 5387W        W24921  10.595   6.808   2.465  0.2788 -0.2328  0.0764
 5388W        W24922   1.668   5.078   0.405  0.1012  0.2439 -0.0217
 5389W        W24923   1.405  17.228  12.439  0.2222 -0.2409 -0.1146
 5390W        W24924   0.334  14.067  10.501 -0.0874 -0.0141  0.4425
 5391W        W24925   6.624  13.153  10.501  0.0203 -0.1003 -0.0328
 5392W        W24926   6.600   4.667   1.388  0.0412  0.0353 -0.0942
 5393W        W24927  15.540   5.221   0.854 -0.1210  0.1959  0.1335
 5394W        W24928   3.614  15.599  13.225  0.1318  0.0031 -0.0335
 5395W        W24929  15.528   9.085  12.909 -0.3228 -0.2826  0.0663
 5396W        W24930  15.395   3.009   1.372  0.0382  0.0540  0.1904
 5397W        W24931  14.528   7.327  15.691  0.3832  0.0287  0.1422
 5398W        W24932  16.582  15.016   4.196 -0.0511  0.0005 -0.1093
 5399W        W24933  15.559   7.406  13.053  0.0697 -0.0990  0.1079
 5400W        W24934   4.198   5.757   4.057  0.0701 -0.3478  0.0099
 5401W        W24935   5.214  14.092   5.273 -0.0969 -0.0847  0.1316
 5402W        W24936   4.859  12.286  14.070  0.2498  0.0515  0.0260
 5403W        W24937   8.105   5.881  14.186 -0.1542 -0.1022  0.2537
 5404W        W24938  17.193   9.490   2.516  0.2344 -0.1024 -0.1810
 5405W        W24939  12.231  10.711  15.123 -0.0621  0.3592 -0.0537
 5406W        W24940   7.060   0.910   2.758 -0.0787  0.2258 -0.3263
 5407W        W24941   9.679  18.169  10.554 -0.1410  0.2933 -0.3015
 5408W        W24942   1.921  14.038  11.878  0.1338  0.2006  0.3611
 5409W        W24943  18.234   7.998   3.525  0.2652  0.0252 -0.0842
 5410W        W24944   1.976   3.416  14.156 -0.2386 -0.0675 -0.0129
 5411W        W24945  15.751   3.592   0.427 -0.1353  0.4196  0.1365
 5412W        W24946   9.546   0.146   3.119 -0.0070  0.0791  0.0772
 5413W        W24947   5.923  15.281   0.724  0.0706  0.0472 -0.1302
 5414W        W24948   9.942  11.171   1.378 -0.2395  0.1418  0.1129
 5415W        W24949   6.059   2.656  13.259  0.0926  0.1692  0.1967
 5416W        W24950   1.670  17.822   0.148 -0.0686 -0.1479 -0.0804
 5417W        W24951  15.463   1.018  12.769  0.4449  0.0772 -0.1399
 5418W        W24952  14.480  15.627  15.637  0.1512  0.0773 -0.1411
 5419W        W24953   0.303  11.582   0.496 -0.2463 -0.1926  0.0882
 5420W        W24954  17.949   3.693   3.906  0.3453  0.1131 -0.0462
 5421W        W24955   4.549   2.784  15.563 -0.2280  0.1806  0.0419
 5422W        W24956   0.440  10.564   2.180  0.1638 -0.0768  0.0596
 5423W        W24957   5.538  18.231   2.150  0.0778 -0.1926 -0.1842
 5424W        W24958  13.879  10.916   3.551  0.0087 -0.1950  0.3301
 5425W        W24959  16.364  16.121   4.388 -0.1613 -0.1766 -0.1605
 5426W        W24960   5.506  14.965   4.522  0.0702 -0.1847 -0.0774
 5427W        W24961  16.424   1.329  15.120 -0.1801  0.0340  0.3183
 5428W        W24962  15.716  10.080   0.213 -0.2188  0.0142 -0.1094
 5429W        W24963   3.159  13.393   0.311 -0.0848  0.0397 -0.4858
 5430W        W24964   6.265  17.471  13.864 -0.0936  0.1343  0.2174
 5431W        W24965  18.226  16.359  13.947 -0.3531  0.2032 -0.0314
 5432W        W24966   3.780  14.544  12.765  0.3249 -0.1658  0.0630
 5433W        W24967  13.280   4.272   1.064 -0.1823  0.1418  0.0118
 5434W        W24968  16.281  17.359   0.020 -0.0091 -0.3096 -0.2023
 5435W        W24969  17.793   9.856  15.243 -0.1005 -0.0397  0.0554
 5436W        W24970   9.337  11.404   1.797  0.0171 -0.0423  0.3627
 5437W        W24971  17.334   2.187  11.341  0.5033 -0.2285  0.2617
 5438W        W24972  11.739  14.247  12.312  0.0177  0.2062 -0.1496
 5439W        W24973  10.399   4.959   4.528  0.1478  0.0485  0.2611
 5440W        W24974  11.061   4.770  14.954  0.1416 -0.3864 -0.0022
 5441W        W24975   8.393   1.313   4.241  0.0147 -0.3047 -0.1142
 5442W        W24976  14.442  18.063   2.042 -0.0886  0.0241  0.3674
 5443W        W24977   8.288   1.425  14.580  0.0390  0.0639 -0.0798
 5444W        W24978  13.642  16.256   5.091  0.3991  0.3553 -0.2063
 5445W        W24979   0.844   3.460  15.761  0.0031 -0.0407 -0.1905
 5446W        W24980   8.197  16.760  13.419  0.1232 -0.2590 -0.0656
 5447W        W24981  16.862   6.804   2.245  0.4883 -0.2086 -0.1337
 5448W        W24982   4.287   8.821  11.997 -0.0018 -0.0084 -0.1983
 5449W        W24983  17.817   2.377   3.988 -0.3488  0.4958 -0.0732
 5450W        W24984   3.909   8.305   4.096 -0.1309 -0.0593 -0.0606
 5451W        W24985   5.662   8.244  15.643 -0.1383  0.0475 -0.1015
 5452W        W24986   3.501   1.237   0.949 -0.2625 -0.1235 -0.3307
 5453W        W24987   8.902   1.224   5.371 -0.1631 -0.0415  0.2695
 5454W        W24988   1.570   2.551   3.633 -0.0891 -0.2126  0.1279
 5455W        W24989   0.119   7.049  12.226  0.0052 -0.1033 -0.1054
 5456W        W24990  15.119   7.239   4.339 -0.1258 -0.0911  0.1645
 5457W        W24991   2.006   8.199  11.947  0.0075  0.1807 -0.0592
 5458W        W24992   5.356   8.895   3.060 -0.1664  0.0946  0.1959
 5459W        W24993   7.540   1.200  11.889 -0.0817  0.2377  0.1333
 5460W        W24994   4.236  13.790  11.771 -0.1443 -0.2876  0.0661
 5461W        W24995  10.989   6.887   0.629  0.0634  0.3471 -0.2309
 5462W        W24996   9.270   6.032  13.487  0.0059 -0.2601  0.0708
 5463W        W24997  10.302   7.078   2.015 -0.1700  0.1148 -0.0682
 5464W        W24998   3.258  12.671   4.644  0.0470 -0.0269 -0.2169
 5465W        W24999  16.141  10.851  11.516  0.0013  0.0021 -0.0004
 5466W        W25000  17.237   1.316   1.166 -0.0239  0.1473 -0.1535
 5467W        W25001  11.395  11.175  11.408  0.2120  0.0455  0.0717
 5468W        W25002   1.934   9.032   4.027 -0.2478  0.0326  0.1038
 5469W        W25003  11.666   8.092  12.345  0.5054  0.1685 -0.1891
 5470W        W25004  16.947   6.565   2.646  0.1758  0.1407 -0.0244
 5471W        W25005  14.267  16.674  12.524 -0.0095 -0.1540 -0.0233
 5472W        W25006   8.620   1.753   2.361  0.0913 -0.0662  0.0578
 5473W        W25007  11.103  13.851  13.608 -0.3741 -0.2707 -0.1069
 5474W        W25008   4.276   3.226   4.308  0.1014 -0.0232 -0.0036
 5475W        W25009  14.442   2.006   4.067  0.2479 -0.2436  0.3580
 5476W        W25010  10.343   6.601  12.809  0.2414 -0.0025  0.0833
 5477W        W25011  13.069  11.836   1.187  0.3056 -0.0357 -0.2419
 5478W        W25012   6.876  12.304  15.311  0.0834 -0.3114  0.1501
 5479W        W25013  18.258   3.931  15.421  0.1089 -0.1124  0.0225
 5480W        W25014   7.418  17.370   2.163 -0.1176  0.1828  0.1316
 5481W        W25015  12.139   9.532   0.713  0.1621  0.2406 -0.3638
 5482W        W25016   8.752   7.498   0.240 -0.1344 -0.3117 -0.1097
 5483W        W25017   2.599   4.858  11.823  0.0747  0.1994 -0.3007
 5484W        W25018   8.687   9.454  15.168  0.2959  0.0644  0.3389
 5485W        W25019   6.666   2.344   4.380  0.1725 -0.0035  0.2282
 5486W        W25020   2.626   1.762  15.100  0.0044  0.0601  0.0923
 5487W        W25021   8.951  13.637   0.862  0.0150 -0.3303  0.2173
 5488W        W25022  16.378   8.413  10.006  0.2436  0.0311 -0.1455
 5489W        W25023  10.553  11.248  12.459  0.3938  0.5041  0.1081
 5490W        W25024   0.988  11.443   3.937  0.2358 -0.0063  0.0994
 5491W        W25025   8.653  12.007  13.286 -0.0309 -0.0125 -0.1367
 5492W        W25026  10.570  11.468  15.692  0.3493 -0.1219 -0.2920
 5493W        W25027  10.098  12.349  14.344  0.0910  0.0535 -0.0097
 5494W        W25028   7.862   8.378  11.626 -0.0030 -0.3156 -0.1044
 5495W        W25029   6.789  16.481  11.449  0.0610 -0.1120  0.0463
 5496W        W25030   1.132  11.087   1.764 -0.2492 -0.0244 -0.0434
 5497W        W25031  17.150   3.379   0.610 -0.4484 -0.1921  0.1869
 5498W        W25032   2.974  15.149   4.061 -0.0387 -0.0571  0.3124
 5499W        W25033   0.180   9.146  14.765 -0.1827 -0.0850  0.0723
 5500W        W25034   9.631  10.664  11.795  0.2241 -0.0687  0.0866
 5501W        W25035  16.646   2.911  12.946  0.2246  0.0397 -0.3580
 5502W        W25036  11.934   6.575   3.893 -0.1885 -0.0205  0.1884
 5503W        W25037   4.740   6.403   2.035  0.0246  0.1162  0.0887
 5504W        W25038  15.736  10.619   3.298  0.0187  0.2529 -0.3100
 5505W        W25039   0.440   3.327  13.059 -0.0219  0.1952 -0.0458
 5506W        W25040  16.316  14.825   1.256  0.0048 -0.1340 -0.0370
 5507W        W25041  17.080  12.699  11.795 -0.1728 -0.1763  0.1437
 5508W        W25042   5.559   7.842   3.210 -0.1504  0.2568 -0.0002
 5509W        W25043   1.651   7.941  14.870 -0.0183 -0.1000 -0.0238
 5510W        W25044  13.589  15.656  14.218 -0.1879 -0.1153 -0.1468
 5511W        W25045   5.159   5.789   2.479 -0.0844 -0.0376  0.0416
 5512W        W25046  15.047  16.093   2.063  0.2247 -0.1972 -0.1525
 5513W        W25047   0.005   1.378  12.181 -0.3550  0.0589 -0.1722
 5514W        W25048  17.859  11.978  13.985  0.1688 -0.4008  0.1533
 5515W        W25049  10.870  14.622   0.310  0.0316 -0.0619 -0.3296
 5516W        W25050   9.084  14.106   5.236  0.2111 -0.0098 -0.1227
 5517W        W25051   8.121  12.849  12.904 -0.0576 -0.0471  0.2316
 5518W        W25052   1.448  16.653  12.464  0.0539 -0.0872  0.2505
 5519W        W25053   0.659   8.391   1.615  0.1634  0.1113  0.1447
 5520W        W25054   0.212  13.734   5.485 -0.5394 -0.2065 -0.0314
 5521W        W25055   0.411   7.637  13.969 -0.1156 -0.2496  0.0564
 5522W        W25056  11.467   9.442  11.741 -0.0229 -0.0196 -0.1766
 5523W        W25057  18.267  13.063  12.480  0.0400 -0.2278 -0.0351
 5524W        W25058   2.871   0.583   1.120 -0.0185  0.1285  0.0486
 5525W        W25059   8.564  10.238   0.931  0.1691 -0.1413 -0.3227
 5526W        W25060  12.414   5.119   1.965 -0.0491 -0.3096  0.0644
 5527W        W25061   3.863   4.750  15.796 -0.3740  0.0847  0.3515
 5528W        W25062  11.686   6.451   1.723  0.0867  0.1082 -0.0933
 5529W        W25063   1.100   7.840   4.800  0.0454 -0.3193 -0.0878
 5530W        W25064   5.050   5.423  12.734  0.1896 -0.1365 -0.0112
 5531W        W25065  10.232  11.521  12.097 -0.1513 -0.2202  0.2333
 5532W        W25066  16.733  13.136   3.478 -0.1421  0.3631 -0.0491
 5533W        W25067   0.349   1.368  10.978  0.2525  0.1367  0.3647
 5534W        W25068  18.183   9.200  12.272 -0.2626  0.0311  0.0001
 5535W        W25069   4.214  17.087  14.827  0.1045  0.3955  0.0046
 5536W        W25070  16.606  11.403   4.288 -0.1437 -0.3737 -0.0400
 5537W        W25071  14.811   8.066  11.288  0.2525  0.0004  0.3347
 5538W        W25072   5.804  13.365   1.117 -0.2210  0.2294  0.0322
 5539W        W25073   8.378  10.778   3.838 -0.2580  0.3353  0.0222
 5540W        W25074   3.320   4.701   2.275 -0.2953  0.1134 -0.0445
 5541W        W25075  10.587  12.814  14.744 -0.4713  0.0516 -0.2009
 5542W        W25076   1.736  14.821   2.594 -0.2304  0.0869 -0.3135
 5543W        W25077   0.898   9.059  15.345 -0.1805 -0.1073 -0.2467
 5544W        W25078  13.517  17.781   1.531  0.1555  0.2374 -0.0368
 5545W        W25079  12.356   0.738  11.907 -0.2502 -0.3234  0.0561
 5546W        W25080   7.245   1.992  13.555  0.3648  0.0239 -0.0263
 5547W        W25081   5.779   4.275  15.617 -0.1970  0.1860 -0.0404
 5548W        W25082  12.018   8.815  15.295 -0.0903 -0.2176  0.3843
 5549W        W25083  14.934  13.649   4.007  0.0687  0.2135  0.1760
 5550W        W25084  15.827  17.656  12.577  0.0074  0.1930  0.2555
 5551W        W25085  16.322   1.733   0.266 -0.2425 -0.0873 -0.0889
 5552W        W25086  12.304   6.916  12.787 -0.1743 -0.1226 -0.2545
 5553W        W25087  15.455   9.064   4.445  0.1505 -0.1926 -0.0493
 5554W        W25088  18.393  14.638   1.432 -0.0445  0.1407 -0.4770
 5555W        W25089   1.931   8.888  13.146 -0.1077 -0.3138  0.1360
 5556W        W25090  15.929  12.010   4.216  0.2873  0.0508 -0.2702
 5557W        W25091   3.384  12.823  14.351  0.0627  0.2899 -0.0658
 5558W        W25092   0.910   5.872  14.458  0.2889  0.2052  0.0011
 5559W        W25093   4.578   3.821   3.415  0.0250  0.0296  0.1020
 5560W        W25094  16.950  13.982   4.208 -0.1726 -0.1407 -0.1485
 5561W        W25095   5.717  17.314   1.839 -0.0095 -0.2046 -0.1136
 5562W        W25096  17.243   8.392  10.386  0.1569  0.0221  0.2426
 5563W        W25097   7.370  15.652   5.298  0.0933 -0.0373 -0.2097
 5564W        W25098   5.391  15.341   2.430 -0.0405 -0.2559  0.0624
 5565W        W25099   6.748  13.778  15.777  0.3050 -0.0909  0.0475
 5566W        W25100   9.243   1.646  13.679 -0.1025  0.1637  0.4096
 5567W        W25101   9.054   9.309  13.052  0.3400 -0.2057  0.0277
 5568W        W25102   0.233   5.744   1.948 -0.2625  0.0219 -0.2124
 5569W        W25103   7.798   6.272  11.523  0.0044  0.1509 -0.1096
 5570W        W25104   2.006   5.720   4.795  0.2321 -0.0981  0.1502
 5571W        W25105   5.715   1.901   1.992  0.0338 -0.0317 -0.0634
 5572W        W25106  11.256  14.204   2.901  0.3451  0.3553 -0.0246
 5573W        W25107  17.277   7.540  11.470 -0.3039  0.0615 -0.2566
 5574W        W25108  10.715  16.057   5.869 -0.0919  0.0014  0.1953
 5575W        W25109  11.735   4.169   0.961  0.2221  0.1351 -0.0223
 5576W        W25110  12.897  13.802   2.799  0.1312 -0.1823 -0.5133
 5577W        W25111  10.175   0.142  11.757 -0.3697 -0.0040  0.1220
 5578W        W25112  12.228   2.907  14.472 -0.0008 -0.0120 -0.1211
 5579W        W25113  10.606  14.841  13.362  0.2308 -0.0910 -0.0100
 5580W        W25114   8.856   5.828   2.770  0.0751  0.1165 -0.3900
 5581W        W25115  15.998   5.795   0.189 -0.0191  0.0933 -0.2116
 5582W        W25116  12.931  13.091  14.869 -0.2066 -0.0314 -0.2595
 5583W        W25117   4.576   8.215  11.797 -0.1409  0.0464 -0.2378
 5584W        W25118  15.915  14.032  11.410  0.3316  0.1243  0.1505
 5585W        W25119  12.088   9.842   2.188 -0.3080  0.0502  0.0437
 5586W        W25120   9.753   5.809   1.757 -0.1756 -0.2540  0.2844
 5587W        W25121  11.822   8.321   0.430 -0.1203 -0.2885  0.1172
 5588W        W25122   9.560   9.570  12.142  0.3492 -0.2286 -0.1138
 5589W        W25123   5.737   3.164   0.693 -0.0429  0.3927  0.0361
 5590W        W25124   6.718   6.240   3.682 -0.1277  0.1941 -0.2839
 5591W        W25125   7.846   7.491  13.317 -0.1293  0.0209  0.0955
 5592W        W25126   5.439   6.838  11.721  0.0317 -0.1330 -0.1830
 5593W        W25127  17.081   8.475   4.049  0.0204  0.2690  0.2015
 5594W        W25128   3.907   8.522  15.176 -0.0025 -0.0515 -0.1581
 5595W        W25129  16.786  15.754  13.678  0.1057  0.0618 -0.0629
 5596W        W25130   0.525   5.558  12.582 -0.1282  0.2762 -0.2573
 5597W        W25131   2.664  18.266   2.859 -0.1041 -0.1038 -0.1094
 5598W        W25132  12.766  18.105   0.360  0.0895 -0.2157 -0.1366
 5599W        W25133   2.769   0.464   4.476  0.0389 -0.4520  0.1474
 5600W        W25134  12.089   8.527   2.158 -0.2971  0.1301 -0.1405
 5601W        W25135  14.931  16.224   2.567 -0.1212  0.0317  0.1633
 5602W        W25136   7.912  14.704   3.429 -0.3305 -0.0339 -0.1579
 5603W        W25137   9.594   3.526   3.185 -0.3506  0.0302  0.0336
 5604W        W25138  15.407  11.799   4.192  0.1461  0.1081 -0.0087
 5605W        W25139   1.021   1.961   3.089 -0.1108 -0.0587  0.0852
 5606W        W25140   9.684   2.574   4.310 -0.3657 -0.1829 -0.1720
 5607W        W25141   3.036   6.013  12.653  0.2863  0.0333 -0.3321
 5608W        W25142   3.435  16.042  14.751  0.0772 -0.1570 -0.2312
 5609W        W25143  11.696   5.871   4.761  0.1633 -0.1230  0.0073
 5610W        W25144  11.558   9.188   1.660  0.4619 -0.0206  0.0430
 5611W        W25145   7.036  17.317  13.239 -0.1746 -0.1720 -0.0526
 5612W        W25146  18.127  11.271   2.827  0.0095  0.2843  0.2387
 5613W        W25147   3.768  18.212  10.788  0.0124 -0.4220  0.3281
 5614W        W25148  13.465   4.317  12.016 -0.0132  0.0031  0.0064
 5615W        W25149   6.169   5.750   3.254  0.2085 -0.0234 -0.2242
 5616W        W25150  18.402   0.202   1.283  0.0214 -0.0940  0.3085
 5617W        W25151  13.762  14.830  14.331  0.2460 -0.3150 -0.1594
 5618W        W25152   8.207  11.906   3.580  0.1842 -0.2099  0.0241
 5619W        W25153  10.329   5.339  14.098  0.0504  0.0094  0.1788
 5620W        W25154  15.494  18.353  12.915  0.1038 -0.2652 -0.0808
 5621W        W25155   9.412   1.992   2.776 -0.0208  0.0318 -0.1987
 5622W        W25156   4.971  13.917  12.279 -0.2886  0.0565  0.0652
 5623W        W25157  12.290  14.328  12.134 -0.1968  0.4564  0.0570
 5624W        W25158  17.835  13.314  11.713  0.0624  0.1162 -0.2269
 5625W        W25159   7.555   2.555   1.592 -0.0281  0.1963  0.2187
 5626W        W25160   5.196  17.961   0.688  0.1417  0.3409 -0.1966
 5627W        W25161  13.601   8.316   1.743  0.1285  0.1473  0.0161
 5628W        W25162  14.393  14.780   3.340 -0.1429 -0.0950 -0.0170
 5629W        W25163  14.185   6.564  14.077  0.2337  0.2274  0.0446
 5630W        W25164   4.880   3.442   3.688  0.1996  0.0520 -0.1819
 5631W        W25165   1.662  15.656  15.196 -0.0023 -0.2259  0.1074
 5632W        W25166  15.685  11.682   4.569 -0.0411  0.0143  0.3509
 5633W        W25167   2.333  12.472  13.250 -0.0469 -0.3624 -0.1137
 5634W        W25168  18.163  17.568  14.339  0.0877  0.5171 -0.0458
 5635W        W25169   1.635   5.311   4.089  0.1712  0.4491  0.0653
 5636W        W25170   2.526   5.517   5.692  0.4895 -0.0744 -0.0997
 5637W        W25171   1.105  15.061   2.975 -0.1789 -0.2091  0.3861
 5638W        W25172  16.920   6.577  15.507  0.1129 -0.2467  0.2622
 5639W        W25173  15.980   5.777  11.750 -0.3143  0.0260  0.0637
 5640W        W25174  12.693   0.462   3.426  0.2513  0.3369 -0.1847
 5641W        W25175   0.527   6.022   4.345  0.0336 -0.0826 -0.0242
 5642W        W25176  18.193   4.557   2.492 -0.0654  0.4425 -0.0559
 5643W        W25177  10.107   2.604  13.086  0.2502 -0.0155 -0.0910
 5644W        W25178   5.069  14.118   3.654 -0.2855  0.0744  0.0869
 5645W        W25179   1.055  10.822   4.049 -0.1421  0.1670  0.0355
 5646W        W25180   1.366  15.715  15.612  0.1110 -0.1153  0.3504
 5647W        W25181   2.006  18.315   0.100 -0.0579 -0.0509  0.0588
 5648W        W25182   3.587   5.842   4.602 -0.0612  0.0364  0.5285
 5649W        W25183  10.169  14.197   1.924  0.0914  0.1796  0.3393
 5650W        W25184  13.368   7.294  12.359 -0.1980  0.1439  0.1887
 5651W        W25185   8.287  13.089   0.542  0.1166 -0.1713 -0.0720
 5652W        W25186   2.797  14.356   4.539  0.0696 -0.2953  0.3345
 5653W        W25187   5.198   6.850   1.940 -0.2222  0.0779  0.0701
 5654W        W25188   3.363  17.307  12.421  0.0030 -0.0265  0.2371
 5655W        W25189  14.853  11.524  11.072 -0.1796 -0.0031 -0.2538
 5656W        W25190   9.644  17.817  15.330  0.1033 -0.2700 -0.0708
 5657W        W25191   4.057   1.102  12.616  0.5294 -0.0447 -0.2167
 5658W        W25192  15.038   7.629  11.873 -0.0245  0.0000 -0.0737
 5659W        W25193  13.832  10.507  12.648 -0.1435 -0.1571 -0.0296
 5660W        W25194   5.955  18.284   0.681  0.2968 -0.1348  0.0361
 5661W        W25195   6.909   1.698   2.360  0.1271  0.3252  0.0309
 5662W        W25196   9.171   4.889   2.801  0.1603  0.1363 -0.0016
 5663W        W25197  10.118   4.037  10.320 -0.2576  0.1511 -0.1467
 5664W        W25198   8.096   9.061  15.572 -0.0523  0.0620  0.1599
 5665W        W25199   8.299  12.845  13.930 -0.3375 -0.2708  0.2110
 5666W        W25200   5.955  13.911  14.047  0.0606  0.3016 -0.1435
 5667W        W25201   0.643   9.123  12.202  0.2014 -0.3658  0.3906
 5668W        W25202  10.685  15.052  15.005 -0.3913 -0.0987 -0.4341
 5669W        W25203   2.652  15.185   1.014  0.0112  0.2212 -0.0465
 5670W        W25204  16.636   5.356  15.681 -0.1196 -0.4028  0.0554
 5671W        W25205   3.846   3.554   5.143  0.0780  0.1475 -0.3131
 5672W        W25206  11.503   2.413  14.245 -0.0486 -0.1154  0.0531
 5673W        W25207   9.740   2.319  10.293 -0.1959  0.0732  0.1320
 5674W        W25208  11.006   4.708   1.693 -0.4782  0.2126  0.1238
 5675W        W25209   9.751  10.457  11.333 -0.1580 -0.1270  0.0649
 5676W        W25210  10.672  14.670  14.126  0.1639 -0.1989 -0.1447
 5677W        W25211   3.321  10.424  14.188  0.1754  0.2084  0.0562
 5678W        W25212  12.338  11.076   4.795 -0.3161  0.1370  0.1631
 5679W        W25213  10.178  16.658   4.495  0.1215 -0.0252  0.0398
 5680W        W25214   7.360   1.910  10.584 -0.1587  0.0027  0.4879
 5681W        W25215   0.035  17.338   2.702 -0.0410  0.1265 -0.0616
 5682W        W25216   3.766  17.071   1.659  0.0781  0.0336  0.0529
 5683W        W25217  18.368  15.787  12.890  0.0184 -0.2715 -0.1551
 5684W        W25218  16.392   2.955  15.295 -0.1077  0.1841 -0.0172
 5685W        W25219   7.833   7.151  14.722 -0.2139 -0.3845 -0.2204
 5686W        W25220   1.927   2.646  11.837  0.0170 -0.3899  0.0323
 5687W        W25221   0.133   3.617  11.272  0.3181 -0.1406 -0.1314
 5688W        W25222   0.821   9.811  14.508 -0.2973 -0.2789 -0.3184
 5689W        W25223   1.695  16.489   0.582 -0.1300  0.3316  0.0238
 5690W        W25224  11.858  10.455  11.671 -0.0403 -0.0675 -0.0646
 5691W        W25225   0.149  10.322   1.223  0.0503 -0.0948  0.0469
 5692W        W25226   7.813  11.299  15.493 -0.1818  0.2444 -0.1364
 5693W        W25227  11.502  18.154   4.299  0.1410 -0.0339  0.1293
 5694W        W25228  15.783  12.985   0.234  0.1983  0.0061 -0.0862
 5695W        W25229   6.182   5.331   4.398 -0.1459 -0.0586 -0.0029
 5696W        W25230   0.274  17.760  14.398  0.3188 -0.1341 -0.1080
 5697W        W25231   5.399   2.333   1.843  0.3013  0.3265 -0.0231
 5698W        W25232   8.529   7.515   1.814 -0.4221  0.2769 -0.1064
 5699W        W25233   1.651  16.257  15.098  0.0167  0.0167  0.5187
 5700W        W25234  12.444   5.481  13.012 -0.1577 -0.0261 -0.0105
 5701W        W25235  10.925   8.470   3.655  0.1957 -0.0504 -0.4907
 5702W        W25236   2.823   0.771  14.920 -0.2295 -0.0992  0.2818
 5703W        W25237   0.279  15.027   0.597 -0.2033 -0.0146 -0.1250
 5704W        W25238   4.745   2.236   2.223  0.0358 -0.0261 -0.2480
 5705W        W25239   4.170  13.412   1.562 -0.0091  0.1120 -0.0930
 5706W        W25240   2.371   6.461  13.430 -0.1117  0.0709  0.3829
 5707W        W25241   0.417   3.373   0.220 -0.1274  0.0943  0.2496
 5708W        W25242  10.254  17.693  14.744 -0.3288 -0.1783  0.3369
 5709W        W25243  17.003   1.712  11.371  0.0227 -0.3391  0.0416
 5710W        W25244  15.590  10.089   1.462 -0.2468 -0.1387  0.2693
 5711W        W25245   1.419   8.991   4.022  0.0767 -0.0466 -0.0151
 5712W        W25246  13.782   6.250  11.883  0.0438  0.1930 -0.1341
 5713W        W25247  11.729  14.953   5.187  0.2707  0.0165 -0.0336
 5714W        W25248   6.974   0.210   4.681  0.1470  0.0310 -0.1150
 5715W        W25249  11.774   3.315   3.869  0.1423  0.0540  0.0048
 5716W        W25250  16.700  16.322  11.818  0.0637 -0.2884 -0.0563
 5717W        W25251  12.807  14.625   4.746  0.0367  0.1658 -0.2295
 5718W        W25252   0.286  14.868   4.391  0.0250  0.0047 -0.0968
 5719W        W25253   7.225  12.463  13.703 -0.1139 -0.0042  0.1828
 5720W        W25254   7.530  14.751   1.502 -0.2474  0.0482 -0.2457
 5721W        W25255   7.391   1.278   1.311  0.0906 -0.4449 -0.0197
 5722W        W25256  17.093  12.729   1.929 -0.1510 -0.0362 -0.1326
 5723W        W25257   7.806  15.209   1.710  0.1945 -0.1475 -0.2155
 5724W        W25258   9.924   2.844   1.992 -0.1263 -0.2131 -0.2650
 5725W        W25259  16.214  11.697  11.115 -0.2033 -0.3642 -0.1537
 5726W        W25260   8.815   3.859   5.295 -0.2636  0.2719  0.1409
 5727W        W25261  14.470  13.088  15.111 -0.0946  0.2095  0.1381
 5728W        W25262  16.617  18.084   2.761  0.1016  0.1414  0.1145
 5729W        W25263   1.116   8.243  13.914 -0.2184  0.1200 -0.1066
 5730W        W25264   1.328   9.985  15.740  0.1478  0.0467  0.0614
 5731W        W25265  15.108   8.326   4.175  0.1468  0.3294  0.3335
 5732W        W25266   5.359  10.633   4.338  0.2132 -0.1770  0.0432
 5733W        W25267   7.815   9.623  11.919  0.0996 -0.4399  0.0615
 5734W        W25268   2.513   3.066   3.828 -0.3819  0.0432  0.1138
 5735W        W25269  18.055  12.348   0.610  0.0365 -0.1871 -0.1947
 5736W        W25270  10.292   5.373   3.011 -0.0152 -0.0967 -0.1379
 5737W        W25271   5.986   2.069   0.725 -0.0810  0.2034  0.1284
 5738W        W25272  10.398  13.329   2.114 -0.0879  0.2562  0.0655
 5739W        W25273   5.842   4.923  13.820 -0.2679  0.0179 -0.2597
 5740W        W25274  16.827   6.456  12.507  0.0359 -0.0925 -0.0038
 5741W        W25275   0.983  13.709  15.612  0.2441  0.2277 -0.0023
 5742W        W25276   1.750  11.713  15.585 -0.1742 -0.1581 -0.0811
 5743W        W25277  11.829   0.292  12.531 -0.0182  0.2505  0.1259
 5744W        W25278   6.180   3.216  14.599 -0.0619 -0.1625 -0.0381
 5745W        W25279  14.037   4.492  15.778 -0.0225  0.1011  0.1215
 5746W        W25280  17.500  12.638   1.680  0.0333  0.0339  0.0278
 5747W        W25281   2.205   0.054  13.702  0.1483 -0.3273 -0.3150
 5748W        W25282   4.663   2.886  12.086 -0.3100 -0.1549  0.0785
 5749W        W25283  13.305   9.027  15.758  0.0613 -0.0613  0.2498
 5750W        W25284  11.770   3.380  11.956 -0.0432  0.0991  0.0883
 5751W        W25285  11.580   2.053   1.610 -0.1995  0.0212  0.0201
 5752W        W25286   6.647  13.880   3.421 -0.1614  0.0820 -0.1161
 5753W        W25287   1.159  17.047   4.367 -0.2795 -0.0110  0.2977
 5754W        W25288   0.046   9.275  10.828 -0.1445  0.1832 -0.0461
 5755W        W25289   2.664  13.625  15.480 -0.0137  0.0428  0.4206
 5756W        W25290   4.198   2.171   4.010 -0.1380 -0.1536  0.0257
 5757W        W25291   1.946  11.142   0.454 -0.0695  0.0400  0.2276
 5758W        W25292   1.470  13.858   0.519 -0.1325 -0.0038  0.1537
 5759W        W25293  18.026   3.859  13.064 -0.2216 -0.1904 -0.0154
 5760W        W25294   8.728  13.657  13.510  0.1692  0.1392 -0.0978
 5761W        W25295   1.165   7.306  15.664 -0.2626 -0.0418  0.2833
 5762W        W25296  11.782   2.865   3.242 -0.0924 -0.0931 -0.2332
 5763W        W25297   6.077   4.368  11.280  0.2693  0.1739  0.2414
 5764W        W25298   8.037   4.263   3.313 -0.3565  0.1971 -0.1905
 5765W        W25299   4.031   6.242   2.767 -0.2724 -0.1668 -0.2053
 5766W        W25300  11.983   7.119   0.019  0.1050 -0.0797  0.6516
 5767W        W25301   9.218  16.624   4.124 -0.0291 -0.1065  0.1921
 5768W        W25302   7.037  10.141  13.686 -0.1456 -0.1408  0.1317
 5769W        W25303   1.856  17.531  11.966 -0.1999  0.3152  0.1397
 5770W        W25304  15.831  12.651  14.506 -0.3375  0.2387 -0.1041
 5771W        W25305  14.559   9.178  11.306 -0.1032 -0.0166 -0.0518
 5772W        W25306   1.810   5.098  12.201 -0.3524  0.0149 -0.1404
 5773W        W25307  17.983   2.135  13.072  0.1244 -0.0366  0.2876
 5774W        W25308  11.737   2.331  11.563 -0.0231  0.2060 -0.2415
 5775W        W25309   3.996   0.457  11.418  0.3620  0.0409 -0.0004
 5776W        W25310   9.904   9.956  15.377 -0.0233 -0.1816 -0.0728
 5777W        W25311  14.192  14.253   2.030  0.0232 -0.1685 -0.2468
 5778W        W25312   3.001  11.610  12.475 -0.3864  0.3360 -0.1914
 5779W        W25313  15.786   8.580  11.567  0.1828  0.3551 -0.1186
 5780W        W25314  17.623   8.571  11.701 -0.0683  0.0709  0.0982
 5781W        W25315   4.804  16.713  14.504  0.2619 -0.2473  0.0569
 5782W        W25316   9.225   2.144  11.573  0.1374  0.1896  0.1394
 5783W        W25317  16.748   8.167   2.927  0.2426 -0.0321 -0.2045
 5784W        W25318  15.556  16.071   5.323 -0.3430  0.1888  0.1352
 5785W        W25319   9.871   0.737  12.296 -0.2312  0.0792 -0.0708
 5786W        W25320   7.940  16.403  14.694  0.3028 -0.0787  0.2590
 5787W        W25321  17.776  10.366  15.453 -0.3113 -0.0889 -0.0145
 5788W        W25322   3.858  17.734  11.866  0.0086 -0.1973  0.2452
 5789W        W25323   8.120   2.183   6.114 -0.0343  0.0584 -0.2877
 5790W        W25324   4.531   8.613  15.292  0.0394 -0.0674 -0.2127
 5791W        W25325  10.269   6.865  12.147  0.0449  0.0585 -0.0333
 5792W        W25326   4.891   1.889  12.336  0.1376 -0.1027 -0.0803
 5793W        W25327   0.891  16.117  14.984 -0.2341  0.0292 -0.1377
 5794W        W25328   8.064  17.351   3.710  0.2385  0.2234 -0.2791
 5795W        W25329   2.285  16.736   4.316  0.0844 -0.1327  0.2729
 5796W        W25330   8.969  12.205  11.490  0.4880 -0.0881 -0.3303
 5797W        W25331   3.367  14.739  11.686 -0.2325  0.0581 -0.0590
 5798W        W25332  13.501   9.084   0.838 -0.2883  0.1472 -0.2127
 5799W        W25333   6.254  14.329   1.096  0.0909 -0.0219 -0.0172
 5800W        W25334   0.224   9.386  11.978  0.1368 -0.2384 -0.1001
 5801W        W25335  15.643   2.194   0.791  0.0172 -0.0580  0.1270
 5802W        W25336  15.655   1.393  14.164  0.0637  0.2128 -0.1202
 5803W        W25337   9.031   7.301  15.685  0.2203  0.1991  0.1732
 5804W        W25338  13.781  15.979  12.978 -0.1376 -0.0213 -0.2981
 5805W        W25339   5.149   3.242   4.792 -0.1283  0.0593  0.0657
 5806W        W25340   5.366  15.534   0.573 -0.0582 -0.0182 -0.4826
 5807W        W25341  15.644  10.541   3.808 -0.1932 -0.1270  0.1388
 5808W        W25342  11.852  17.060   3.012 -0.2480 -0.0526  0.1709
 5809W        W25343   2.905   9.344  11.911 -0.0379 -0.1101  0.0119
 5810W        W25344   9.720  14.186  11.762 -0.0271  0.1748  0.0684
 5811W        W25345   0.173   4.640   2.775  0.1296 -0.0612  0.0944
 5812W        W25346   9.948   0.192  15.377 -0.1090 -0.0397  0.1915
 5813W        W25347  13.382   1.203  13.767 -0.0508 -0.1088 -0.0761
 5814W        W25348  15.002  16.127  11.979  0.3087 -0.0265 -0.1851
 5815W        W25349  15.101  13.135  13.807 -0.0716 -0.0485  0.0388
 5816W        W25350   8.737   1.702   1.226 -0.2455  0.0645 -0.3439
 5817W        W25351   7.455   5.199  14.427  0.2495 -0.0375  0.1145
 5818W        W25352  11.882  13.215  13.725  0.2935  0.0588  0.0879
 5819W        W25353  16.866   2.073   4.376  0.1101 -0.0262  0.3241
 5820W        W25354  15.454   7.053   2.315  0.3720 -0.1594 -0.1040
 5821W        W25355  15.016   6.293  12.479  0.2949  0.0460 -0.1372
 5822W        W25356  16.830  13.619  15.441 -0.2680  0.0606  0.0752
 5823W        W25357   4.036  17.543   1.684  0.3025 -0.0284  0.0421
 5824W        W25358   5.223   1.305  12.921  0.2589  0.0493  0.2565
 5825W        W25359   7.457   4.782  11.147  0.1153 -0.0920  0.0687
 5826W        W25360   7.221   6.944  12.978 -0.4262  0.0251 -0.0260
 5827W        W25361   0.528  15.802  12.543 -0.1389 -0.2400 -0.0522
 5828W        W25362  11.854   2.709  15.434  0.2259  0.3529 -0.0099
 5829W        W25363   6.343   3.586  13.081  0.3436 -0.0696 -0.1302
 5830W        W25364   5.237   4.588   5.671  0.1015 -0.1145  0.0690
 5831W        W25365  16.293   9.461  15.380 -0.0270 -0.3033  0.0954
 5832W        W25366   0.999   2.020   5.345 -0.2275  0.1444 -0.0030
 5833W        W25367  13.649   8.452  13.361 -0.0874 -0.2253  0.0986
 5834W        W25368   1.234  15.967   4.586 -0.2125  0.1019 -0.2065
 5835W        W25369   3.054   6.740   1.583 -0.1376  0.0120  0.0416
 5836W        W25370   9.679   3.791  15.392 -0.1977 -0.2172 -0.3688
 5837W        W25371  13.909   6.589  14.522  0.2409  0.0771 -0.0718
 5838W        W25372   0.284  15.714  13.564 -0.2005  0.0762  0.0803
 5839W        W25373   6.840   5.631   1.541  0.1382  0.3252  0.1082
 5840W        W25374  15.794   5.114  14.657 -0.0900 -0.1020 -0.1027
 5841W        W25375  11.033  11.492  13.702  0.2148  0.3573 -0.0386
 5842W        W25376  12.869  10.457   3.756  0.1112 -0.0365 -0.0227
 5843W        W25377  12.020   9.235   1.581 -0.2352 -0.0971  0.2873
 5844W        W25378  11.037   5.832   0.878 -0.1284 -0.2050 -0.2000
 5845W        W25379   5.849   2.630   2.577 -0.2665  0.0896  0.1482
 5846W        W25380  12.552  18.020   1.307  0.2776 -0.1193  0.0255
 5847W        W25381   6.198   1.257  11.603 -0.0176 -0.1080 -0.0388
 5848W        W25382   1.069  10.709  14.936 -0.1051  0.0383  0.2493
 5849W        W25383   1.781   3.848   3.485 -0.1055  0.0658  0.3156
 5850W        W25384  15.699  13.217   1.104 -0.0532  0.0185  0.2360
 5851W        W25385   5.466   7.273   1.624 -0.0151  0.1410 -0.1427
 5852W        W25386  11.469   0.166   0.476  0.1655  0.0519  0.0812
 5853W        W25387  13.293   9.898   4.351 -0.0145  0.3050  0.2090
 5854W        W25388   5.535  11.580   1.310 -0.0820 -0.0624 -0.0938
 5855W        W25389  13.725   1.788  13.026  0.0954 -0.1136 -0.2156
 5856W        W25390   4.776   6.756  13.326  0.1239  0.3512  0.1172
 5857W        W25391   7.996   8.883   5.724 -0.2577  0.0124 -0.0919
 5858W        W25392   6.262  18.253  13.424 -0.2011  0.0356 -0.1267
 5859W        W25393  12.405  16.061   3.523 -0.3491  0.1092 -0.0051
 5860W        W25394  10.555   0.436  12.498  0.3768 -0.0376  0.0513
 5861W        W25395  13.401  14.842  11.441  0.0709  0.3191 -0.1936
 5862W        W25396   9.167  15.295   4.498 -0.1440  0.1301  0.2195
 5863W        W25397   6.927  15.649   2.284  0.2145 -0.0109  0.0426
 5864W        W25398   7.983   5.037  13.759 -0.1858  0.0965 -0.0126
 5865W        W25399   7.256   5.874   1.171  0.0836 -0.0622 -0.0913
 5866W        W25400   3.441   3.463   2.173 -0.0300  0.4991 -0.2049
 5867W        W25401   0.344   9.483   2.616 -0.1320 -0.2219 -0.0348
 5868W        W25402  18.087   5.201   0.865 -0.0337 -0.0546 -0.2153
 5869W        W25403   9.136   1.008   3.852 -0.0327 -0.4124  0.0057
 5870W        W25404   8.438  11.588  15.339  0.0543  0.2871 -0.0503
 5871W        W25405  13.448  15.708   0.758  0.0228 -0.2639 -0.0434
 5872W        W25406   0.545   8.987   3.498 -0.2584  0.0833  0.1708
 5873W        W25407   6.106  16.152  14.660 -0.0190  0.1570  0.0339
 5874W        W25408  12.801  11.412  15.347  0.0227  0.1033 -0.2815
 5875W        W25409  16.204  11.640   3.406 -0.4411 -0.2514 -0.0696
 5876W        W25410  14.061  10.584   1.631  0.0329 -0.4104 -0.1926
 5877W        W25411   7.698   2.390  12.760 -0.1582 -0.2540 -0.2449
 5878W        W25412  10.410   9.594  14.043  0.0012  0.0204  0.4484
 5879W        W25413   4.271  17.352  11.800  0.2746 -0.1571  0.2015
 5880W        W25414  11.714   8.502   3.275  0.0694 -0.1028 -0.0227
 5881W        W25415  13.829   8.494   3.039  0.1513 -0.3297  0.1901
 5882W        W25416   2.986   1.483  13.292 -0.0193  0.2284 -0.1846
 5883W        W25417   4.853  10.114   0.783  0.0957  0.1462 -0.0189
 5884W        W25418   0.277  13.218   1.674  0.2488 -0.0666 -0.1589
 5885W        W25419  17.171   5.633   3.004  0.0735 -0.0864 -0.2859
 5886W        W25420  13.638  10.862   1.413 -0.1201  0.1690 -0.0855
 5887W        W25421   0.612  10.306  11.980 -0.0129  0.0808 -0.5050
 5888W        W25422   2.431  11.153   2.912 -0.1628 -0.0474 -0.0117
 5889W        W25423   5.138   8.873  13.770 -0.0773  0.1448 -0.0248
 5890W        W25424  16.876  16.985  14.460  0.1675 -0.1228 -0.1461
 5891W        W25425   7.689   0.252  10.449  0.0301 -0.1393  0.2262
 5892W        W25426   0.279   0.932  13.727 -0.4210 -0.1769 -0.1636
 5893W        W25427   1.771  18.325  13.523  0.2411 -0.3746  0.0305
 5894W        W25428   3.827  14.824  15.710  0.2400  0.1318  0.1554
 5895W        W25429  17.553   7.173   3.360 -0.0233  0.0030  0.0520
 5896W        W25430  14.772  16.002   4.374 -0.0119  0.0171 -0.1400
 5897W        W25431   2.993   2.242   3.493 -0.2430 -0.0006  0.1232
 5898W        W25432   3.569   7.343  14.525 -0.2039  0.1871  0.1792
 5899W        W25433  18.328   0.292  11.473  0.0588  0.0761  0.0336
 5900W        W25434  11.106  18.236   0.361 -0.1978  0.1812 -0.0275
 5901W        W25435  13.577   0.767  11.636  0.1983  0.1962 -0.0344
 5902W        W25436  12.459   5.589  11.981 -0.2162  0.1345  0.0567
 5903W        W25437   1.745  18.126   6.012 -0.1120 -0.1506  0.1776
 5904W        W25438  15.909   9.093   4.075 -0.1719 -0.1753 -0.3765
 5905W        W25439   9.636  16.130   0.244 -0.0170  0.1517  0.3342
 5906W        W25440  15.991   7.374   1.378  0.2322  0.0828 -0.2807
 5907W        W25441  18.160   2.517  10.965  0.1189  0.0208 -0.2382
 5908W        W25442   0.001  14.054  13.814 -0.2928  0.1904  0.2209
 5909W        W25443   1.478   2.063  14.812 -0.0863  0.1581  0.1402
 5910W        W25444   7.430   4.257  11.431 -0.1673  0.2831 -0.0424
 5911W        W25445  17.878  12.656  14.660 -0.2452  0.0226 -0.1111
 5912W        W25446  14.361   0.878   4.103 -0.3229  0.0798 -0.0342
 5913W        W25447   5.090  15.717   2.422 -0.0941  0.1832  0.4095
 5914W        W25448   8.763  16.841  15.231  0.2416  0.0135 -0.1211
 5915W        W25449  13.178   0.020   4.148 -0.1081 -0.5764 -0.2045
 5916W        W25450  18.257   1.695  13.328  0.2416 -0.0082  0.0829
 5917W        W25451  16.417   4.684  13.005 -0.1927  0.1266  0.2435
 5918W        W25452  10.165   0.131  13.168 -0.3750  0.0956 -0.1159
 5919W        W25453  10.301  17.176  15.709 -0.0607  0.3056 -0.1720
 5920W        W25454   8.544  12.278  11.168 -0.1704  0.2312  0.1090
 5921W        W25455  13.466  12.613   0.663  0.0599  0.1773 -0.0410
 5922W        W25456   5.006   9.893  14.864 -0.3742  0.1029  0.1413
 5923W        W25457  10.183   8.478   4.466 -0.1015 -0.1607  0.1167
 5924W        W25458  12.707   0.348   2.033 -0.3569  0.0001  0.1048
 5925W        W25459  13.742  15.854   1.932  0.0379  0.0060  0.0818
 5926W        W25460  12.656   9.020  15.742 -0.1566 -0.1956 -0.0273
 5927W        W25461   8.989   8.837  13.138  0.2434  0.1107 -0.1510
 5928W        W25462   4.219  15.797   1.956 -0.0761 -0.2033  0.1610
 5929W        W25463   9.732  16.447   1.036  0.2014 -0.0126  0.0597
 5930W        W25464  15.472   4.531   0.022 -0.0533 -0.1972  0.0225
 5931W        W25465   8.143  16.707   2.488  0.0898 -0.0244  0.2338
 5932W        W25466   3.205  11.233   2.824 -0.0356  0.0726 -0.2049
 5933W        W25467   2.270   6.520  11.350 -0.4345 -0.3283 -0.0266
 5934W        W25468  17.651   5.696   3.157  0.0236 -0.0279  0.1025
 5935W        W25469  15.056  11.866  12.421 -0.2221  0.0497  0.1697
 5936W        W25470   5.572  12.757   1.956 -0.3806  0.1603  0.2274
 5937W        W25471  18.051   6.409   3.977  0.2046  0.3041  0.0007
 5938W        W25472   5.900  16.042   3.947 -0.0447  0.3259  0.0177
 5939W        W25473   9.102   7.550  13.252 -0.3444 -0.1122  0.0768
 5940W        W25474   3.893  11.616  14.574 -0.1662 -0.0723 -0.3548
 5941W        W25475  16.290  17.800  14.224  0.1540  0.2402 -0.2864
 5942W        W25476   8.097   0.993   2.329  0.1662  0.1703  0.0744
 5943W        W25477  11.432   6.505  14.317 -0.0985  0.0193 -0.2390
 5944W        W25478   7.074   5.020  11.895 -0.2920  0.3084  0.3579
 5945W        W25479   8.536   1.367  13.128 -0.0861 -0.0222  0.2485
 5946W        W25480  16.759   3.229   2.869  0.1418 -0.0870  0.1142
 5947W        W25481   7.349  15.364  15.792 -0.1487  0.0180 -0.0078
 5948W        W25482  16.327   4.213  13.101  0.0865 -0.1025 -0.0164
 5949W        W25483   2.114   9.735   1.804  0.0192 -0.0783  0.0032
 5950W        W25484  13.268  18.044   0.143 -0.3268  0.2691 -0.1356
 5951W        W25485   9.051   4.149  12.535  0.3406  0.1160  0.0716
 5952W        W25486   4.957   9.013   1.934  0.1718  0.0000 -0.1765
 5953W        W25487   5.051   0.659  14.040  0.1882 -0.0240  0.0816
 5954W        W25488  13.591  11.979   2.211  0.1491 -0.0765 -0.0160
 5955W        W25489  15.071   7.782   1.671 -0.2594  0.0572 -0.1747
 5956W        W25490   6.899   6.640   1.862  0.2750  0.0490  0.3476
 5957W        W25491   3.252  17.458  15.468  0.2678 -0.1864  0.0143
 5958W        W25492  13.206  15.934  13.425  0.1210 -0.1641  0.3934
 5959W        W25493  16.885  14.082  12.767  0.0866 -0.1837  0.1467
 5960W        W25494   0.435  17.854   0.445  0.0681 -0.0003  0.1762
 5961W        W25495   5.038   4.809  11.719 -0.1800 -0.3007  0.1325
 5962W        W25496  11.913  12.458  15.195 -0.0739  0.0515  0.3127
 5963W        W25497  13.095   8.867   1.061  0.1607 -0.2439 -0.0071
 5964W        W25498   2.766   3.973   0.422  0.0410 -0.1511  0.1315
 5965W        W25499  14.939  15.878  14.944  0.1445  0.2630  0.0314
 5966W        W25500  11.306  16.423   0.973  0.0498  0.3081  0.1888
 5967W        W25501   6.193  14.701   4.533 -0.0661  0.0605  0.0168
 5968W        W25502  16.522   6.595  12.089 -0.1956 -0.1053 -0.1038
 5969W        W25503  11.340   0.585  11.796 -0.1728  0.0925 -0.1570
 5970W        W25504  10.872   5.300  14.188 -0.0663  0.0502 -0.1566
 5971W        W25505   9.470  13.303   5.626  0.3425 -0.0724  0.1557
 5972W        W25506   7.178   1.634  11.677  0.0383  0.1487  0.0553
 5973W        W25507  14.026   6.160   0.570 -0.0949  0.3104  0.2064
 5974W        W25508   9.471   3.241  11.404  0.0053  0.3895 -0.1594
 5975W        W25509  12.620   7.854  12.509  0.1549 -0.1987 -0.0832
 5976W        W25510   9.918  17.452   3.261 -0.1111 -0.1679 -0.0352
 5977W        W25511  13.640   4.330  13.837  0.0650 -0.2746  0.0930
 5978W        W25512   4.112  14.457  13.903  0.0290  0.1089 -0.1061
 5979W        W25513   3.891   6.820  13.511  0.2824 -0.1602 -0.1596
 5980W        W25514  17.056  12.685   2.424 -0.0744  0.2503 -0.1765
 5981W        W25515  10.002  10.347   2.431  0.0636 -0.0902  0.3184
 5982W        W25516  13.349  16.136  13.878  0.0353  0.3736  0.1476
 5983W        W25517   7.757  12.410  13.689  0.0005  0.0128 -0.0527
 5984W        W25518  13.874  10.371  13.984  0.0270  0.1485  0.1288
 5985W        W25519   0.932  18.309   2.510 -0.0332 -0.1569 -0.3543
 5986W        W25520   7.229   3.416   0.383  0.1105  0.0338  0.1804
 5987W        W25521   2.303   8.507  14.868 -0.3233 -0.1689 -0.0201
 5988W        W25522  17.105   3.933   0.799  0.0069 -0.1776 -0.0874
 5989W        W25523  10.035   9.896   2.769  0.0886  0.0796 -0.5424
 5990W        W25524  15.520  16.848   0.502 -0.2547 -0.0281 -0.2579
 5991W        W25525   9.164   2.724   3.324 -0.1049  0.1661  0.1707
 5992W        W25526  14.211   9.993  12.179 -0.1605  0.1687  0.0456
 5993W        W25527   4.309   7.201   2.028  0.4320  0.0900  0.1175
 5994W        W25528   0.962  18.392   1.178 -0.2569 -0.2823  0.1168
 5995W        W25529  12.751  16.107  13.892  0.1825  0.3063  0.2779
 5996W        W25530   6.691  16.352   3.768  0.3902  0.0593 -0.0861
 5997W        W25531   2.666   6.798   3.336  0.0022  0.1349 -0.2818
 5998W        W25532  15.981   6.136   0.838  0.0347  0.0615 -0.0033
 5999W        W25533  17.256   3.351  14.168  0.0893  0.1818 -0.0855
 6000W        W25534   5.198  13.506  12.128  0.2953  0.0372 -0.3773
 6001W        W25535   2.822   8.523  14.805  0.0711  0.0940 -0.1532
 6002W        W25536   9.303   6.612   2.665 -0.1802  0.0488  0.2405
 6003W        W25537  14.525  17.759  14.207  0.2232  0.0533 -0.0842
 6004W        W25538   8.194   8.566  15.597  0.0727  0.0759 -0.0602
 6005W        W25539   8.438   3.214  15.027  0.1411  0.2352 -0.3460
 6006W        W25540  15.493   4.275  11.890  0.3556  0.2619  0.0261
 6007W        W25541  17.058  17.707   2.523  0.2618  0.1877  0.0892
 6008W        W25542  14.109  18.293   1.524  0.2121  0.0525 -0.0952
 6009W        W25543   8.662   5.057   3.056 -0.0469  0.3853  0.1680
 6010W        W25544   3.421   2.024  15.058 -0.0942 -0.1324  0.0476
 6011W        W25545   0.660   3.592  11.276 -0.0556 -0.4219  0.1195
 6012W        W25546   2.632   5.764   4.230  0.1778 -0.0011 -0.0020
 6013W        W25547   4.619  15.445   1.647  0.0068  0.1926  0.0141
 6014W        W25548  16.880   7.880  13.153  0.2151 -0.1961  0.1720
 6015W        W25549   7.715   5.954  12.495  0.0749 -0.0004 -0.0327
 6016W        W25550   5.182  11.169  11.277  0.3131 -0.3591 -0.5857
 6017W        W25551   4.841   2.442   2.968  0.0210  0.1607  0.3127
 6018W        W25552   5.038  12.419  15.058  0.0251 -0.1320  0.0664
 6019W        W25553   8.212   8.551  12.567 -0.0124  0.0094  0.0206
 6020W        W25554  13.672  17.984  12.811 -0.0857 -0.0616 -0.0802
 6021W        W25555   7.277   3.921  12.156 -0.0015  0.2184 -0.0286
 6022W        W25556   4.121   9.224   4.408 -0.1575  0.1599  0.0803
 6023W        W25557   7.242  18.350   2.572 -0.0826  0.0537  0.0063
 6024W        W25558   5.653  16.513   3.763 -0.2201  0.1565 -0.3647
 6025W        W25559  16.831   9.669  13.098  0.2362 -0.5311  0.2301
 6026W        W25560   9.061   3.781  10.672  0.2834  0.0129 -0.1385
 6027W        W25561   5.856  17.545  14.200 -0.1753 -0.0792  0.1757
 6028W        W25562  10.964   7.167  14.148  0.0415  0.0410 -0.0692
 6029W        W25563   2.115   8.728  14.476 -0.0242  0.0171 -0.1604
 6030W        W25564   9.163   2.742   2.170 -0.0802  0.0258 -0.3119
 6031W        W25565   0.409  11.038   2.207  0.0890 -0.0506 -0.1025
 6032W        W25566   7.515   7.366  13.722  0.1036 -0.1447 -0.0735
 6033W        W25567  12.174  10.699  11.426 -0.1156 -0.5063 -0.3030
 6034W        W25568   9.676   3.033  14.780 -0.0951  0.1232 -0.1730
 6035W        W25569   1.461  13.039  12.781  0.0497 -0.0750  0.1631
 6036W        W25570   8.109  17.348   0.482  0.1919 -0.2276 -0.3194
 6037W        W25571  11.935   0.911   4.191  0.1369  0.0192  0.1221
 6038W        W25572   0.615  17.275  14.363  0.0394 -0.1911  0.4266
 6039W        W25573   7.301   1.811   2.651  0.1383  0.0753  0.0732
 6040W        W25574  12.338   4.487   3.294 -0.1705  0.0880  0.0124
 6041W        W25575   2.970   7.495   0.935  0.0397  0.1052 -0.2626
 6042W        W25576  14.942  14.970  11.566  0.1074  0.2213  0.1787
 6043W        W25577   9.737   8.009   2.792 -0.4982 -0.0018  0.1895
 6044W        W25578  17.776   0.653  12.389  0.1478 -0.0452  0.0579
 6045W        W25579  11.332   1.497  13.414  0.2000 -0.1825 -0.0599
 6046W        W25580   5.710  12.717   3.354  0.3870  0.1121  0.0277
 6047W        W25581   1.371   5.659  14.519  0.0736 -0.0431 -0.0422
 6048W        W25582  17.776  11.483   0.434  0.2047 -0.1090 -0.3362
 6049W        W25583   1.512  11.211  11.939  0.3323  0.0984 -0.3350
 6050W        W25584   8.704  11.037  13.930 -0.0234 -0.1851 -0.3907
 6051W        W25585  13.130  14.498  12.922  0.0476 -0.0354  0.0387
 6052W        W25586   4.063  13.878   1.578  0.1795 -0.0414 -0.3492
 6053W        W25587  16.936   4.607  14.408 -0.2450 -0.5233  0.2429
 6054W        W25588   1.768  15.890  12.514 -0.0340 -0.2533  0.2938
 6055W        W25589   7.286  11.158  14.718  0.1508  0.0150  0.0024
 6056W        W25590   6.284  17.336  14.371 -0.1326  0.0086  0.0056
 6057W        W25591   0.162  14.461  14.130  0.0751  0.0088 -0.1169
 6058W        W25592   5.125  10.788   1.427  0.2312  0.2761  0.0408
 6059W        W25593   4.987   4.200   1.967  0.0784  0.0013 -0.0695
 6060W        W25594   9.317  14.785   1.553  0.3370 -0.3322 -0.2599
 6061W        W25595  16.874  10.273   3.266 -0.2107  0.0458  0.1428
 6062W        W25596  16.952  16.771   4.729 -0.1496 -0.1405 -0.0458
 6063W        W25597  17.706   6.133  14.207 -0.0392  0.0973 -0.0417
 6064W        W25598  10.936   1.627   1.118 -0.0356 -0.0499  0.3383
 6065W        W25599   3.813   9.325  12.210 -0.0498 -0.1954 -0.0599
 6066W        W25600   6.876  17.195   0.724  0.0802  0.2385  0.2366
 6067W        W25601   6.428  13.574   1.857  0.0490 -0.0646  0.2132
 6068W        W25602   9.626  14.319  15.531  0.3156  0.0622  0.2424
 6069W        W25603  12.517  16.824  14.838  0.2931  0.0910 -0.2209
 6070W        W25604   7.735   2.171  14.906 -0.0215  0.0174  0.0572
 6071W        W25605   5.672   4.878   1.741 -0.1939 -0.2185 -0.1067
 6072W        W25606   5.423   2.708  14.028 -0.2473  0.0538  0.0907
 6073W        W25607  11.343  10.774   3.692  0.1393 -0.2150 -0.1602
 6074W        W25608   2.491   0.411  12.727  0.0021  0.0516  0.1858
 6075W        W25609  10.547  15.558  11.803 -0.0081 -0.1807  0.0122
 6076W        W25610  13.060  12.641   2.331 -0.2539  0.0759 -0.0318
 6077W        W25611  14.829   1.418   2.726 -0.3041  0.1058  0.1591
 6078W        W25612  12.283   2.624   5.568 -0.0566  0.0414 -0.0042
 6079W        W25613  12.436  16.383   2.863  0.0759 -0.1978 -0.0140
 6080W        W25614  17.415   8.530  13.795  0.1501 -0.2299  0.1070
 6081W        W25615  17.439  16.790   1.731  0.1792  0.2750 -0.2081
 6082W        W25616   8.897   1.992  13.458  0.2957  0.4212 -0.0859
 6083W        W25617   2.711  17.836   1.589 -0.1173  0.1179  0.1872
 6084W        W25618  16.892  16.260  13.805 -0.1282  0.1063  0.2443
 6085W        W25619   1.463  17.247   2.053 -0.7362  0.1263  0.0383
 6086W        W25620   2.697   6.875   3.845 -0.2061 -0.0956  0.0431
 6087W        W25621  15.537   4.303  10.911 -0.0707 -0.0189  0.1124
 6088W        W25622   1.046   4.533   1.286  0.2814  0.0753 -0.1492
 6089W        W25623  14.547   5.114  14.838 -0.0185  0.2309  0.0784
 6090W        W25624   3.876   1.756  14.407 -0.0358  0.0407  0.0803
 6091W        W25625  17.248   8.798   1.911  0.1012 -0.1084 -0.0668
 6092W        W25626  13.112  10.604   4.703 -0.0956  0.1532  0.1034
 6093W        W25627   3.725   9.696   2.882 -0.3388  0.0106 -0.3641
 6094W        W25628   2.174  11.986  12.580  0.0134  0.2486  0.1062
 6095W        W25629  13.803   2.073  14.004  0.2618 -0.0341  0.1457
 6096W        W25630   7.819  18.263   4.317 -0.2164 -0.0309  0.0398
 6097W        W25631   7.094   6.535   2.731  0.0175 -0.0720  0.1459
 6098W        W25632  16.525  14.615  14.875 -0.3420  0.1037  0.1490
 6099W        W25633   7.979  17.516   1.534  0.2427 -0.4586 -0.0493
 6100W        W25634  15.199  13.114   1.019  0.1928  0.1684 -0.0278
 6101W        W25635   1.506   8.215  11.958 -0.0103 -0.0725 -0.0881
 6102W        W25636   4.098   2.393   0.559 -0.1253  0.0050  0.1243
 6103W        W25637   4.189   7.895   4.225  0.0875  0.0629 -0.1374
 6104W        W25638   8.498  10.881   0.178 -0.0923 -0.1285  0.1760
 6105W        W25639   7.761  17.003   2.323  0.0037 -0.3269 -0.1566
 6106W        W25640   9.301   4.278  14.431 -0.0349 -0.0499 -0.1518
 6107W        W25641   4.071   8.118  12.617  0.1620 -0.1680  0.2740
 6108W        W25642   5.795  12.309   0.332  0.0531  0.1826 -0.3134
 6109W        W25643  18.316  14.949   3.872  0.0174 -0.0053  0.1158
 6110W        W25644  15.214   7.159  11.735  0.2243 -0.5259  0.1290
 6111W        W25645  18.039   1.073   3.990  0.0513 -0.1400 -0.0071
 6112W        W25646   5.505  15.477   0.090 -0.0903 -0.2034  0.1085
 6113W        W25647   0.478  13.458  15.104  0.4418  0.0799  0.0113
 6114W        W25648  16.306   6.027   4.225  0.2124  0.2364 -0.0849
 6115W        W25649  11.065   9.279   1.816  0.1924  0.1172  0.2235
 6116W        W25650  18.022   0.778  14.431 -0.0425 -0.3876 -0.0405
 6117W        W25651  13.121   4.461   1.559 -0.2592 -0.1519  0.2083
 6118W        W25652  17.457  11.055   0.323 -0.1800  0.3508 -0.2272
 6119W        W25653  12.765   5.572  13.733 -0.0270 -0.0366  0.1318
 6120W        W25654  13.061  12.665  13.938 -0.1543  0.1273 -0.2043
 6121W        W25655  10.512  11.921   2.995  0.0295 -0.1918  0.0932
 6122W        W25656  17.178  13.388  11.722  0.0246 -0.3732 -0.2025
 6123W        W25657   6.024   5.673   2.240  0.0088  0.1105 -0.1530
 6124W        W25658   9.014   3.104   2.548  0.3001  0.1325 -0.1488
 6125W        W25659   1.337  10.102   4.482  0.0442 -0.0696  0.0490
 6126W        W25660  11.471   7.060   5.249  0.2789  0.4132  0.4339
 6127W        W25661  16.504  12.655   0.675 -0.0150  0.1032 -0.3164
 6128W        W25662  14.386  10.583   3.028 -0.2652  0.0854  0.1258
 6129W        W25663   9.911   7.897  11.608 -0.2465 -0.2733 -0.0406
 6130W        W25664  11.951  11.136  15.585 -0.0340 -0.2146 -0.1007
 6131W        W25665   3.393   9.868   4.408  0.0230  0.0367  0.0085
 6132W        W25666  12.611  14.756   2.850  0.0585  0.0939 -0.2081
 6133W        W25667  14.992  10.762   0.703 -0.1170  0.0983 -0.3118
 6134W        W25668   8.933   0.192   1.990  0.2583 -0.0051 -0.0835
 6135W        W25669   0.568   9.798  12.238  0.0911 -0.2637  0.0457
 6136W        W25670   0.991  18.168   1.947 -0.2561  0.0707  0.1739
 6137W        W25671   8.732  16.771  14.633  0.6238  0.0428  0.1073
 6138W        W25672  12.544   1.109  14.817  0.2739  0.3071  0.0537
 6139W        W25673   8.528   4.708   0.316 -0.1716  0.1109 -0.0385
 6140W        W25674  11.007  11.598   3.917  0.2115  0.0278 -0.4622
 6141W        W25675  17.264  13.309   0.461 -0.2057  0.0045 -0.0722
 6142W        W25676  14.599  14.455  14.694  0.2474  0.2618 -0.3943
 6143W        W25677   7.117   7.347   1.356 -0.2185  0.1689 -0.1894
 6144W        W25678   9.707   8.170  13.496  0.2518 -0.0508 -0.2441
 6145W        W25679   5.232  18.330  12.815 -0.3111  0.0390  0.0206
 6146W        W25680   3.007  12.193  12.715 -0.0858 -0.1357  0.1867
 6147W        W25681   0.051   6.938  14.588  0.2828 -0.0529 -0.1349
 6148W        W25682  13.583  11.906  13.276 -0.0305 -0.0767  0.3501
 6149W        W25683   6.412  12.853  15.648 -0.2005  0.1680  0.0479
 6150W        W25684   4.609  15.463  12.594 -0.2333 -0.2862 -0.1969
 6151W        W25685  18.206   4.891  15.199 -0.0813  0.0485  0.2376
 6152W        W25686   6.458   3.253   3.432  0.1555 -0.2935 -0.2371
 6153W        W25687  17.651  15.650   4.254  0.0492  0.2550 -0.0138
 6154W        W25688   5.657   5.695   2.637 -0.0253  0.1371  0.1533
 6155W        W25689  14.582   0.281  13.857  0.2007  0.0364  0.0593
 6156W        W25690  12.878  10.814   0.249  0.1619 -0.0010  0.1358
 6157W        W25691  17.570  12.453   2.429 -0.0502 -0.2335 -0.2289
 6158W        W25692  10.047   8.506   3.985 -0.0580  0.1133 -0.0791
 6159W        W25693  14.163  12.010  12.245 -0.1929  0.1754  0.1876
 6160W        W25694   4.361   6.005  13.833 -0.1840  0.1063 -0.1345
 6161W        W25695   7.723   8.723  15.488 -0.0780 -0.1625  0.2260
 6162W        W25696   4.370   5.462   2.228 -0.0772 -0.1646  0.1167
 6163W        W25697   3.461   5.161   4.030  0.0313  0.0242  0.0110
 6164W        W25698   1.351   4.777  11.353 -0.0343  0.0172 -0.1317
 6165W        W25699  10.100  12.105   0.027 -0.2435  0.0087 -0.3257
 6166W        W25700   7.391  10.436  14.421 -0.0139  0.1020  0.0207
 6167W        W25701   9.012   1.752   5.188  0.0905  0.1703 -0.0379
 6168W        W25702  14.084   1.986   4.817  0.1368 -0.2210 -0.1327
 6169W        W25703   5.861  10.445   2.526  0.2081  0.0436  0.4473
 6170W        W25704  18.189   7.606  11.831  0.0050  0.1123 -0.1613
 6171W        W25705  14.701   1.253   0.500  0.1621  0.3179  0.0249
 6172W        W25706   3.061   9.636   1.704  0.2307  0.0105 -0.2301
 6173W        W25707   2.517   5.735  11.471  0.1117 -0.0268  0.1520
 6174W        W25708   6.273   2.438  15.753  0.0816  0.3524  0.0450
 6175W        W25709   3.055   7.689  15.450 -0.0697  0.0684 -0.4207
 6176W        W25710  10.497   5.789  14.545 -0.3316 -0.1632  0.0737
 6177W        W25711  18.349  17.186   0.635 -0.0334  0.0382 -0.0206
 6178W        W25712  18.373  13.698   0.169  0.0901 -0.0386 -0.0957
 6179W        W25713   4.004  13.140   0.603 -0.4887 -0.2259  0.2062
 6180W        W25714  11.170   3.908   3.860  0.1595  0.3055 -0.2201
 6181W        W25715   1.957   4.187  13.691  0.1108  0.1646  0.2730
 6182W        W25716  12.727   5.139  12.793  0.2202 -0.0456 -0.0301
 6183W        W25717  11.421   1.519  12.781  0.1909  0.2463 -0.2162
 6184W        W25718   9.480   1.088  12.983  0.1513  0.2039  0.0433
 6185W        W25719  17.261   8.405   2.191  0.1950  0.1211  0.0317
 6186W        W25720  16.360   8.324   1.931 -0.0855 -0.1361  0.1083
 6187W        W25721  12.779  10.193   0.753 -0.0784 -0.1802  0.2311
 6188W        W25722   5.723  11.811  13.428  0.2661 -0.4025 -0.0717
 6189W        W25723   4.389   6.756  14.978 -0.3035 -0.2213 -0.3247
 6190W        W25724  15.916   3.658   3.818 -0.0936 -0.5205 -0.0628
 6191W        W25725  13.517  16.082   1.422 -0.1190  0.0897  0.2036
 6192W        W25726   2.343  10.684  15.144 -0.0730 -0.3545 -0.2824
 6193W        W25727   6.636  13.433  13.032  0.1793  0.2473  0.0146
 6194W        W25728   9.898   9.832   2.250 -0.1898  0.2177  0.0090
 6195W        W25729  11.652  11.420   2.078 -0.0036  0.1792  0.1033
 6196W        W25730   1.342   7.984  11.505  0.0409  0.1213  0.0635
 6197W        W25731  13.038   3.711   4.151 -0.0765  0.1062 -0.0204
 6198W        W25732   3.268   9.847  15.297  0.0542  0.5093  0.0990
 6199W        W25733  10.268   8.575  14.204 -0.0059  0.0440  0.1112
 6200W        W25734   3.846   8.148   3.333  0.1174  0.0561 -0.2336
 6201W        W25735  13.726   4.259   3.647 -0.4184  0.3604  0.1849
 6202W        W25736   5.235   2.142   3.062 -0.2023  0.1586  0.1715
 6203W        W25737  16.863  17.810  12.782 -0.0468  0.2883 -0.2430
 6204W        W25738   8.210   6.403   0.358  0.1659  0.2138 -0.0027
 6205W        W25739   8.149   9.277   3.245 -0.0232  0.3844  0.0941
 6206W        W25740  10.359   4.422   1.056  0.3264  0.1013 -0.0695
 6207W        W25741   2.848   8.373   0.754  0.0333 -0.1174 -0.3920
 6208W        W25742  15.952   4.300   1.725  0.3228  0.0068 -0.0095
 6209W        W25743  17.787  16.137   2.618  0.2913  0.0306 -0.3582
 6210W        W25744   4.152   5.058  15.489  0.1687  0.0423  0.0259
 6211W        W25745   4.457  10.068   1.125 -0.0350  0.2498 -0.0520
 6212W        W25746   8.014  10.836  13.809  0.0858  0.1004  0.3121
 6213W        W25747   2.354   3.448   1.877  0.2329 -0.0304 -0.1253
 6214W        W25748  18.374  11.133   2.427  0.0364  0.1361 -0.2174
 6215W        W25749   7.816  10.704   3.592 -0.0239 -0.4580  0.0222
 6216W        W25750   1.405   4.467   2.240 -0.0160 -0.2459  0.0437
 6217W        W25751   6.567   2.912   0.030  0.1768  0.2907  0.2394
 6218W        W25752   7.749  12.644  12.488  0.1122  0.0361 -0.0029
 6219W        W25753   6.808  18.349  13.756 -0.1415 -0.0198 -0.1218
 6220W        W25754   6.141  12.688   3.667  0.1294  0.1101 -0.0821
 6221W        W25755   5.248  16.800   4.047 -0.1868  0.2301 -0.0377
 6222W        W25756   4.293   7.034   4.069  0.0317 -0.1134 -0.1967
 6223W        W25757  14.899  10.708   3.836 -0.1528  0.0414 -0.1239
 6224W        W25758  11.077  10.258   1.755 -0.2014 -0.1248 -0.0069
 6225W        W25759   4.501   0.371   4.321  0.1189  0.2143  0.0113
 6226W        W25760  11.137  11.980   0.012 -0.1098  0.0455 -0.0532
 6227W        W25761  10.261  12.759  11.392 -0.0541  0.0154 -0.0701
 6228W        W25762  13.070   4.618   2.038  0.0763  0.1899  0.3345
 6229W        W25763  13.404  10.579  13.970  0.0675 -0.0059 -0.0948
 6230W        W25764  12.016  12.184   1.124  0.1891 -0.0774 -0.5933
 6231W        W25765   4.227   8.516  13.304 -0.0936 -0.0032 -0.2755
 6232W        W25766  10.252  18.375  13.683  0.0710  0.1940  0.3121
 6233W        W25767   4.038   0.482   0.728  0.0546 -0.1432 -0.0092
 6234W        W25768  14.653  12.574   3.427  0.4055 -0.3948 -0.0814
 6235W        W25769   9.244   3.519  15.467 -0.2003 -0.0714 -0.0774
 6236W        W25770   7.366   9.611  11.666 -0.0254  0.1830 -0.3885
 6237W        W25771   7.787   7.711  12.072 -0.1515 -0.0412  0.3191
 6238W        W25772  11.451   3.290  13.881  0.3501 -0.0996 -0.2197
 6239W        W25773   4.993   1.358  15.039  0.0505  0.3732 -0.0804
 6240W        W25774   1.259   7.866   1.392  0.0214 -0.0467 -0.3101
 6241W        W25775  17.839   8.967  13.870 -0.0211 -0.0108 -0.0780
 6242W        W25776   5.816   6.562   1.133  0.1919  0.1448 -0.2526
 6243W        W25777   3.964  14.960  13.844  0.0826  0.3465  0.4544
 6244W        W25778  17.067   7.165  15.687 -0.0224 -0.0813  0.1778
 6245W        W25779   7.641  12.022   1.551  0.0332  0.2534 -0.2516
 6246W        W25780   2.631  13.773   4.556 -0.0823 -0.0058  0.1024
 6247W        W25781  14.586  17.569   2.186  0.0563 -0.1009 -0.0679
 6248W        W25782   9.291   9.210   1.227  0.5202  0.1466 -0.1426
 6249W        W25783  11.071  16.773   4.993 -0.3768  0.2306  0.0433
 6250W        W25784  16.051   6.526   2.899  0.1877 -0.4488  0.0520
 6251W        W25785   0.443  16.303   4.095  0.3751 -0.1061 -0.0735
 6252W        W25786   0.494   1.909  13.299  0.2440 -0.0880 -0.1725
 6253W        W25787   1.205   4.611   0.738 -0.0834 -0.1950 -0.0673
 6254W        W25788  13.878  17.230   2.916  0.1324  0.0407 -0.1016
 6255W        W25789   2.217  11.635  15.632 -0.2574  0.1245 -0.1516
 6256W        W25790  10.635   4.077   0.187 -0.0684  0.0280 -0.0752
 6257W        W25791   8.611  11.528   0.827  0.1761 -0.0938  0.0877
 6258W        W25792   9.309   5.540   1.498  0.4994 -0.1313 -0.1911
 6259W        W25793  14.838   2.161   0.813  0.0979 -0.0242 -0.2899
 6260W        W25794   8.158   3.986   1.936  0.2407 -0.1241 -0.2766
 6261W        W25795   7.966  14.631   0.171 -0.2313  0.0445 -0.0990
 6262W        W25796   0.572  15.398  14.478 -0.0869 -0.1894 -0.0212
 6263W        W25797   1.871  17.483  12.497 -0.2811  0.0666 -0.1567
 6264W        W25798   0.732  10.439  10.703  0.0332  0.0680 -0.1658
 6265W        W25799   2.391   5.065  14.567  0.0147  0.2684 -0.0620
 6266W        W25800   3.511   1.940   2.572  0.0617  0.2015  0.0865
 6267W        W25801  15.472   1.837  13.411 -0.1373  0.0938  0.3042
 6268W        W25802  11.070  11.867   4.704  0.0835 -0.1312  0.2038
 6269W        W25803   2.596  13.205  12.120 -0.2880  0.0245 -0.2170
 6270W        W25804   0.582   3.405  12.218  0.0632 -0.2313  0.2173
 6271W        W25805   9.277   6.626  14.362 -0.1299  0.1129  0.3094
 6272W        W25806   8.906   0.598   4.816  0.2477  0.1961  0.0523
 6273W        W25807  17.337  14.750   3.699 -0.1404 -0.2064  0.1544
 6274W        W25808   7.102   2.350  13.184  0.0771  0.2428 -0.0740
 6275W        W25809  16.005   2.278  10.913 -0.0809 -0.1395  0.0967
 6276W        W25810   3.603  13.643   1.486 -0.0980 -0.0574  0.0157
 6277W        W25811  12.509   8.425   3.858  0.0285  0.4292  0.1836
 6278W        W25812  12.179   4.736   4.068  0.0263  0.0123 -0.0637
 6279W        W25813   8.186   1.884  15.141  0.0175 -0.0786 -0.1740
 6280W        W25814  14.433   2.304   3.236 -0.2100  0.0608 -0.0502
 6281W        W25815   2.291   0.993  12.146 -0.1668  0.0345  0.1047
 6282W        W25816  17.022  15.636   0.389  0.0339  0.1295 -0.2689
 6283W        W25817  13.982  17.876   1.799 -0.0563  0.1085 -0.0543
 6284W        W25818  10.860  13.145  12.452  0.4270  0.1029 -0.0613
 6285W        W25819   3.691  13.045   3.317 -0.0323  0.1023 -0.0313
 6286W        W25820  15.699   1.324   0.687  0.1758 -0.1204  0.0569
 6287W        W25821  10.958   4.491   0.430  0.1005 -0.1834 -0.0926
 6288W        W25822  14.970  13.193  13.305  0.0037  0.3036 -0.0491
 6289W        W25823  13.638  15.392   4.358 -0.0395 -0.0855  0.4252
 6290W        W25824   8.747  12.997  14.066  0.4527  0.1102 -0.0012
 6291W        W25825   7.842  12.508   1.644  0.0027  0.4579  0.1009
 6292W        W25826  14.833  15.595   0.943 -0.0252 -0.4795  0.1616
 6293W        W25827   9.228  10.101   3.388  0.1681  0.0771 -0.0657
 6294W        W25828   5.554  13.026  15.259 -0.3603 -0.0462  0.2133
 6295W        W25829  18.351  14.080   3.237 -0.0241  0.0037 -0.2216
 6296W        W25830  13.415   0.146  15.083 -0.2807 -0.0144  0.0335
 6297W        W25831   1.722  13.825  13.611  0.0122 -0.0525  0.0654
 6298W        W25832  17.715  11.117  14.512 -0.1224  0.3585  0.1661
 6299W        W25833   3.577  16.251   1.079  0.3246  0.0469  0.0795
 6300W        W25834   9.397   4.886   0.288 -0.0145 -0.0725  0.0656
 6301W        W25835  16.985  14.303  11.196  0.1110  0.3781 -0.1331
 6302W        W25836   9.125   5.009   3.323 -0.0507  0.2447 -0.0725
 6303W        W25837   9.413  12.117   2.921  0.0675  0.1812  0.0056
 6304W        W25838   9.917  11.418  13.625 -0.1183 -0.3622 -0.1647
 6305W        W25839   2.824  14.552   0.137  0.0099 -0.0548 -0.0068
 6306W        W25840   7.165  18.223  15.557  0.1895 -0.0275 -0.0526
 6307W        W25841   7.438   6.426   1.159 -0.3334 -0.3276 -0.1742
 6308W        W25842   1.835   7.670   4.031 -0.1424 -0.0448 -0.2183
 6309W        W25843   8.743  15.293   5.813 -0.0723  0.0446  0.4841
 6310W        W25844  10.236   4.257  14.873 -0.2228 -0.0820  0.2580
 6311W        W25845   8.281  10.370  15.280  0.0668 -0.0445 -0.1522
 6312W        W25846  15.103  10.126   3.179  0.1847  0.1927 -0.0346
 6313W        W25847  15.277   8.358   1.878 -0.1404  0.0129  0.1346
 6314W        W25848   2.714  16.532   2.171 -0.2524  0.3700 -0.0507
 6315W        W25849   3.478   7.365   0.892  0.0637 -0.0021  0.1881
 6316W        W25850  17.543  16.999  13.994 -0.0190 -0.2167  0.0859
 6317W        W25851   5.292   9.402   1.730  0.2589 -0.0372  0.0759
 6318W        W25852   4.643   6.975   2.843  0.0383 -0.0954 -0.0108
 6319W        W25853   3.011   7.681   1.539 -0.2832 -0.0998 -0.0659
 6320W        W25854  16.493   5.951   0.290  0.1537 -0.2875  0.3834
 6321W        W25855   0.009  10.528  14.725  0.0108 -0.1224  0.1685
 6322W        W25856   5.104  13.230  14.900  0.1270  0.1077  0.1859
 6323W        W25857   8.878   2.280  12.868  0.0202  0.0157  0.0918
 6324W        W25858  16.799   0.629   4.058  0.0501  0.2866  0.1772
 6325W        W25859  17.716   3.401  11.086 -0.1127 -0.1261 -0.1394
 6326W        W25860   4.709  17.644  12.397 -0.1154 -0.0782  0.2340
 6327W        W25861   3.793  12.464  13.179  0.1633  0.0599  0.1029
 6328W        W25862   2.438   4.820  12.972 -0.1926  0.0741  0.1190
 6329W        W25863   2.940  16.816  11.711 -0.0922  0.2334 -0.2393
 6330W        W25864  15.507  11.972  11.203 -0.1375 -0.0909 -0.1634
 6331W        W25865   7.304   5.585  14.748  0.0538 -0.2548 -0.1388
 6332W        W25866  13.381   2.700  15.145  0.0915  0.3370  0.3173
 6333W        W25867  14.483  12.976  14.631  0.2246 -0.4440  0.0600
 6334W        W25868   8.851  10.360  13.482  0.1487 -0.0026 -0.1145
 6335W        W25869  12.012   8.716  13.150 -0.3239 -0.0955 -0.1467
 6336W        W25870  17.516  11.235  11.088  0.0624  0.1816 -0.4101
 6337W        W25871  10.079  17.767   6.130  0.3914  0.0032 -0.0829
 6338W        W25872  17.352  10.241   1.119  0.1244  0.0826  0.1013
 6339W        W25873   4.762   2.993   0.789  0.1537 -0.3327 -0.2181
 6340W        W25874   5.721   5.871  12.398 -0.2008 -0.2150  0.2025
 6341W        W25875  12.360  10.648   3.489 -0.0415  0.2257 -0.1461
 6342W        W25876   0.940   8.842   1.803  0.0565  0.1947  0.0436
 6343W        W25877   2.170  17.842   1.529 -0.3552  0.0236  0.0262
 6344W        W25878   5.128   2.504   3.948 -0.0716  0.2017 -0.2865
 6345W        W25879  11.430  11.370  14.392  0.0696 -0.0777 -0.1747
 6346W        W25880   9.712  16.898   4.099  0.1701 -0.3965 -0.1253
 6347W        W25881   7.850  18.180   0.998 -0.2357 -0.2736 -0.1391
 6348W        W25882   4.586  11.844  11.047 -0.0992 -0.0495 -0.2222
 6349W        W25883   5.738   4.205  11.787 -0.0867  0.3128  0.2742
 6350W        W25884   1.632   6.763  12.245  0.1431 -0.1255 -0.2464
 6351W        W25885   7.469   0.654  13.060 -0.0535 -0.0687 -0.2105
 6352W        W25886  16.885  17.641   1.139  0.1140  0.1809 -0.0590
 6353W        W25887   9.766   0.856   1.279  0.0034 -0.0141 -0.0934
 6354W        W25888  18.395  12.758  13.276  0.0405  0.1433  0.0284
 6355W        W25889   8.532   2.096  10.778 -0.0232  0.1612  0.1349
 6356W        W25890  11.395  10.206  11.521  0.0189 -0.1043  0.0103
 6357W        W25891   5.533   4.299  14.713  0.2095 -0.0268 -0.2367
 6358W        W25892   6.910  12.743   4.854 -0.1257  0.0767  0.1389
 6359W        W25893   8.281  17.111  10.900  0.4148  0.2701  0.0743
 6360W        W25894  13.821   2.689   2.326 -0.2258 -0.1464  0.1344
 6361W        W25895  13.212  12.222   0.094 -0.0820 -0.1121  0.0058
 6362W        W25896   2.254  17.757  12.781  0.1640 -0.2119 -0.1228
 6363W        W25897   1.617  14.312  12.294  0.1803 -0.1803  0.0439
 6364W        W25898   9.865  10.240  11.798 -0.2453  0.1294  0.1188
 6365W        W25899  17.674   0.671   4.224 -0.1558 -0.1057 -0.0115
 6366W        W25900  14.004  10.791   2.703  0.1066  0.4139  0.1395
 6367W        W25901  18.047   4.031   4.357  0.1649  0.0146 -0.1886
 6368W        W25902  16.244   9.742  14.244  0.0974  0.0761  0.1039
 6369W        W25903  12.362   9.173   0.398  0.4065  0.0233 -0.1509
 6370W        W25904   1.633   2.122  10.675 -0.2825 -0.1365 -0.0298
 6371W        W25905  11.766  16.020  11.771 -0.3189 -0.3262 -0.1231
 6372W        W25906   4.737  15.351  14.993 -0.0461  0.1029  0.0692
 6373W        W25907   9.979  14.727   3.717  0.1727 -0.1248  0.3872
 6374W        W25908  11.561  11.854  12.202  0.1005 -0.0659 -0.0422
 6375W        W25909   1.191  18.136   3.539  0.1267 -0.3267  0.0972
 6376W        W25910  12.664   2.928   3.674 -0.3245 -0.1124 -0.2201
 6377W        W25911   3.814   4.000   5.374  0.3302 -0.0590  0.4533
 6378W        W25912   3.074  15.668  12.873  0.0988  0.0402 -0.1513
 6379W        W25913   4.077  10.879  11.732  0.1250 -0.1912 -0.5190
 6380W        W25914   1.670  13.571   2.335 -0.1320 -0.3379  0.0314
 6381W        W25915  16.173   3.458  11.096  0.2011 -0.0215  0.1788
 6382W        W25916  11.447   1.728   1.946 -0.1258  0.0675 -0.4091
 6383W        W25917  14.208   1.550  14.117  0.1575 -0.1722  0.0034
 6384W        W25918  11.901  12.361   1.999  0.0118  0.0578 -0.0719
 6385W        W25919  14.679  12.722   1.031  0.0361 -0.1630 -0.0542
 6386W        W25920   4.638   0.025  14.342 -0.3668  0.0519 -0.1456
 6387W        W25921  14.449  14.153  12.450 -0.3487  0.1292  0.2193
 6388W        W25922   1.490   6.503  15.493  0.2178  0.0873 -0.1424
 6389W        W25923  14.719   0.484  15.632 -0.2617  0.0787  0.0822
 6390W        W25924   2.942   3.086   4.855  0.2045  0.1224 -0.1355
 6391W        W25925  17.285  17.591  13.637  0.1546 -0.1149  0.0959
 6392W        W25926  10.230  16.741   1.129  0.0528  0.1659 -0.0670
 6393W        W25927  10.432   7.449   0.212  0.1240 -0.2456 -0.0165
 6394W        W25928  11.083  12.759   2.382  0.0899  0.1504  0.1263
 6395W        W25929  11.348  16.740  14.999 -0.0098 -0.2691 -0.0610
 6396W        W25930   5.633   5.476   5.655 -0.1578 -0.2249 -0.0551
 6397W        W25931   6.234   4.923  14.875  0.0693  0.0274  0.0616
 6398W        W25932   3.587  18.266   2.624  0.0954 -0.0174 -0.1105
 6399W        W25933   0.149   9.527   0.777 -0.1861  0.2406  0.2472
 6400W        W25934  10.806   8.070   1.902  0.1327  0.1550 -0.2031
 6401W        W25935   6.094   1.332   1.820  0.1197 -0.0106  0.1248
 6402W        W25936  16.030   4.253  11.807  0.3626  0.1741 -0.1310
 6403W        W25937   7.267   3.449   1.815 -0.0117 -0.3356  0.1300
 6404W        W25938  10.325   4.170   2.028 -0.0124  0.0945 -0.2690
 6405W        W25939  12.604   7.241  13.581 -0.2765 -0.1472 -0.1886
 6406W        W25940  17.934  10.210   1.525 -0.0198 -0.3753 -0.0195
 6407W        W25941  11.117   3.848  14.573  0.0678 -0.0202  0.0508
 6408W        W25942   9.073   7.979   3.581  0.1273  0.2768  0.1077
 6409W        W25943  12.723   8.214  13.688  0.2278 -0.1114  0.0232
 6410W        W25944   0.640   2.212   3.385 -0.1498 -0.0808 -0.0489
 6411W        W25945   1.403   0.705  14.489 -0.1245 -0.0906 -0.0541
 6412W        W25946   5.498   4.815   1.203 -0.0315  0.0384  0.2350
 6413W        W25947   8.610  15.801   5.092 -0.0366  0.1607  0.2761
 6414W        W25948   1.000  17.074   2.162  0.0524 -0.2087 -0.1719
 6415W        W25949  15.327   1.986   4.297  0.0583  0.1130 -0.2361
 6416W        W25950   8.068   6.206   1.445  0.1819 -0.2064  0.1356
 6417W        W25951   6.883   3.253  15.836 -0.0069  0.0482 -0.1620
 6418W        W25952   2.987  11.824  13.941  0.1125 -0.3158 -0.3851
 6419W        W25953   9.053  14.650   1.926 -0.0025  0.1963  0.0965
 6420W        W25954   9.978   7.371  11.450  0.1340  0.4790  0.0629
 6421W        W25955  11.659  14.039  14.434  0.1885  0.1345  0.1970
 6422W        W25956   6.295  11.158  15.030 -0.2782  0.1289 -0.0005
 6423W        W25957  18.162   8.677   2.867  0.2500 -0.4368  0.4823
 6424W        W25958   0.751  14.001   3.308  0.1753  0.0226  0.0801
 6425W        W25959  10.345  13.468   3.814 -0.4385  0.1539  0.0356
 6426W        W25960  11.610  14.048   5.804 -0.1657 -0.2317 -0.0482
 6427W        W25961   1.230  15.984  12.526  0.0747 -0.1765 -0.2605
 6428W        W25962   6.589  13.302  15.320  0.3152  0.2047 -0.0628
 6429W        W25963   1.781  14.876  13.951  0.1899 -0.2370 -0.3415
 6430W        W25964  12.060   7.081   0.828 -0.1110  0.1134 -0.1121
 6431W        W25965   7.396  15.783   3.930  0.0903  0.1246  0.0544
 6432W        W25966   1.143   2.598  13.033  0.0317 -0.0226 -0.1196
 6433W        W25967  12.614  11.522  15.821 -0.1398 -0.0944  0.3209
 6434W        W25968   3.831  15.103   2.563 -0.2758  0.1082  0.0467
 6435W        W25969   4.984   4.873   2.425 -0.1229 -0.2222 -0.2326
 6436W        W25970   6.687  10.059  15.303 -0.1729  0.2111 -0.1195
 6437W        W25971   5.971  15.391   2.193 -0.0397  0.1656 -0.0547
 6438W        W25972  15.979  15.097   1.917  0.0616 -0.0822 -0.2360
 6439W        W25973  11.654  10.532   2.984  0.0619 -0.2359  0.1256
 6440W        W25974  16.836  17.997   3.652  0.0340  0.3025 -0.1579
 6441W        W25975   2.805  10.268  12.106 -0.0713 -0.1108  0.3270
 6442W        W25976   9.758   1.304   3.176  0.2571  0.1686  0.2626
 6443W        W25977   5.916   9.738  13.173  0.0913  0.2183 -0.1355
 6444W        W25978  12.924   5.520  13.046 -0.0852 -0.2529 -0.2706
 6445W        W25979  10.813  15.234  11.573 -0.0112  0.3358 -0.0985
 6446W        W25980  10.164   7.348  13.332  0.0238 -0.0893  0.0881
 6447W        W25981   6.847  17.853  14.452 -0.0552  0.0937  0.0522
 6448W        W25982  13.806   2.499   0.604 -0.3129 -0.1251 -0.0208
 6449W        W25983  15.421   5.515  14.659  0.0787  0.1168  0.2626
 6450W        W25984   1.955  16.908  15.275  0.0510  0.1410 -0.0118
 6451W        W25985  12.026   9.730   3.665 -0.1882 -0.1353  0.0776
 6452W        W25986   9.450   8.115  10.940 -0.0239 -0.1979 -0.0048
 6453W        W25987  13.562  12.206   0.425  0.0246 -0.0400 -0.2374
 6454W        W25988   9.138  18.081   1.634  0.6101 -0.2799  0.1836
 6455W        W25989  16.564   3.709   3.694  0.2233 -0.0976  0.0822
 6456W        W25990   3.805  16.187  13.950 -0.1243 -0.2199 -0.0366
 6457W        W25991  15.158   7.588  12.759  0.0679 -0.0961  0.0745
 6458W        W25992  11.985  14.985   0.011 -0.0976 -0.3786  0.0054
 6459W        W25993   8.911   9.941  11.254  0.1282  0.0037 -0.1512
 6460W        W25994   0.130  12.718  12.218  0.2145  0.3250 -0.3160
 6461W        W25995  15.768   3.621  11.436  0.1045  0.0456  0.1538
 6462W        W25996   4.600   0.119  11.580 -0.0902 -0.2365  0.0587
 6463W        W25997   2.437  14.582   1.238 -0.0844 -0.0450  0.0763
 6464W        W25998  13.009   8.307  14.938 -0.1314 -0.2316  0.0650
 6465W        W25999  15.303   2.528  13.473  0.0137  0.0289  0.1445
 6466W        W26000   5.364  13.067   4.423 -0.1460 -0.1373  0.2202
 6467W        W26001   8.333  15.908  13.968 -0.0965 -0.1224  0.0881
 6468W        W26002   3.205   4.402  14.238  0.2004 -0.0965 -0.1518
 6469W        W26003   5.992   9.008   1.273 -0.1576 -0.0338  0.0708
 6470W        W26004  11.811  17.740   3.350  0.1613 -0.3619  0.1295
 6471W        W26005  17.219   1.589  15.321  0.3115  0.0316  0.0254
 6472W        W26006  15.213  10.731  13.235  0.1054  0.0263 -0.1462
 6473W        W26007   6.126   4.847   2.168 -0.5405  0.2905  0.0240
 6474W        W26008  14.878   7.099   1.020 -0.3015 -0.1411  0.0078
 6475W        W26009  10.435   1.689   2.775 -0.1617  0.3697 -0.0354
 6476W        W26010   0.621   4.447   3.505  0.0715  0.0983 -0.0798
 6477W        W26011   5.143  18.028  14.281 -0.0963  0.1130 -0.1880
 6478W        W26012   5.496  17.984   0.133 -0.3361 -0.2379  0.2718
 6479W        W26013   7.934   2.367   4.908 -0.1857  0.0382 -0.1403
 6480W        W26014  14.540   7.672  10.341 -0.2033 -0.0998  0.0386
 6481W        W26015  13.319   7.326   1.959  0.4521  0.1842  0.0901
 6482W        W26016   9.951   8.442   3.021  0.1825 -0.0421  0.1005
 6483W        W26017   7.742  15.040   3.007 -0.0443 -0.0969  0.1509
 6484W        W26018   8.719   5.994  13.431 -0.0278  0.1726  0.1352
 6485W        W26019   6.471  14.428   3.576 -0.1239 -0.0270  0.1321
 6486W        W26020  17.751  15.389  11.175  0.1487 -0.3772 -0.0672
 6487W        W26021   2.967  12.055   1.736  0.2387 -0.0107 -0.2611
 6488W        W26022  12.218   8.043  14.990  0.1604 -0.2636  0.2659
 6489W        W26023   0.884  10.329   4.363 -0.1427 -0.0753  0.2338
 6490W        W26024  14.233  13.211   4.643 -0.0174 -0.0420 -0.2638
 6491W        W26025  18.184   9.752  11.845 -0.1770 -0.1523  0.0985
 6492W        W26026  18.000   5.909   3.954 -0.1287  0.0412 -0.1837
 6493W        W26027   4.588   6.884  11.397  0.2880 -0.0317 -0.0167
 6494W        W26028   3.729   3.058  12.845 -0.0615 -0.3580 -0.0873
 6495W        W26029   1.279   8.024   0.388 -0.1493  0.2561 -0.0393
 6496W        W26030   1.985  15.971   0.282  0.2298 -0.1263  0.1760
 6497W        W26031  12.096  13.263   1.674  0.1644  0.0407  0.0334
 6498W        W26032   1.012  16.077   0.079 -0.0156  0.0606 -0.0572
 6499W        W26033   3.699   4.916  14.476 -0.3346  0.2073 -0.2342
 6500W        W26034  11.004   4.695   2.829  0.0611 -0.1366 -0.0849
 6501W        W26035   8.229   8.743  12.025 -0.1097  0.1510 -0.0700
 6502W        W26036  14.482   0.589  14.279  0.0322 -0.1303  0.0019
 6503W        W26037   7.946  15.132  14.680 -0.3906 -0.3253  0.2727
 6504W        W26038   9.911  14.790   2.471 -0.2620 -0.2370 -0.5446
 6505W        W26039   4.352  14.127  15.251  0.0777  0.0259  0.1531
 6506W        W26040   7.812   4.435  14.437  0.1467  0.3693 -0.0710
 6507W        W26041  10.345   7.884   1.833 -0.0354 -0.1651 -0.1827
 6508W        W26042   0.555   9.776   0.018 -0.2656 -0.0200  0.0414
 6509W        W26043   6.455  12.663  13.950  0.1373 -0.1391 -0.2069
 6510W        W26044   7.777   7.961   3.487  0.4666  0.0511 -0.2985
 6511W        W26045   5.489   5.367  13.673 -0.0988 -0.2215 -0.0487
 6512W        W26046  15.439  16.375   4.138  0.1301 -0.1025 -0.1598
 6513W        W26047   2.094   4.869   4.348 -0.2638 -0.1794 -0.2209
 6514W        W26048   6.277  13.796   3.033  0.0191 -0.2239 -0.0496
 6515W        W26049   9.681   4.041   3.149 -0.4406 -0.3599  0.0820
 6516W        W26050  12.317  14.558  14.770  0.0981 -0.0952  0.1817
 6517W        W26051  13.736  10.097  15.459  0.0326  0.2086  0.0381
 6518W        W26052  10.787   9.515  14.351 -0.0771  0.1659  0.1122
 6519W        W26053   9.097   1.686  12.009 -0.0113 -0.1747  0.1040
 6520W        W26054  15.910   6.939   3.140  0.2645 -0.2829  0.1126
 6521W        W26055  15.739   3.985   4.561 -0.2041 -0.0619  0.2564
 6522W        W26056  11.239  15.590  15.075  0.0855  0.0116  0.1466
 6523W        W26057   8.283   6.842  14.914  0.0928  0.2744 -0.1805
 6524W        W26058  12.873   7.143   2.947 -0.0139  0.1839 -0.0340
 6525W        W26059   2.044  10.948   4.922 -0.1367  0.2618  0.0348
 6526W        W26060  13.294  12.494  10.995  0.1090 -0.4593 -0.0918
 6527W        W26061  12.180   2.866   1.486  0.1285  0.2256 -0.3202
 6528W        W26062  14.436  13.314  13.350 -0.0682  0.0360 -0.4082
 6529W        W26063   9.250   0.687  10.509  0.1365 -0.0249  0.2576
 6530W        W26064   6.239  16.686   3.032 -0.2505  0.2888  0.3886
 6531W        W26065  16.698   3.200   3.805  0.0148  0.1376  0.5573
 6532W        W26066  10.042   4.022  12.913 -0.0427  0.0206 -0.0947
 6533W        W26067   2.710  17.013   2.291  0.1943 -0.6372  0.0381
 6534W        W26068   6.841   1.270  13.431  0.0529 -0.1288  0.1490
 6535W        W26069   0.235  15.381  12.528 -0.0796  0.0388  0.1851
 6536W        W26070  13.549   4.528   0.176 -0.2717 -0.1788 -0.3348
 6537W        W26071   4.303   8.608   3.978 -0.2970  0.0403 -0.0950
 6538W        W26072  15.494  17.512   3.938 -0.0394  0.3480  0.2796
 6539W        W26073   5.605   2.920   4.168 -0.1494 -0.3152  0.1617
 6540W        W26074   0.663  13.946  10.946 -0.0600  0.1027  0.0368
 6541W        W26075  12.254   2.123   4.569 -0.0488 -0.4142 -0.2768
 6542W        W26076  17.380  15.271   4.087  0.3659 -0.0893 -0.1266
 6543W        W26077  11.097   5.521  13.077 -0.0120 -0.1716  0.0632
 6544W        W26078   9.097   0.981  12.656  0.0628  0.0156  0.0989
 6545W        W26079   3.035   3.408  12.060 -0.1477  0.2709 -0.0883
 6546W        W26080  16.826  14.605  13.243  0.1423  0.0226  0.0606
 6547W        W26081  14.066  17.766  14.908  0.1668 -0.3628 -0.0890
 6548W        W26082   5.757   9.463  14.792 -0.0453 -0.0035  0.0730
 6549W        W26083  12.578  18.233   3.590  0.1566 -0.2329 -0.2021
 6550W        W26084  11.101  12.417   0.874  0.2310 -0.3480  0.1926
 6551W        W26085   6.209  13.566   2.307  0.1715  0.0938 -0.3940
 6552W        W26086  16.251   3.016   3.985  0.0896  0.0335 -0.2098
 6553W        W26087  14.076   4.648  14.232  0.1542 -0.0096  0.3316
 6554W        W26088   8.554   4.132  15.166 -0.1027 -0.1813 -0.2774
 6555W        W26089  17.390   2.892  11.859 -0.0143 -0.2917 -0.2364
 6556W        W26090  11.130   4.549  12.612  0.0899  0.0851  0.0028
 6557W        W26091   8.219   4.996   4.406 -0.2064 -0.0826  0.0341
 6558W        W26092   2.251   3.179   1.415 -0.0002 -0.3000  0.0978
 6559W        W26093  14.936  17.368   3.914  0.1674  0.1258 -0.1208
 6560W        W26094   4.153   8.993  15.517  0.0841 -0.0469  0.1889
 6561W        W26095   9.240  14.851   1.053 -0.0723 -0.2531 -0.1744
 6562W        W26096   8.092   2.305  13.547  0.4097 -0.0320 -0.2948
 6563W        W26097  12.621  18.395  14.157  0.0191  0.2596  0.0804
 6564W        W26098  11.404  12.418  12.692  0.3033 -0.2011  0.1333
 6565W        W26099  10.007  12.479   4.871  0.1446  0.0396  0.0066
 6566W        W26100   3.238   1.002   3.016  0.2681  0.0612 -0.0568
 6567W        W26101   1.171  13.205   1.137 -0.1326 -0.1837  0.1114
 6568W        W26102  13.248  10.720  13.515 -0.0216 -0.1421 -0.0076
 6569W        W26103   6.902  16.773   1.246 -0.1100 -0.1495 -0.0036
 6570W        W26104   5.876  13.327  13.573  0.1691 -0.2256  0.1330
 6571W        W26105  13.204   2.668  12.008 -0.0084  0.1400 -0.1738
 6572W        W26106   1.451  12.945  11.864  0.0606  0.1115  0.0331
 6573W        W26107  17.989   6.884   0.861 -0.3552 -0.0676  0.0690
 6574W        W26108  14.982   2.235   1.919  0.2639  0.3602 -0.0711
 6575W        W26109  13.755  17.459  12.170  0.3244 -0.0414 -0.0028
 6576W        W26110   7.832  12.703   5.233 -0.3845  0.1469  0.0052
 6577W        W26111  13.544   8.835  13.733  0.0033 -0.2684  0.0627
 6578W        W26112   2.752   0.529   2.586  0.2635  0.2557  0.0728
 6579W        W26113  12.902   9.569   2.021  0.0849 -0.0287 -0.0597
 6580W        W26114  13.940  16.344   2.719 -0.0332 -0.1932  0.0628
 6581W        W26115  14.856   6.793   0.599 -0.1506  0.1374  0.0767
 6582W        W26116   8.108  15.298  11.649 -0.1075 -0.2998 -0.1632
 6583W        W26117  12.870   9.116  13.330 -0.1420 -0.1288  0.2207
 6584W        W26118   5.440  16.423  11.570 -0.3238  0.1264  0.0710
 6585W        W26119   4.116   3.639  11.483  0.1112  0.1586 -0.0261
 6586W        W26120   4.166   9.414   1.086  0.2000  0.1820  0.2496
 6587W        W26121  18.228  15.858  13.785  0.1884  0.3341  0.2205
 6588W        W26122   9.950   2.301   2.936 -0.2265 -0.3756  0.2823
 6589W        W26123   4.389   8.792   4.450  0.1850  0.1401  0.0047
 6590W        W26124   7.938  11.057   4.518 -0.1306  0.0666 -0.1384
 6591W        W26125   5.199  11.745   2.505 -0.0358 -0.0375  0.2387
 6592W        W26126  13.720   0.075  13.500 -0.3139  0.3270 -0.1876
 6593W        W26127   3.533  10.991   1.463 -0.2172  0.1114 -0.1667
 6594W        W26128  10.816   2.076   2.774 -0.2135 -0.2984 -0.1373
 6595W        W26129  10.398   9.478   2.870 -0.3057  0.0427  0.2981
 6596W        W26130   7.789   7.067   3.556  0.0519  0.0980  0.1970
 6597W        W26131  12.874   5.258  12.216 -0.2597 -0.0755  0.0971
 6598W        W26132  16.081  17.374  15.009 -0.1994  0.2793 -0.1677
 6599W        W26133  15.293  10.818  11.796 -0.0561  0.1440  0.2236
 6600W        W26134  11.272   7.830  11.568 -0.1805  0.1545  0.0882
 6601W        W26135  11.532  12.147   2.852  0.3546  0.0249  0.0621
 6602W        W26136   6.391   8.302   1.810  0.0817  0.1983  0.0213
 6603W        W26137  11.628  11.504  11.818 -0.3352  0.2868  0.0634
 6604W        W26138   8.236  13.511  11.936 -0.1977  0.1624  0.0576
 6605W        W26139  14.196   0.027  15.021 -0.3369 -0.0042 -0.2655
 6606W        W26140   5.370   1.079  14.196  0.2306 -0.1107  0.2215
 6607W        W26141   6.701   6.643   4.102  0.1479 -0.3483  0.0506
 6608W        W26142   8.431  12.091  14.667 -0.4286 -0.1405  0.2152
 6609W        W26143   8.977  14.161  15.421 -0.3168  0.2292  0.0186
 6610W        W26144  17.392   7.955   1.489  0.3204 -0.2835  0.2792
 6611W        W26145   1.837   6.889  11.237 -0.0400  0.1740 -0.2605
 6612W        W26146   8.281  13.793   1.870  0.0354  0.2727  0.2964
 6613W        W26147  13.928  12.751   3.690  0.2159  0.0274 -0.1922
 6614W        W26148  12.706   3.358  15.193 -0.1979  0.2016  0.0499
 6615W        W26149  11.008  10.813   2.205  0.2002 -0.1125 -0.0429
 6616W        W26150  13.051   4.418   0.638 -0.1214  0.0984  0.0968
 6617W        W26151   3.445   3.327  10.231  0.0918  0.1066  0.0257
 6618W        W26152   9.049   2.339   3.732  0.1601 -0.4251  0.1813
 6619W        W26153   0.944  11.664   2.436  0.0557  0.1658 -0.0644
 6620W        W26154   9.004   6.884   3.059 -0.0008  0.0665  0.0061
 6621W        W26155   3.375  10.086  13.513  0.2019  0.1385  0.1637
 6622W        W26156   0.902  15.518   5.795 -0.1682  0.0738 -0.0677
 6623W        W26157  15.644   7.470   3.545  0.0190  0.0866 -0.1248
 6624W        W26158   0.325  12.820   3.059 -0.2580  0.1788  0.0394
 6625W        W26159   4.164  11.968   1.160  0.0383 -0.0284  0.0412
 6626W        W26160  17.091  10.746   0.868 -0.1829  0.1218 -0.0884
 6627W        W26161  14.944  11.817   2.900  0.1639  0.0963 -0.0073
 6628W        W26162   1.696   4.595   1.840 -0.0428 -0.1832 -0.1520
 6629W        W26163  12.271  17.490   1.999  0.2745  0.0815  0.1457
 6630W        W26164  13.970   7.637  13.039  0.1129 -0.3889  0.1144
 6631W        W26165   3.816  16.293   4.319 -0.1269  0.0296  0.2423
 6632W        W26166  11.784   4.624  13.769  0.2654  0.2719  0.1359
 6633W        W26167   1.432   7.804  13.886  0.0335  0.2373 -0.4538
 6634W        W26168   8.496   7.878  13.023 -0.0215 -0.1308  0.1529
 6635W        W26169   4.751   0.041   2.505 -0.1230  0.1790 -0.0957
 6636W        W26170   9.952   5.531   2.595 -0.0380  0.2342 -0.2382
 6637W        W26171   4.245  16.697  12.205 -0.1930 -0.1477  0.1587
 6638W        W26172   7.832   5.378  14.159 -0.1161 -0.0357  0.1681
 6639W        W26173  14.579   8.054   0.833 -0.0429 -0.0704 -0.1548
 6640W        W26174  12.796   6.836  12.681  0.1166 -0.1208 -0.0278
 6641W        W26175  17.172   3.447   2.713  0.0115  0.0878  0.0882
 6642W        W26176   8.609   1.088  12.716  0.1101 -0.1845  0.1378
 6643W        W26177   8.182   8.204   1.117 -0.1837 -0.0541  0.0357
 6644W        W26178  13.625   9.840  10.495 -0.1504  0.2157  0.2887
 6645W        W26179  14.308  17.134   2.382 -0.0770 -0.2200  0.1879
 6646W        W26180   3.585  10.822  14.494  0.0829  0.4200  0.0104
 6647W        W26181   2.033  13.679  12.338 -0.0467  0.1938 -0.0439
 6648W        W26182   3.428  15.339   2.526  0.0418 -0.2293  0.2140
 6649W        W26183   7.829  14.283   4.841 -0.0052 -0.1149  0.0657
 6650W        W26184  14.167  16.158   2.136  0.0571  0.2139  0.0321
 6651W        W26185  10.958  13.341   4.467  0.1810 -0.0688  0.0681
 6652W        W26186   5.885   9.904  13.801  0.3029  0.0159  0.0415
 6653W        W26187   0.939   2.707  11.649 -0.1480  0.0654  0.1755
 6654W        W26188   1.103  17.994  12.117 -0.3606 -0.0440 -0.1201
 6655W        W26189   2.746  12.097   2.758  0.0168 -0.2153 -0.0350
 6656W        W26190   3.704  13.578  13.919 -0.0367 -0.0538 -0.0486
 6657W        W26191  17.987   2.390  12.625 -0.0927 -0.3220  0.2788
 6658W        W26192   7.488  17.041   4.722  0.1440 -0.1792  0.1270
 6659W        W26193   1.223   4.903  13.503  0.0651  0.0286 -0.0017
 6660W        W26194   4.693  15.993   0.319  0.1780 -0.0781 -0.0844
 6661W        W26195   0.184  17.101   3.156  0.1776  0.0475  0.1300
 6662W        W26196   5.332  16.114  13.792  0.2438 -0.1531  0.1386
 6663W        W26197   9.719  15.186  14.498  0.3132 -0.0472  0.0141
 6664W        W26198   4.336   5.230  12.414 -0.0496  0.0916 -0.2011
 6665W        W26199  14.217   4.129   4.441 -0.1371 -0.0088  0.0709
 6666W        W26200  16.975  18.175  14.214 -0.4033 -0.2578  0.3522
 6667W        W26201   6.328   5.486  14.983 -0.0202  0.1412 -0.0440
 6668W        W26202  11.407   7.351  11.420 -0.0916  0.2332 -0.1098
 6669W        W26203  13.311   3.628   0.151 -0.0083  0.0485 -0.3332
 6670W        W26204   6.705   9.852   3.383 -0.3049 -0.0949 -0.1305
 6671W        W26205   8.822   0.812   0.753  0.0098  0.1815  0.1019
 6672W        W26206   3.606   1.079  11.938 -0.2056 -0.0436 -0.0744
 6673W        W26207   6.526   8.599   4.295 -0.3454 -0.1496  0.3055
 6674W        W26208   2.337   3.965  13.452 -0.1399 -0.2866  0.0384
 6675W        W26209  12.913   5.716  14.580 -0.0989 -0.0466  0.2274
 6676W        W26210   3.338  15.327   0.378  0.0856  0.0804 -0.3101
 6677W        W26211  12.490   1.166   0.343 -0.0523 -0.1879  0.0677
 6678W        W26212   2.184   6.108   3.614  0.1906  0.5730  0.1177
 6679W        W26213   0.503  16.487   2.731 -0.1781  0.1679 -0.0183
 6680W        W26214   1.359   6.903   2.244 -0.0536 -0.1037 -0.2882
 6681W        W26215   1.839  16.470   4.111  0.0476  0.0378  0.3203
 6682W        W26216  12.495   1.074  13.324  0.1053 -0.0961  0.1644
 6683W        W26217  14.385  10.481   4.250  0.2377  0.0819  0.0960
 6684W        W26218  10.302  14.176  11.908  0.0193 -0.0502 -0.1649
 6685W        W26219  11.130   2.213   0.134 -0.0308  0.2459  0.2198
 6686W        W26220  11.494  10.254  15.307 -0.0090  0.2600  0.4100
 6687W        W26221  13.173  14.398  11.321  0.1359 -0.3673  0.1924
 6688W        W26222   1.325  18.160  12.653 -0.2514 -0.0830 -0.0990
 6689W        W26223   4.370   3.924  11.118  0.2188  0.0266 -0.0523
 6690W        W26224  13.195   0.649  15.202  0.1935  0.0330  0.0458
 6691W        W26225   1.381   1.365  10.187 -0.0134 -0.2423 -0.3212
 6692W        W26226   6.136   5.574   2.751  0.0561 -0.0899  0.1897
 6693W        W26227  15.367  13.581   3.750  0.1136  0.0731  0.0996
 6694W        W26228   6.155   5.205  12.927 -0.3046 -0.2611  0.1059
 6695W        W26229   6.746   3.735  15.785 -0.1330 -0.2532  0.1816
 6696W        W26230  13.479   5.269   1.052  0.2127 -0.2127 -0.0336
 6697W        W26231  18.016   1.371  11.759  0.2484  0.0173  0.1895
 6698W        W26232  14.824   9.258  13.710 -0.0139  0.0369  0.0995
 6699W        W26233  16.508   4.893   1.954 -0.0820 -0.2454  0.0263
 6700W        W26234   6.655  16.339   2.891  0.0809 -0.0786 -0.0881
 6701W        W26235   6.925   9.002  12.416  0.0380 -0.0120 -0.1531
 6702W        W26236   0.222  10.853  15.079  0.0065  0.2459  0.1347
 6703W        W26237  15.396   3.020   0.817 -0.1936  0.1435 -0.0710
 6704W        W26238  10.296   4.328  11.565 -0.0669  0.2580  0.0579
 6705W        W26239   8.403   6.855  11.882  0.1572 -0.0453  0.2401
 6706W        W26240  15.396   3.528   3.712 -0.1768 -0.0009 -0.0622
 6707W        W26241  14.957  16.192  14.064 -0.0832  0.0510 -0.2076
 6708W        W26242   8.637   2.074   0.023 -0.2726 -0.2313 -0.1609
 6709W        W26243   7.324   0.842   4.381 -0.1171 -0.0326  0.0863
 6710W        W26244  10.974   2.800   3.854 -0.3254 -0.3139 -0.1127
 6711W        W26245  14.094  11.407   4.605 -0.0920  0.1150 -0.0695
 6712W        W26246   8.774   0.823  13.323 -0.0319 -0.1831  0.1661
 6713W        W26247   9.474   7.838  11.404  0.1830 -0.0619  0.1067
 6714W        W26248  14.346   8.756  15.261 -0.0479 -0.0148  0.0502
 6715W        W26249   6.090   3.978   1.270 -0.1572  0.1503  0.1138
 6716W        W26250   0.519  11.944   1.954 -0.1947  0.0390  0.1102
 6717W        W26251   4.056   1.407  14.857 -0.0512 -0.1508  0.0009
 6718W        W26252  12.329  11.413   1.213  0.1819 -0.0200  0.1817
 6719W        W26253  11.392   9.504  12.269 -0.0037 -0.3024  0.1038
 6720W        W26254  14.279  12.793  13.254  0.0827  0.0779  0.2464
 6721W        W26255   0.888  15.532  12.273 -0.0990  0.0214 -0.1147
 6722W        W26256   3.474  14.181  14.296 -0.1048 -0.2290  0.2396
 6723W        W26257  18.031  16.788  14.318 -0.1290  0.2152 -0.0342
 6724W        W26258  16.062   1.515  11.940 -0.2408 -0.0313 -0.0059
 6725W        W26259   6.978   4.890  11.203  0.2114 -0.1093  0.0402
 6726W        W26260   6.506   7.796  13.756 -0.1729  0.0063  0.2840
 6727W        W26261   2.388  12.848  12.905  0.1671 -0.5413 -0.0554
 6728W        W26262   0.761  12.012  13.958 -0.1991 -0.0909 -0.1163
 6729W        W26263   0.576   5.709   3.922  0.0217  0.0097 -0.2709
 6730W        W26264  11.752  11.960   0.768  0.1376  0.1281 -0.1152
 6731W        W26265   3.421  10.393   2.218  0.0591 -0.3277 -0.0019
 6732W        W26266  17.902   4.980   4.875 -0.1286  0.0976  0.3445
 6733W        W26267   4.105  15.058   3.558  0.0296 -0.0487 -0.0027
 6734W        W26268   5.989   1.263  13.594 -0.1350  0.1118  0.0210
 6735W        W26269  12.257   2.619   3.479 -0.0603  0.1278  0.3271
 6736W        W26270   5.199   1.591   2.708  0.1679  0.0202 -0.0387
 6737W        W26271   5.455  11.492   4.623 -0.0451 -0.2675  0.2313
 6738W        W26272  12.040  14.842   0.827  0.3053 -0.3337  0.0373
 6739W        W26273  12.033  12.801   0.387  0.0510  0.0691  0.0193
 6740W        W26274   2.597  13.178   3.005  0.1706  0.0807 -0.1086
 6741W        W26275  11.704   9.614   4.075  0.2321  0.1575  0.1449
 6742W        W26276   4.766   7.789  13.165 -0.4403  0.1269 -0.0557
 6743W        W26277   4.187  11.405  15.096 -0.0621  0.0504  0.0206
 6744W        W26278   2.245   3.808   1.473  0.2258 -0.0460 -0.1880
 6745W        W26279  13.979  18.149  11.780 -0.0508  0.2357 -0.2221
 6746W        W26280   7.680   0.058   1.833  0.2182  0.1075  0.3305
 6747W        W26281  17.964  11.487  14.198 -0.2903 -0.0716 -0.3177
 6748W        W26282  16.077  16.723  12.348 -0.1041 -0.1292  0.0463
 6749W        W26283   2.387   3.446  13.443 -0.0706 -0.0044 -0.3106
 6750W        W26284  11.612   1.661   2.609 -0.0409  0.1243 -0.2732
 6751W        W26285   3.578   2.439   2.358  0.2301 -0.0938  0.2896
 6752W        W26286   1.531  14.013   2.140 -0.2180  0.0508  0.0933
 6753W        W26287   1.677   8.866   2.249  0.3125  0.0661 -0.0211
 6754W        W26288  16.649   1.176   3.184  0.0873 -0.3522 -0.0308
 6755W        W26289  15.036  14.130  13.645  0.0855 -0.3978  0.2050
 6756W        W26290   5.277  11.817   3.464 -0.1850  0.1288  0.1210
 6757W        W26291  12.695  17.076   4.131  0.1570  0.1787  0.1464
 6758W        W26292  13.429   7.010  11.919 -0.0971 -0.1127  0.0064
 6759W        W26293   2.005  15.064  13.101  0.1367  0.0189  0.2544
 6760W        W26294   4.134   1.565   3.611 -0.0739 -0.2987 -0.0530
 6761W        W26295   0.861   6.922   3.187  0.0747  0.2420  0.0172
 6762W        W26296  14.661  13.456  14.781  0.1737  0.0036 -0.2886
 6763W        W26297   7.617   5.323  15.018 -0.1899 -0.0063  0.0460
 6764W        W26298  13.130   7.340  13.814  0.0976 -0.1001  0.0818
 6765W        W26299   2.759   0.016  12.487  0.0760 -0.0787  0.0858
 6766W        W26300  18.202  11.800   0.624 -0.0289  0.1180  0.0225
 6767W        W26301  10.860  15.208   4.884 -0.2206  0.0661 -0.1692
 6768W        W26302  15.263   9.681   3.477 -0.2342  0.1440 -0.0376
 6769W        W26303   4.948   7.015   0.150 -0.0772 -0.2710  0.0224
 6770W        W26304  12.327   2.623   1.916  0.0516  0.0241  0.0784
 6771W        W26305   1.502   4.348   1.321 -0.1401 -0.1933 -0.0646
 6772W        W26306   4.641   9.518  11.541  0.1307 -0.0070  0.5523
 6773W        W26307   8.674   2.703   4.231  0.0880 -0.1993 -0.2221
 6774W        W26308  13.054   4.062  10.379  0.0978 -0.1324 -0.0170
 6775W        W26309   2.153   2.025   4.594  0.1313 -0.1905  0.2161
 6776W        W26310   3.247   1.020  13.245 -0.0941 -0.0115 -0.0056
 6777W        W26311  10.100   8.330   5.021  0.0299 -0.0432  0.0207
 6778W        W26312  12.522   1.323   4.766 -0.1926 -0.4709 -0.0576
 6779W        W26313  13.728  10.555  15.055  0.0794 -0.1943  0.0255
 6780W        W26314  13.725   5.471   3.404 -0.0696 -0.0710 -0.0763
 6781W        W26315   6.168   6.799   2.282  0.0225 -0.1872 -0.1957
 6782W        W26316   8.968   6.757   3.558  0.1131 -0.0984 -0.0622
 6783W        W26317   0.124   5.509   3.724 -0.1931 -0.0491 -0.0685
 6784W        W26318  12.839  11.236  11.518  0.3221  0.0653  0.2260
 6785W        W26319  15.210   1.894  12.154 -0.1597  0.2197 -0.2074
 6786W        W26320  12.837   5.378  14.228  0.2546  0.0540  0.0691
 6787W        W26321  14.907   8.032  14.461 -0.0990 -0.0111 -0.1617
 6788W        W26322   2.896  10.749   4.417 -0.2691  0.2413 -0.2160
 6789W        W26323   4.487  13.615  14.231 -0.0237  0.0523  0.0293
 6790W        W26324   8.823   7.030  15.045  0.0153  0.0098  0.4099
 6791W        W26325  17.020   6.908   0.956  0.1739  0.1887 -0.1319
 6792W        W26326   0.435   7.279  13.150  0.2051 -0.0564  0.2821
 6793W        W26327   7.960   8.719  14.064  0.2192 -0.1351  0.1870
 6794W        W26328  11.396  10.392   0.873 -0.1692 -0.1889  0.3165
 6795W        W26329  16.624   0.072   3.613  0.2136 -0.0609 -0.1543
 6796W        W26330   6.441   2.895   3.770  0.0584 -0.0688 -0.1804
 6797W        W26331  11.776   0.603   6.250 -0.1076 -0.3188 -0.0845
 6798W        W26332  16.053  10.149  13.346 -0.0531 -0.0296  0.0313
 6799W        W26333   5.464   6.774   1.548 -0.0350  0.0392 -0.0732
 6800W        W26334  14.990   6.491  15.333 -0.1727 -0.1803 -0.3956
 6801W        W26335  15.305  17.010   4.217 -0.0784 -0.4012 -0.0221
 6802W        W26336  14.605   7.852   1.676  0.2667 -0.0467 -0.2387
 6803W        W26337  11.583  12.983  12.786  0.1530  0.0541  0.0120
 6804W        W26338   2.465   0.270  14.478 -0.0861  0.0465  0.0008
 6805W        W26339   4.128   6.863   4.561 -0.0542  0.0602  0.0481
 6806W        W26340   7.234   5.819  13.614  0.0049 -0.0604 -0.0484
 6807W        W26341   9.421   9.117  15.518 -0.0582  0.2617 -0.1074
 6808W        W26342  16.595  10.842  13.392  0.0379 -0.1845 -0.1051
 6809W        W26343   9.609   9.952   3.123 -0.0729 -0.1194  0.2218
 6810W        W26344  12.200  13.965   3.252 -0.2320 -0.5693  0.1101
 6811W        W26345   6.684   8.913  14.624 -0.3769 -0.0916 -0.2107
 6812W        W26346  16.296  11.334  12.445  0.0137 -0.0018 -0.2774
 6813W        W26347   7.584   6.978   1.370 -0.0586 -0.3597  0.1499
 6814W        W26348  11.393   5.190   0.029 -0.0670  0.0686  0.1386
 6815W        W26349  11.069   5.104   3.075  0.2436  0.0677 -0.2137
 6816W        W26350   5.889   9.962  15.830 -0.3716 -0.1099 -0.0306
 6817W        W26351  16.523   4.120   0.394 -0.2337 -0.0609 -0.3370
 6818W        W26352  10.047   0.049   1.808 -0.1953  0.0577 -0.2783
 6819W        W26353   7.349  11.236  12.612  0.0101  0.0958  0.1050
 6820W        W26354  14.338   7.326  11.391  0.0144  0.3758 -0.0882
 6821W        W26355   5.460   4.624  14.284 -0.1889  0.0459  0.0416
 6822W        W26356  16.213  16.144  14.248  0.2788 -0.0804  0.0747
 6823W        W26357   9.331   9.416  12.538 -0.2434  0.2787  0.1118
 6824W        W26358  16.763   0.089   0.066 -0.0507  0.0483 -0.2562
 6825W        W26359   8.370  11.050  11.612  0.1302 -0.0371  0.3009
 6826W        W26360  16.470  16.449  14.596  0.0617  0.0652 -0.0532
 6827W        W26361  13.861   8.520   3.738  0.2792 -0.0970  0.0412
 6828W        W26362  17.594   1.403  14.790 -0.0573  0.0688 -0.0028
 6829W        W26363  10.702  18.161   6.133  0.0595  0.0517  0.0516
 6830W        W26364   3.303  16.858  12.174  0.0524 -0.0361  0.1957
 6831W        W26365   2.998  14.050  13.214 -0.2473  0.0329  0.3120
 6832W        W26366   4.875   7.489   0.425  0.0726  0.0299  0.2087
 6833W        W26367  14.825   7.471   0.691 -0.2122 -0.3277  0.1494
 6834W        W26368  14.953  12.526  12.014  0.0168  0.3285  0.2924
 6835W        W26369  12.473   1.106   4.078  0.0201 -0.0720  0.1753
 6836W        W26370   3.123  16.746  12.698 -0.0955 -0.1090  0.1089
 6837W        W26371   6.107   6.806   0.747 -0.0905 -0.3154  0.1852
 6838W        W26372  10.334   8.398   1.256 -0.2312  0.0122  0.1108
 6839W        W26373   8.916  11.622   1.755  0.1638 -0.0196 -0.0445
 6840W        W26374  14.785   9.942   1.076 -0.1027 -0.1825  0.1164
 6841W        W26375  15.359  15.236  11.947  0.1639  0.1320 -0.0922
 6842W        W26376   4.220   4.036  13.792  0.0391  0.1848  0.0562
 6843W        W26377  11.700  11.011   4.163  0.0570 -0.4359  0.1908
 6844W        W26378   6.429   3.930   1.694 -0.6236 -0.1877  0.1564
 6845W        W26379   2.417   5.546   0.011  0.1104  0.0251  0.1853
 6846W        W26380  14.548  12.852  11.617 -0.3042 -0.2238 -0.0040
 6847W        W26381  11.445   6.946   3.174  0.0598  0.0062  0.0097
 6848W        W26382   6.880   5.907  15.667  0.0771  0.2783 -0.0172
 6849W        W26383   6.933  14.642  13.389 -0.1524  0.2067 -0.0666
 6850W        W26384  11.080   0.431   0.455  0.1874 -0.2280  0.0220
 6851W        W26385   9.724   5.707   4.664 -0.1038 -0.3135 -0.1389
 6852W        W26386  15.812  15.848   3.599 -0.2427 -0.1525  0.0856
 6853W        W26387  13.659  17.594  14.227  0.2922 -0.0881  0.1049
 6854W        W26388  10.993  15.083  14.197 -0.2966  0.1060  0.0307
 6855W        W26389   6.593   9.723   3.864  0.2227  0.0100 -0.1224
 6856W        W26390   6.024  14.724   1.391 -0.1017 -0.1026  0.1752
 6857W        W26391   4.880  17.251  11.958  0.0660  0.0571 -0.0350
 6858W        W26392  14.123  11.423  10.104 -0.0260 -0.0260  0.2222
 6859W        W26393   2.558   6.089  13.845 -0.2907 -0.3183 -0.3873
 6860W        W26394   4.849  17.850   1.509  0.1651  0.0519 -0.0550
 6861W        W26395   3.131   7.430   2.015 -0.2236 -0.0422 -0.3433
 6862W        W26396   1.500  17.907  13.546  0.1119  0.4354  0.0084
 6863W        W26397  17.938  11.973  13.451 -0.1916 -0.1928  0.1900
 6864W        W26398  10.564  10.406   3.118 -0.4188  0.0138  0.0057
 6865W        W26399  15.477  14.671  13.336  0.0651 -0.0725  0.3201
 6866W        W26400   3.027   9.189  14.854 -0.1149 -0.1034  0.2148
 6867W        W26401  10.721   3.083   5.137  0.1940  0.1823  0.0992
 6868W        W26402   7.302   7.373  12.480  0.0462  0.0127  0.0192
 6869W        W26403  11.289   8.560  10.949 -0.2179 -0.1605  0.1643
 6870W        W26404  17.245  16.267  15.642  0.2959  0.0536 -0.0402
 6871W        W26405   2.108   3.993   2.530 -0.1649 -0.2345 -0.0127
 6872W        W26406   4.323   3.517   1.974 -0.0357 -0.2173  0.0409
 6873W        W26407  16.907   6.086   2.949 -0.0393  0.1942 -0.0293
 6874W        W26408  11.193   4.199   1.759  0.1530  0.4155  0.1428
 6875W        W26409   7.536   7.175  14.257  0.2304  0.1805  0.2320
 6876W        W26410   2.638  11.362  12.107 -0.0207 -0.1508  0.0502
 6877W        W26411  12.075  17.874   1.483 -0.4347  0.3131  0.0226
 6878W        W26412   4.685   5.687   1.668  0.0161  0.2350  0.0743
 6879W        W26413   5.729   8.011   2.350  0.0332 -0.2364  0.3210
 6880W        W26414   4.718   6.186   2.636  0.0703  0.3910  0.1728
 6881W        W26415  17.586   7.269   4.676  0.2039  0.0419 -0.1872
 6882W        W26416   8.134  16.843  12.850  0.1417  0.2034 -0.0888
 6883W        W26417  16.174  13.067  11.774 -0.2049  0.3148  0.1482
 6884W        W26418   4.943   1.578  14.528  0.0014  0.1030  0.0075
 6885W        W26419   8.809   2.672  15.500 -0.3869 -0.0319  0.0114
 6886W        W26420   6.469   6.430   2.067  0.2175 -0.2638 -0.3578
 6887W        W26421   4.023   4.843  11.835 -0.0460 -0.2366  0.0478
 6888W        W26422  12.377  15.131  13.855 -0.1405 -0.3563  0.0839
 6889W        W26423  16.851  12.618   4.842 -0.0334  0.6207 -0.0261
 6890W        W26424   1.691  17.827   1.358  0.3673 -0.0952 -0.0273
 6891W        W26425   8.860   0.705  15.581 -0.1839 -0.4356 -0.0454
 6892W        W26426   1.182   6.478  10.576  0.2778  0.0869  0.0003
 6893W        W26427  10.702  11.592  11.917 -0.0814 -0.1884  0.2440
 6894W        W26428  15.664  13.659  11.256 -0.0060  0.0420 -0.0732
 6895W        W26429   0.559   4.638   4.506  0.1467  0.0672  0.3587
 6896W        W26430   3.530   5.790  12.715  0.4176 -0.4400 -0.0059
 6897W        W26431  12.205  14.457  15.742 -0.1164  0.2270 -0.0443
 6898W        W26432   8.902   9.038  14.811 -0.2086  0.0921 -0.1899
 6899W        W26433   2.057   7.419  12.235  0.0247 -0.1412  0.1513
 6900W        W26434   8.730   5.505  12.164  0.1484  0.0320  0.3063
 6901W        W26435  15.716   6.510   1.419 -0.0812  0.0562 -0.1292
 6902W        W26436  17.186  12.282   1.502  0.2349  0.2214  0.0150
 6903W        W26437  13.287  17.148   0.558  0.0270 -0.2047 -0.1513
 6904W        W26438  10.309  15.925  14.561  0.1218 -0.0501 -0.0397
 6905W        W26439  17.718   3.403   3.545 -0.2375  0.1165 -0.1280
 6906W        W26440  14.488   6.265  11.097 -0.0262 -0.1979  0.0799
 6907W        W26441   3.474   5.931  11.499 -0.3575 -0.1151  0.2891
 6908W        W26442  10.308  13.565  13.856 -0.0118 -0.0745 -0.0735
 6909W        W26443   7.453   8.793   2.120 -0.2840 -0.0921  0.1099
 6910W        W26444  11.594   7.027   0.902  0.2348  0.1394  0.0084
 6911W        W26445   8.290   0.197  13.727  0.2601 -0.0464 -0.2083
 6912W        W26446  17.562   4.760  11.200  0.0185  0.2328 -0.0511
 6913W        W26447  14.288   8.228  11.250 -0.1632  0.0323 -0.2495
 6914W        W26448   6.041   1.014   4.208 -0.0631 -0.3095 -0.1213
 6915W        W26449   2.280   4.345  15.196  0.4990 -0.1164 -0.2251
 6916W        W26450  15.255   5.154   1.425  0.0126  0.2396  0.0843
 6917W        W26451   3.130  16.746   2.062  0.0877  0.2868 -0.2300
 6918W        W26452   4.772   8.617  12.174  0.1407  0.1003 -0.3123
 6919W        W26453  11.362   2.790   0.972  0.1155  0.0303  0.0240
 6920W        W26454  16.944   2.671  12.556  0.0855 -0.0696 -0.5386
 6921W        W26455   8.606   4.820  12.723  0.1664 -0.2324 -0.1554
 6922W        W26456  12.220   5.148   4.389 -0.0553 -0.3954  0.0412
 6923W        W26457  11.087   1.482  15.343 -0.2462 -0.0899  0.0096
 6924W        W26458  18.202   9.920   3.435 -0.0181 -0.0886 -0.0489
 6925W        W26459  10.001   1.731   4.787  0.2104 -0.1332 -0.1515
 6926W        W26460   8.235  14.423  13.613  0.1663 -0.2545 -0.1100
 6927W        W26461   9.164  15.752   0.742  0.0651 -0.0223 -0.2719
 6928W        W26462  15.271   1.528  12.599  0.0083 -0.0208 -0.2185
 6929W        W26463   7.402  15.269  14.455 -0.0050  0.0417 -0.2057
 6930W        W26464  12.989   8.787  11.686  0.3430 -0.1498  0.2608
 6931W        W26465  12.296  16.264  13.193  0.0453  0.1370 -0.1191
 6932W        W26466   1.640   9.206   3.625 -0.0953 -0.0362  0.0748
 6933W        W26467   0.714   2.332   2.907  0.0894 -0.0145  0.4625
 6934W        W26468  18.210  17.471  15.657  0.0830  0.0794 -0.0528
 6935W        W26469  11.141  16.133   4.244  0.1152 -0.1588 -0.0437
 6936W        W26470  12.616  12.548   3.791 -0.1807 -0.1465  0.0950
 6937W        W26471   8.094   0.036   3.725  0.0710 -0.1865 -0.1067
 6938W        W26472  18.140  17.947   3.468  0.2196  0.1225 -0.0312
 6939W        W26473   5.006  14.752  15.059 -0.0982  0.1106 -0.4345
 6940W        W26474  10.763  17.418   0.084  0.2867  0.2153 -0.1150
 6941W        W26475   5.993  11.137  13.256  0.1177  0.2921  0.0842
 6942W        W26476   3.542   3.397  13.283  0.0883 -0.0385  0.0492
 6943W        W26477  16.460  12.093  12.967 -0.3601  0.3752  0.0668
 6944W        W26478  13.180  14.526   2.171 -0.2589  0.0118  0.3188
 6945W        W26479   4.310   1.327  15.611 -0.1079 -0.1122  0.0645
 6946W        W26480   2.234   9.992   5.052  0.2178 -0.0671 -0.0732
 6947W        W26481  12.234   4.110   1.846  0.1004 -0.3060  0.1492
 6948W        W26482   0.339   4.918  11.105  0.1120  0.0854  0.2171
 6949W        W26483   1.171   9.380   0.953 -0.0107  0.1922 -0.0456
 6950W        W26484  11.868   2.499  13.472 -0.0759  0.2541  0.0996
 6951W        W26485  14.628   5.131   4.299 -0.3212 -0.2231 -0.3109
 6952W        W26486   8.888   2.466  12.383  0.0977  0.2785 -0.1179
 6953W        W26487   5.884  17.623   2.835  0.0154 -0.1556 -0.2050
 6954W        W26488  14.870  13.914  12.552 -0.3017 -0.0515 -0.0524
 6955W        W26489   9.501  14.695  13.820 -0.2683 -0.1867  0.1795
 6956W        W26490   5.945  15.729   2.560  0.0556 -0.1697  0.2376
 6957W        W26491   5.611   9.878   3.779 -0.2980 -0.0546 -0.2528
 6958W        W26492  12.800  10.776   1.650  0.1653  0.0798  0.1287
 6959W        W26493   1.656   9.413   4.095 -0.0915 -0.3655  0.0854
 6960W        W26494   4.317  16.683  14.534  0.3008 -0.0471 -0.0401
 6961W        W26495  12.022  13.915   2.245  0.0614  0.0039 -0.0778
 6962W        W26496   8.316   4.210   2.340  0.0860  0.0227 -0.0122
 6963W        W26497  12.503   2.057  13.508  0.2939  0.0692  0.0042
 6964W        W26498   2.105  15.811   2.932 -0.1402  0.0636 -0.4513
 6965W        W26499   2.151  13.654   1.761 -0.0166 -0.2820  0.0966
 6966W        W26500   0.315  14.378  11.581  0.1432 -0.0672 -0.4636
 6967W        W26501   9.451   8.283  15.762  0.2229 -0.2065 -0.0711
 6968W        W26502  14.786  17.369   0.213  0.1149  0.1126 -0.0239
 6969W        W26503   6.788  11.636  13.430  0.1744  0.0513 -0.0465
 6970W        W26504  16.235  14.083  12.167 -0.2589  0.1939 -0.1012
 6971W        W26505  13.703   1.555   3.012 -0.0954 -0.3909  0.0193
 6972W        W26506   0.144   4.958  14.318 -0.1510 -0.3722 -0.0629
 6973W        W26507  16.208   2.403  13.456  0.1961  0.1686  0.0524
 6974W        W26508  13.374  17.472   0.095 -0.1530  0.0942  0.1813
 6975W        W26509  12.440   9.039   1.299  0.0676 -0.1085 -0.0457
 6976W        W26510   2.101   8.284  13.717  0.1646  0.4070  0.0452
 6977W        W26511  16.043  18.166   0.295 -0.0300  0.1132  0.2099
 6978W        W26512  12.425   0.851   2.114  0.0807  0.1814  0.0184
 6979W        W26513  14.414  12.869   2.860  0.0025  0.0561  0.2778
 6980W        W26514   2.018  11.209   4.456  0.0467  0.0767 -0.0991
 6981W        W26515   4.726   7.099   0.660 -0.1425  0.0181  0.1459
 6982W        W26516   1.172   2.007  15.228 -0.2323  0.2265  0.0611
 6983W        W26517  10.446   1.488  12.505  0.1883 -0.0008  0.0462
 6984W        W26518   0.256   0.850   0.141 -0.0365  0.0542 -0.0496
 6985W        W26519  14.991   3.517   2.842 -0.0189  0.0623 -0.2505
 6986W        W26520  14.381   8.987   0.053  0.1582 -0.0079  0.0671
 6987W        W26521   6.476   0.212   2.282  0.0411 -0.0085  0.0915
 6988W        W26522  14.422   4.566   2.047 -0.2695  0.0586 -0.1621
 6989W        W26523   6.944  10.843  11.546  0.1459  0.2825  0.0186
 6990W        W26524   6.767  15.752  14.720  0.1545 -0.0911  0.0324
 6991W        W26525   9.547  11.940   4.058  0.0425  0.0924  0.5705
 6992W        W26526   4.484   5.176  13.601  0.2507  0.3723  0.0333
 6993W        W26527   8.835   9.264   1.467  0.3129 -0.0738  0.1822
 6994W        W26528   0.228   1.290   3.364  0.1551 -0.2911 -0.2198
 6995W        W26529  18.343  14.002  15.240 -0.0957 -0.0143  0.0402
 6996W        W26530   0.092   5.526   2.761 -0.1359  0.1622 -0.0741
 6997W        W26531  10.988   4.276   3.408  0.0877 -0.1482  0.0732
 6998W        W26532   2.898  16.873   4.297 -0.0483 -0.1198 -0.0362
 6999W        W26533  13.530   5.738  15.210 -0.0041 -0.1417  0.0832
 7000W        W26534   8.477  16.468  15.437  0.4822  0.1465  0.2196
 7001W        W26535   8.943   2.037   1.550 -0.0347  0.0976  0.0672
 7002W        W26536  12.687   6.901  13.178 -0.2396  0.0554 -0.1482
 7003W        W26537  12.275   3.272  15.384 -0.0459  0.4005 -0.0362
 7004W        W26538   6.188  11.449  14.126  0.1975  0.1009  0.2679
 7005W        W26539  13.988  16.649   3.122 -0.1616  0.0314  0.0468
 7006W        W26540   2.195   0.098   2.153  0.0018  0.0941  0.0672
 7007W        W26541   9.942  12.204   0.554 -0.1075  0.3349  0.0817
 7008W        W26542   9.583  11.629   2.184  0.0654  0.2463 -0.2246
 7009W        W26543  13.098  17.398  13.560  0.1711 -0.2145  0.2151
 7010W        W26544   2.999  12.473   5.213 -0.0949 -0.0063  0.2077
 7011W        W26545   6.407   0.921   1.887 -0.2408 -0.1305 -0.0482
 7012W        W26546   5.547  11.056  12.956 -0.2391  0.2918  0.0682
 7013W        W26547   0.712   3.695   1.492 -0.0417  0.3375  0.1281
 7014W        W26548  14.021  16.289  13.279  0.0995 -0.0529 -0.1682
 7015W        W26549   3.458  11.647  14.933 -0.3571 -0.0090  0.0865
 7016W        W26550   1.156   9.898  13.095  0.0253  0.1726 -0.0508
 7017W        W26551  11.133   3.387   3.974  0.0357  0.0049 -0.1370
 7018W        W26552  13.641   3.200   2.362 -0.0186 -0.0276 -0.0170
 7019W        W26553  15.205  14.705   5.109  0.0311  0.3249  0.0503
 7020W        W26554   4.956   1.169   3.488  0.0919 -0.3371 -0.1893
 7021W        W26555  15.475   8.664   3.398  0.1239  0.1454  0.2833
 7022W        W26556   0.254  10.812  11.109 -0.2401  0.3668  0.1392
 7023W        W26557  11.579   0.725  13.948  0.0524  0.2052 -0.2790
 7024W        W26558   3.611   8.091  11.571  0.2497  0.1225  0.0938
 7025W        W26559  17.548  12.429   3.975 -0.1052  0.3521  0.3509
 7026W        W26560  11.949  10.253   4.299 -0.1128  0.4598 -0.0721
 7027W        W26561   8.393   1.851  11.264  0.0694 -0.0625 -0.3052
 7028W        W26562   1.035   4.097  12.223 -0.1070 -0.2622  0.1640
 7029W        W26563  16.187  14.085   1.904  0.0527 -0.1230 -0.1255
 7030W        W26564   7.059   6.024  13.133  0.0651  0.1213 -0.2951
 7031W        W26565   6.386   2.427  11.642 -0.0173  0.0031  0.1742
 7032W        W26566  14.960   6.636   1.657 -0.1193 -0.0642  0.2079
 7033W        W26567   5.398   5.249   0.098 -0.1472 -0.0733 -0.1089
 7034W        W26568   2.857  14.006   4.202  0.1961  0.0382  0.1044
 7035W        W26569   5.656   7.658   0.969  0.0072  0.0531  0.2273
 7036W        W26570   7.213  16.312  11.095 -0.0561 -0.3298  0.0472
 7037W        W26571  10.243   4.807   5.473 -0.1781 -0.2360 -0.1262
 7038W        W26572  16.535  16.490  12.307 -0.0397  0.0516  0.1241
 7039W        W26573  17.830  13.697   2.619  0.0764 -0.0335  0.0181
 7040W        W26574  11.788   1.874  11.152 -0.1403  0.0047  0.0381
 7041W        W26575  16.807   4.695   4.186  0.2324 -0.0153  0.0827
 7042W        W26576  10.203  11.823  13.603 -0.0028 -0.0396  0.0127
 7043W        W26577  12.631  10.038   3.623 -0.2091  0.2363 -0.3000
 7044W        W26578   3.457   3.319   3.402  0.0949  0.1122 -0.1876
 7045W        W26579  11.850  17.537  13.339 -0.2263  0.2954 -0.2438
 7046W        W26580  14.920   0.965  13.448 -0.2967  0.0242 -0.0491
 7047W        W26581   9.102   1.149   1.592 -0.2344 -0.1076 -0.0246
 7048W        W26582   4.728  10.408   0.182  0.1407  0.1440  0.2514
 7049W        W26583   7.067   5.609  11.531 -0.2733 -0.1281  0.1738
 7050W        W26584   5.922  17.104   2.880 -0.0852 -0.2119  0.4121
 7051W        W26585  15.327  13.940  15.205  0.4231 -0.0963 -0.0304
 7052W        W26586   1.767  14.911   2.059  0.0257  0.0052 -0.0661
 7053W        W26587   7.655  18.315  15.223 -0.1795  0.1193 -0.1995
 7054W        W26588  14.860  18.260   3.931  0.1282  0.1192  0.2420
 7055W        W26589   8.834  14.419   4.419 -0.2019 -0.0080  0.2144
 7056W        W26590   9.676   2.636  15.080 -0.0979  0.4297 -0.1621
 7057W        W26591  10.877  13.912   5.066  0.1485  0.0272 -0.1773
 7058W        W26592   0.652  14.948   2.969  0.2485  0.0191  0.0481
 7059W        W26593  18.136  17.896  11.632  0.0140  0.0821 -0.2477
 7060W        W26594  12.896   3.129   4.121  0.0405 -0.0753  0.2991
 7061W        W26595  13.073  15.919   4.617 -0.0280  0.2855 -0.1928
 7062W        W26596  11.180  17.748   0.171 -0.0161 -0.2854  0.1193
 7063W        W26597   0.250   6.759  11.473  0.0895  0.3567  0.0572
 7064W        W26598  11.221  16.842   1.280 -0.1281  0.3738 -0.1906
 7065W        W26599  14.316  16.954  11.786  0.1302 -0.1767  0.4776
 7066W        W26600   7.966   3.503  15.306  0.2150  0.0468 -0.0913
 7067W        W26601  11.997   7.676   2.430 -0.1273  0.0115  0.0672
 7068W        W26602   3.160   3.406   3.973 -0.0360  0.1117 -0.0864
 7069W        W26603   6.999   8.563   1.992 -0.0184  0.0122  0.0266
 7070W        W26604   0.960  11.763  14.446  0.1457 -0.2153 -0.1662
 7071W        W26605   4.024  16.301   2.825 -0.0883  0.1508  0.0600
 7072W        W26606   7.299  12.573   4.569  0.2975 -0.1418 -0.0553
 7073W        W26607  16.984  17.388  14.811  0.1458  0.2139 -0.2183
 7074W        W26608  13.186   1.958  14.820 -0.0037  0.1371 -0.0022
 7075W        W26609   6.019   4.277   5.240  0.3699 -0.2505 -0.2697
 7076W        W26610   2.837  11.620  14.760 -0.0580  0.1524 -0.2523
 7077W        W26611  16.810  16.472   4.042  0.0506 -0.1807  0.2634
 7078W        W26612  16.514  15.645   0.639  0.3539  0.2062 -0.2067
 7079W        W26613  18.218  12.492   2.314 -0.3000 -0.1679  0.0483
 7080W        W26614  16.218   5.663  13.587 -0.1261  0.0209  0.0836
 7081W        W26615  13.768   0.559   4.659  0.0200  0.3521 -0.1239
 7082W        W26616  12.776  12.234   1.556  0.3111 -0.4633 -0.1090
 7083W        W26617  17.837   6.379   0.630  0.0925 -0.0184 -0.0058
 7084W        W26618   3.674   9.467  15.181  0.1219 -0.2818 -0.1562
 7085W        W26619  12.827  11.313   4.254 -0.0951  0.0956 -0.1167
 7086W        W26620   4.463   3.243  13.412  0.1424 -0.3600  0.1020
 7087W        W26621  13.052   9.335   0.672  0.0278  0.1446  0.0347
 7088W        W26622  11.247   2.680   3.279 -0.0533  0.2991 -0.1604
 7089W        W26623   5.930   5.233   2.470  0.2208  0.0662 -0.1371
 7090W        W26624   1.748   2.179   2.841  0.1386  0.0013  0.2305
 7091W        W26625  16.043  11.475   4.241 -0.1115  0.1060  0.0203
 7092W        W26626  15.748   3.418   3.265 -0.0606 -0.3283 -0.0849
 7093W        W26627   7.760   4.418  11.860 -0.0149  0.1238  0.2904
 7094W        W26628  16.349   6.917  13.900 -0.0335 -0.1947  0.2606
 7095W        W26629   6.375  11.175  10.076  0.0460  0.2722  0.0094
 7096W        W26630   8.412  13.822   2.624 -0.1597  0.2073 -0.0918
 7097W        W26631   4.483   2.063   2.559 -0.0423 -0.1504 -0.2788
 7098W        W26632  17.887  12.859  11.375 -0.2783 -0.1481  0.1594
 7099W        W26633  13.778   8.659   0.737  0.2122  0.1794 -0.2679
 7100W        W26634   1.454  16.434  13.344 -0.1220 -0.0563 -0.1159
 7101W        W26635   3.448   2.330  15.713  0.2133 -0.2250 -0.3307
 7102W        W26636   5.372   5.167   3.885  0.2575  0.1541  0.0003
 7103W        W26637  14.321  13.124   0.649 -0.0222  0.1128 -0.1087
 7104W        W26638   4.043   2.120   4.475 -0.3950 -0.0868  0.1836
 7105W        W26639  10.050   3.605   0.639  0.1236 -0.0488  0.0657
 7106W        W26640   1.264   6.722   0.186 -0.2263  0.1590 -0.0667
 7107W        W26641   3.269   4.437  12.655 -0.3236 -0.4170  0.0630
 7108W        W26642   3.085  14.850   6.058 -0.0486  0.1076  0.3329
 7109W        W26643   0.619   5.335  15.144 -0.0216  0.0359 -0.0300
 7110W        W26644  12.037   6.815   0.440  0.2150  0.2604 -0.1439
 7111W        W26645  18.280  17.492   4.040 -0.1361 -0.0672 -0.3056
 7112W        W26646   0.722  12.078   3.289  0.2207 -0.2862  0.0915
 7113W        W26647   6.311  14.019  14.414  0.3513  0.1291 -0.2494
 7114W        W26648  15.502  11.134   1.245 -0.0474 -0.0837 -0.3270
 7115W        W26649   0.168   4.407   3.241 -0.0885 -0.0274 -0.1414
 7116W        W26650  13.958  14.685   1.851 -0.1298 -0.0518  0.4133
 7117W        W26651   7.498   0.508  13.571 -0.0165 -0.1332  0.0958
 7118W        W26652  14.133  18.194  14.059 -0.2769  0.0127  0.3005
 7119W        W26653   9.945   7.764  13.685 -0.3628 -0.0537 -0.0332
 7120W        W26654  10.566   4.987   2.874  0.1151  0.3084  0.1306
 7121W        W26655   9.777  10.870  13.482  0.4219 -0.1695  0.3496
 7122W        W26656   7.263  11.563   4.120  0.0573  0.0050 -0.2381
 7123W        W26657   0.141   2.279  14.222  0.0729 -0.0676  0.1090
 7124W        W26658   1.228   0.843   0.087  0.0628 -0.1028 -0.1221
 7125W        W26659  11.055  17.162  14.709  0.1570 -0.0781  0.1355
 7126W        W26660   1.458  12.214  15.592  0.0608 -0.2511  0.0855
 7127W        W26661   8.825   8.874   3.567 -0.0141  0.0250 -0.0737
 7128W        W26662  10.801   4.480  15.783  0.1073 -0.2162 -0.0076
 7129W        W26663  11.496   0.265  14.153  0.1436  0.3135  0.1571
 7130W        W26664   0.608   6.096  14.884  0.1525 -0.4766 -0.2336
 7131W        W26665   8.224  12.819   3.843 -0.0405  0.0330  0.1530
 7132W        W26666   1.374   4.580   4.073 -0.2256 -0.2362 -0.2427
 7133W        W26667  10.706  18.080   1.662  0.1107 -0.2720  0.2449
 7134W        W26668   3.711   4.186   4.588  0.0035  0.0300  0.0407
 7135W        W26669   6.355   9.658  15.837 -0.1174 -0.4199  0.1826
 7136W        W26670  13.302  13.426   2.467 -0.2612 -0.1871  0.0446
 7137W        W26671  17.323   9.027  15.411  0.1433  0.0596  0.1455
 7138W        W26672   4.858   3.347  12.498  0.1606 -0.2679 -0.0236
 7139W        W26673   0.436   5.810   3.421  0.0688 -0.1393  0.0507
 7140W        W26674  13.428  14.676  14.687 -0.2266  0.1377  0.0627
 7141W        W26675  13.128   7.539   2.797 -0.1162 -0.2973  0.2567
 7142W        W26676   3.514   9.220  14.700 -0.1611 -0.2892  0.0220
 7143W        W26677   7.435  10.734  15.460 -0.1378  0.0742  0.1190
 7144W        W26678   1.595   6.031  15.562 -0.3893  0.2131  0.1900
 7145W        W26679  18.149  11.475  12.756  0.0628 -0.1254 -0.0456
 7146W        W26680   5.465   0.558  11.631  0.1633  0.1265  0.0920
 7147W        W26681   7.949   2.540  11.173  0.2296 -0.3106  0.0734
 7148W        W26682  14.583   4.102   2.200 -0.2084 -0.2643  0.0739
 7149W        W26683   7.796   1.131   1.059  0.0522  0.0366 -0.0421
 7150W        W26684   2.561  13.198   0.305  0.1655  0.2276 -0.2521
 7151W        W26685  15.674  15.127  13.434  0.2085 -0.0780 -0.5511
 7152W        W26686   3.133   2.593  11.430 -0.1622 -0.2962 -0.0489
 7153W        W26687   5.210  11.948   4.504 -0.1158 -0.1133 -0.0354
 7154W        W26688   5.932   6.891  13.275  0.3613  0.0513 -0.1531
 7155W        W26689   4.037  12.565   2.639  0.2453  0.1956  0.1150
 7156W        W26690  13.149   2.983   3.594  0.2722  0.0238  0.4112
 7157W        W26691  10.947   9.539   2.875  0.3015  0.2339 -0.2839
 7158W        W26692  16.480  17.130   1.848 -0.1874 -0.1262  0.1430
 7159W        W26693   0.828   9.144   0.564  0.1614 -0.2198  0.2045
 7160W        W26694  13.019   5.748   4.747  0.0892  0.3574 -0.0277
 7161W        W26695   2.475  11.632   3.093 -0.3320 -0.3079 -0.0288
 7162W        W26696  18.040   7.199   1.702  0.1132 -0.4406  0.0325
 7163W        W26697   8.917   6.318   2.786  0.2095  0.2594  0.3848
 7164W        W26698   4.387  15.704  14.896  0.3876 -0.1452  0.3243
 7165W        W26699   0.036   1.874   4.224  0.4355 -0.0159 -0.1541
 7166W        W26700  15.510   9.181   5.521  0.2182  0.2805 -0.0922
 7167W        W26701   0.110   3.411  15.092  0.0514  0.0014 -0.2745
 7168W        W26702   2.038   4.898   2.214 -0.1703  0.0441  0.0486
 7169W        W26703   1.084   9.560   0.436  0.2761  0.0697 -0.1884
 7170W        W26704  14.476   6.774  11.364 -0.0008  0.0131  0.2659
 7171W        W26705   2.686  13.656  11.351  0.0153  0.2176  0.1012
 7172W        W26706   1.714   5.332   2.575 -0.1774  0.1212 -0.1285
 7173W        W26707   7.163   9.628   2.498 -0.0593  0.3900 -0.0022
 7174W        W26708  13.634  12.091   3.479 -0.0144  0.0390  0.1702
 7175W        W26709  13.566  14.367   1.009  0.1426 -0.0375  0.2140
 7176W        W26710   1.589  14.456   1.869 -0.1112 -0.0446 -0.0748
 7177W        W26711  15.672   5.734  11.366  0.1031 -0.1483 -0.1740
 7178W        W26712   7.529   9.843   1.583  0.0201 -0.0120 -0.1998
 7179W        W26713  13.001   2.628  12.494  0.0981 -0.0293  0.1019
 7180W        W26714   7.713   3.353  14.449  0.0426  0.0493  0.1258
 7181W        W26715   8.198  16.402   2.902  0.0737  0.0693 -0.1262
 7182W        W26716   3.419   0.199  15.111 -0.0747  0.3235 -0.0197
 7183W        W26717   8.943   7.512  13.732  0.0401 -0.4330 -0.2603
 7184W        W26718  11.511  11.309  12.476  0.0029 -0.0690  0.1253
 7185W        W26719   0.074   4.925   4.007  0.0260 -0.0108 -0.0619
 7186W        W26720   8.827   2.504  13.693 -0.1444  0.0508 -0.1004
 7187W        W26721   0.220  17.673  15.024 -0.1896 -0.1925  0.1220
 7188W        W26722   0.986  17.030  14.523  0.1044 -0.1514 -0.1763
 7189W        W26723   9.058   8.341  14.855 -0.0654 -0.2546 -0.1324
 7190W        W26724   5.893   4.722  11.616  0.0079 -0.2087 -0.1158
 7191W        W26725  15.913  10.909   4.148 -0.2069  0.2473  0.1388
 7192W        W26726   8.460   9.028  14.367  0.2989 -0.0121  0.0473
 7193W        W26727   8.647   9.691   1.559  0.0237 -0.1232  0.1820
 7194W        W26728   6.270   7.254  12.448 -0.1827  0.0320 -0.2179
 7195W        W26729   6.937   2.849   0.417  0.2643 -0.0718 -0.0937
 7196W        W26730   4.802   4.700   3.111 -0.1459 -0.1024  0.1796
 7197W        W26731   4.276  12.230   3.003 -0.0044  0.0198  0.0712
 7198W        W26732  10.317   0.512   4.815  0.0316  0.2698 -0.2583
 7199W        W26733  13.198   7.669   4.082 -0.2158 -0.2881 -0.0050
 7200W        W26734   8.177   4.680  12.516  0.0553 -0.2653  0.0201
 7201W        W26735  16.836   8.568   2.036  0.0262  0.0879  0.1485
 7202W        W26736   0.987  16.048  14.037 -0.1400  0.1643  0.1314
 7203W        W26737  17.740   7.640  15.432  0.0242 -0.3135  0.4112
 7204W        W26738  14.142   2.228   2.445  0.0380  0.1018  0.0972
 7205W        W26739  18.231  10.650   2.198  0.4135  0.2794  0.3240
 7206W        W26740   5.326  11.582   2.033  0.3064  0.0701  0.2387
 7207W        W26741   4.428   6.324   3.484 -0.1551  0.3715  0.1381
 7208W        W26742   4.986   8.843  11.221  0.1331  0.3594 -0.0810
 7209W        W26743   7.865  14.680  14.857  0.0605  0.1443 -0.0695
 7210W        W26744  15.824  16.309   3.808 -0.0823  0.1342 -0.1214
 7211W        W26745  10.066  17.516  13.817 -0.2469 -0.0262 -0.3435
 7212W        W26746   6.871   8.731  15.073  0.0276 -0.0016 -0.1249
 7213W        W26747   6.929  14.794  12.017 -0.1620 -0.0575 -0.0858
 7214W        W26748   5.163  15.946   4.683  0.1565  0.1249 -0.1108
 7215W        W26749   2.020   1.262   3.052 -0.0564 -0.0081 -0.3860
 7216W        W26750  18.400   6.698  12.550  0.1207  0.2400  0.0798
 7217W        W26751  12.313  10.298  14.553  0.2028  0.1663  0.1142
 7218W        W26752  13.292   2.202   1.646 -0.2174  0.4771 -0.1501
 7219W        W26753   5.108   6.908   3.388  0.0596 -0.1008 -0.1568
 7220W        W26754  12.304   4.058  14.010  0.3264 -0.1746 -0.0150
 7221W        W26755  14.159   4.785  14.856  0.0729 -0.2529  0.1213
 7222W        W26756  17.157   7.110   0.379  0.1503  0.3455  0.0720
 7223W        W26757  13.861   6.694  11.967 -0.1453 -0.1585 -0.1486
 7224W        W26758   9.666   9.111   2.947  0.2585 -0.1329 -0.1294
 7225W        W26759  12.469   8.657  15.360 -0.4498 -0.0866 -0.0232
 7226W        W26760  14.114  13.402   0.261 -0.2673 -0.0086 -0.2820
 7227W        W26761   3.578   3.415  12.203  0.0252 -0.0753  0.0922
 7228W        W26762  17.707  17.551   4.843 -0.0429 -0.1119 -0.0066
 7229W        W26763  17.157   6.938  12.012  0.3442 -0.0026  0.1257
 7230W        W26764   0.220  17.755  12.563  0.0340 -0.1678 -0.0793
 7231W        W26765   8.449   0.728  15.218  0.1259  0.1327  0.2390
 7232W        W26766   9.944   4.328   1.300  0.1692 -0.0177 -0.0360
 7233W        W26767   2.545  15.156   2.830 -0.0859 -0.2210  0.0197
 7234W        W26768   5.688  12.192   0.788 -0.1462  0.1670  0.0760
 7235W        W26769  17.497   3.188  11.474 -0.1432 -0.0952 -0.2082
 7236W        W26770  15.252   2.149   1.139 -0.0141 -0.1835 -0.0029
 7237W        W26771   6.942  13.437   1.780  0.1990 -0.0149 -0.0868
 7238W        W26772   3.840   5.344  12.489  0.0004  0.1486 -0.1667
 7239W        W26773  16.942  15.300   2.758  0.1613  0.1396 -0.1084
 7240W        W26774   1.170   7.427  13.417  0.0763 -0.0606  0.0275
 7241W        W26775   5.385  12.343   3.397  0.0684  0.2036 -0.1197
 7242W        W26776   1.486  13.232   3.736 -0.4150  0.2576 -0.0268
 7243W        W26777  11.902   7.259   3.156 -0.3315  0.0495  0.2017
 7244W        W26778   5.280   7.033  13.589 -0.1472  0.0607  0.3737
 7245W        W26779   6.251   6.935   4.573 -0.1370  0.1909 -0.1274
 7246W        W26780   8.182  18.186  13.477  0.0728 -0.0500  0.1926
 7247W        W26781   3.754   1.185   4.172  0.1144  0.1225  0.0585
 7248W        W26782   4.134   9.035   0.176  0.1497 -0.2117  0.0744
 7249W        W26783   0.462  14.346   4.654  0.0807  0.0781  0.2701
 7250W        W26784   1.800   0.327  13.903 -0.1807  0.2478 -0.0023
 7251W        W26785  18.278   0.518   1.817 -0.3013 -0.2405 -0.0820
 7252W        W26786  15.295   6.119  13.391 -0.2646 -0.0439 -0.1861
 7253W        W26787   0.885   0.143  13.475  0.3523  0.3136 -0.0349
 7254W        W26788  15.868   3.132   0.771 -0.1272  0.1431 -0.0187
 7255W        W26789   8.691   3.894   2.447  0.0402 -0.3319 -0.1306
 7256W        W26790   0.398  12.094  15.497  0.0874 -0.0039  0.0082
 7257W        W26791   8.245  14.604  15.142 -0.1684  0.0096  0.0923
 7258W        W26792  16.505  14.180   4.045 -0.5044  0.2325  0.0713
 7259W        W26793  13.024  17.670   1.384 -0.0818 -0.1289 -0.1864
 7260W        W26794   9.299   4.493   1.948  0.0702 -0.2131  0.0306
 7261W        W26795  16.232  14.962  12.148 -0.1727 -0.1147  0.1639
 7262W        W26796   2.347  18.393  12.108 -0.2989 -0.0854 -0.0674
 7263W        W26797   9.349  13.766   3.472  0.1008 -0.4778 -0.0636
 7264W        W26798  16.791  12.238  15.258  0.0364  0.4448  0.2120
 7265W        W26799   9.107   0.778   3.403 -0.4613 -0.1298 -0.1423
 7266W        W26800   5.555  15.465   4.658 -0.1205  0.2232 -0.3875
 7267W        W26801   1.871  11.153  14.522  0.1176  0.0502 -0.0442
 7268W        W26802   4.013   5.307  12.020 -0.3003 -0.4272  0.0531
 7269W        W26803   5.896   6.790   3.293  0.1788  0.0163  0.0751
 7270W        W26804  10.061  17.005   1.546  0.0049 -0.1732  0.2213
 7271W        W26805  12.861   4.304  12.288 -0.0498 -0.0594 -0.0861
 7272W        W26806  16.091   1.039   3.084  0.0294  0.0962 -0.2586
 7273W        W26807   6.422  15.547  12.954  0.1329  0.2195  0.1964
 7274W        W26808  15.353   4.958  14.965  0.0742  0.2098  0.1018
 7275W        W26809   1.340   4.851   9.842 -0.1148  0.2403  0.1208
 7276W        W26810  17.139   8.019   0.919 -0.3099 -0.0279  0.0608
 7277W        W26811  11.762   6.098  12.745 -0.1245 -0.1929  0.3340
 7278W        W26812   3.120   0.135  10.415 -0.2281  0.0650 -0.0817
 7279W        W26813  15.443   4.963  13.605  0.2624 -0.0136  0.1069
 7280W        W26814   3.991   1.465  12.921  0.0847 -0.2688 -0.2798
 7281W        W26815   8.336   5.532   4.363  0.0600 -0.0508 -0.0607
 7282W        W26816  10.783   5.647  12.595 -0.3291  0.1263 -0.4343
 7283W        W26817  11.349  16.014   1.437 -0.0213 -0.0180 -0.1302
 7284W        W26818   1.429   9.052  12.930  0.1130  0.0518  0.0884
 7285W        W26819   2.287  10.711  14.102 -0.0535 -0.1085 -0.0346
 7286W        W26820  15.078   5.263   4.077 -0.0824 -0.2944 -0.0246
 7287W        W26821   5.098  12.263  11.648  0.0878 -0.1467 -0.0634
 7288W        W26822   6.816  16.042  15.116  0.0857  0.0762  0.0298
 7289W        W26823   3.828   8.969   2.490 -0.3728 -0.0738  0.3765
 7290W        W26824   3.464  18.145   2.141 -0.2193  0.2660 -0.1465
 7291W        W26825   2.717  16.182   3.989  0.3772 -0.3441 -0.2098
 7292W        W26826   6.929   1.730  14.600  0.0918  0.1406 -0.0444
 7293W        W26827   3.975  17.929  13.876  0.3023 -0.2637 -0.3251
 7294W        W26828   1.091  10.824  13.964  0.0639  0.1685  0.2711
 7295W        W26829   7.779   3.072  12.930 -0.3882  0.1837 -0.1134
 7296W        W26830  18.005   2.830  13.547 -0.1068  0.5209  0.2377
 7297W        W26831  11.702   8.305  13.231 -0.1194 -0.0206 -0.1452
 7298W        W26832  16.395  14.639  15.363 -0.0693  0.1398 -0.2296
 7299W        W26833  13.363  17.936   1.105 -0.2429  0.0024 -0.3473
 7300W        W26834   8.144  12.129  13.312  0.2313  0.0588  0.1941
 7301W        W26835   9.876  10.810  12.686 -0.3173  0.2182 -0.0531
 7302W        W26836  13.167  18.037   3.340 -0.0304 -0.0772 -0.2408
 7303W        W26837   4.834   9.900   2.996 -0.2391 -0.1085  0.0032
 7304W        W26838   9.277  12.868   0.597  0.0757 -0.3352  0.2289
 7305W        W26839  13.978   2.213  10.926 -0.0297  0.1852 -0.0692
 7306W        W26840   3.794   8.459   2.741 -0.0637  0.0642  0.0026
 7307W        W26841  15.712   3.425  13.548 -0.1643 -0.0553  0.2975
 7308W        W26842  14.711   3.492  15.135 -0.2744  0.0435  0.2288
 7309W        W26843   0.104  10.995   3.659  0.0134  0.3746 -0.2373
 7310W        W26844  15.874   3.316  12.770  0.1726  0.0862 -0.1299
 7311W        W26845  16.354  11.604  13.733 -0.0486 -0.1814  0.3723
 7312W        W26846   8.142  18.220  15.170 -0.2170  0.0504 -0.2059
 7313W        W26847   5.189   2.834   1.862 -0.0781  0.0757 -0.0495
 7314W        W26848   6.840   0.313   3.668  0.1119  0.1405  0.0638
 7315W        W26849  10.361  12.477   4.488  0.1779 -0.1332  0.2206
 7316W        W26850   9.491  16.183  13.850  0.1990  0.1152  0.0869
 7317W        W26851  12.527  11.445   3.020  0.1940 -0.0042  0.2207
 7318W        W26852  17.778   8.151  10.306 -0.0667  0.2830  0.1261
 7319W        W26853  11.000   5.036  11.847  0.0293  0.1088 -0.0019
 7320W        W26854  12.876   2.251   1.394  0.0755 -0.1934 -0.2023
 7321W        W26855  13.806   4.400  15.246  0.2141  0.0885  0.0577
 7322W        W26856  18.149  14.529   3.439 -0.0831  0.0597  0.1588
 7323W        W26857  17.195   7.350   3.085  0.1834 -0.2349  0.1373
 7324W        W26858  17.758  12.234   3.121 -0.2141 -0.1810  0.1268
 7325W        W26859   1.279   0.726   2.795 -0.0508  0.0363 -0.0060
 7326W        W26860  17.391  14.300  15.379 -0.0248  0.4030  0.1296
 7327W        W26861   2.783   3.056   1.489 -0.1507 -0.0043  0.0718
 7328W        W26862  16.921   6.100   0.502  0.0304 -0.1592 -0.0905
 7329W        W26863  17.861   5.694  15.509 -0.0326 -0.0940  0.0634
 7330W        W26864   6.796   8.314   1.505 -0.0407  0.1107  0.2091
 7331W        W26865   9.645  11.064  12.233  0.2546 -0.5021  0.0117
 7332W        W26866   7.577   8.071   3.917 -0.1922 -0.2195  0.1469
 7333W        W26867   5.608  13.803   4.392 -0.2538 -0.1033 -0.2572
 7334W        W26868   1.056   1.121  14.565 -0.0913  0.0480 -0.1888
 7335W        W26869  17.708  18.207   3.291 -0.0363  0.3883 -0.0828
 7336W        W26870  17.478   7.872   4.124  0.0532  0.0908  0.0933
 7337W        W26871  15.926   7.329  12.174 -0.2538 -0.1779 -0.1709
 7338W        W26872   8.669   8.841   1.599  0.1343 -0.1041  0.2800
 7339W        W26873   7.151  13.270   4.046 -0.1010  0.0950 -0.2340
 7340W        W26874  13.368  15.819   5.111 -0.1703  0.0725 -0.2297
 7341W        W26875   1.630  11.795   1.105 -0.0136 -0.3869  0.0276
 7342W        W26876   3.914  10.420   2.398  0.0519  0.3599 -0.0006
 7343W        W26877   7.213   5.231   0.670 -0.1650  0.0390  0.0518
 7344W        W26878  10.315   4.027   3.751  0.1199 -0.3648  0.0193
 7345W        W26879   2.509  10.483  11.167  0.1453 -0.2040  0.0326
 7346W        W26880  12.752  16.396   1.006 -0.1395  0.0191 -0.2015
 7347W        W26881  11.950  18.262  12.150 -0.1062  0.0130  0.2499
 7348W        W26882   7.787   1.046  12.288  0.0833 -0.1424  0.1490
 7349W        W26883  12.593   3.599  12.920 -0.0708 -0.1013 -0.2536
 7350W        W26884  17.854  16.085  11.957 -0.2564 -0.2067  0.1651
 7351W        W26885   5.280   2.274  15.375  0.0659 -0.1764  0.0821
 7352W        W26886   7.760   4.540   3.658 -0.2001  0.1667  0.3131
 7353W        W26887  13.042  14.469   0.520  0.0448  0.1447  0.0191
 7354W        W26888   0.644   1.390   2.851  0.1664 -0.0505  0.1121
 7355W        W26889  13.679   6.834   3.634  0.0752 -0.1359  0.1446
 7356W        W26890  15.286  15.388   2.937  0.2494 -0.1016 -0.2081
 7357W        W26891  17.527  14.771   4.211  0.0046 -0.1689  0.0033
 7358W        W26892   8.519  17.077  13.738  0.3007  0.0142 -0.2919
 7359W        W26893  16.522   6.417   2.898  0.1157  0.5640 -0.3228
 7360W        W26894   2.882   1.224   2.109  0.4716  0.1486  0.1534
 7361W        W26895   8.705  16.805   2.338  0.1384 -0.1086 -0.0257
 7362W        W26896   9.851  17.994  14.447 -0.0346  0.2429 -0.3035
 7363W        W26897  12.889  16.159   3.232 -0.0934  0.0668 -0.0751
 7364W        W26898   3.388  11.954  11.686  0.0811  0.1464 -0.1591
 7365W        W26899   7.178   8.623   2.524  0.2633 -0.1459 -0.0176
 7366W        W26900  11.321  12.876  12.292 -0.1672  0.5451 -0.0659
 7367W        W26901  17.299  18.076  11.560 -0.0227 -0.0356  0.1092
 7368W        W26902   9.393   7.646   3.847 -0.1206  0.0377  0.0702
 7369W        W26903   1.715   4.008   2.224  0.2945 -0.2369  0.0437
 7370W        W26904   5.357   0.871   3.463  0.0940  0.1753 -0.4757
 7371W        W26905   4.722  13.989  13.676  0.0475  0.0005  0.0849
 7372W        W26906  10.391   2.430  14.324  0.0654  0.0810 -0.0519
 7373W        W26907  16.164  14.306  14.961  0.0959  0.0961  0.0275
 7374W        W26908   3.368   6.202  15.838 -0.2151  0.0371 -0.0840
 7375W        W26909   3.994   7.640   1.460  0.1353 -0.1042 -0.1155
 7376W        W26910   9.980   6.647  13.866  0.5716  0.2287 -0.1215
 7377W        W26911   2.219   9.579  12.225 -0.1057  0.0415  0.1622
 7378W        W26912  16.293  14.345   1.490  0.1764  0.1075  0.1763
 7379W        W26913  14.327  11.385   1.675  0.1147 -0.0334 -0.0201
 7380W        W26914   8.468  14.982  11.921 -0.2645  0.1011 -0.0381
 7381W        W26915   5.147   8.146   2.364  0.0649  0.1245  0.1793
 7382W        W26916   6.505  13.791  12.765 -0.0081  0.2969 -0.2050
 7383W        W26917   3.859   7.657  12.598 -0.0036  0.0596 -0.1945
 7384W        W26918   2.894  14.815  14.102  0.2149 -0.2905  0.0493
 7385W        W26919   4.190  15.434   4.363  0.0381  0.0553  0.1403
 7386W        W26920  15.030  10.224   1.426 -0.0002  0.1264 -0.0720
 7387W        W26921  11.276   0.734  15.781  0.1699 -0.2912 -0.0733
 7388W        W26922  14.611   9.014   0.529  0.1518 -0.0972 -0.0597
 7389W        W26923  17.185  17.091  13.602 -0.0252 -0.1490  0.0263
 7390W        W26924   6.523  12.313   2.409  0.1497  0.0575  0.0845
 7391W        W26925   3.990  12.060   1.676  0.1251 -0.1057 -0.1100
 7392W        W26926   6.108   4.450   4.777 -0.0435  0.0578 -0.1895
 7393W        W26927  12.445   8.984   3.978 -0.0564 -0.1238 -0.3745
 7394W        W26928   3.114   2.055   0.129 -0.1176 -0.1175  0.0736
 7395W        W26929  17.887   7.851  13.182 -0.2465 -0.2966 -0.4627
 7396W        W26930   5.090  16.523   0.739  0.1107 -0.0392 -0.3146
 7397W        W26931  17.325  12.031  14.454  0.1298  0.0932 -0.2988
 7398W        W26932   4.851  12.026   4.042  0.0209 -0.1656 -0.1181
 7399W        W26933   5.279  12.012   2.955 -0.4736  0.1876 -0.0841
 7400W        W26934  12.911   5.868   3.477 -0.3029  0.1434  0.0481
 7401W        W26935  13.795   4.420  13.340 -0.1190  0.0225  0.1894
 7402W        W26936  17.482  16.410  11.161 -0.1524  0.0885 -0.2789
 7403W        W26937   1.662   7.436  15.699 -0.0364 -0.0098  0.0360
 7404W        W26938   9.682  13.384  14.010  0.2343 -0.3661 -0.0491
 7405W        W26939   5.325  15.029  11.970  0.0989  0.0145  0.1112
 7406W        W26940   4.720  12.909   0.034  0.0379 -0.3485 -0.4099
 7407W        W26941  13.336  16.477   2.602  0.0923 -0.2567 -0.2945
 7408W        W26942   3.294   6.023   1.129 -0.1094  0.1446 -0.1833
 7409W        W26943  15.031   0.164  15.431  0.0868  0.0251 -0.1881
 7410W        W26944   2.843  14.098  15.466  0.3627  0.2793 -0.1143
 7411W        W26945  15.444   4.127   2.139 -0.1998  0.3456  0.0591
 7412W        W26946   4.898   9.979  13.969  0.0146 -0.0181 -0.0613
 7413W        W26947  15.799   0.565  13.227  0.1824 -0.2106  0.0152
 7414W        W26948  12.577   0.005   4.910  0.1897  0.3458 -0.2101
 7415W        W26949   8.339   3.379   3.583  0.0467 -0.3042  0.0841
 7416W        W26950  17.462  13.743  14.041  0.2515  0.0139  0.1809
 7417W        W26951  14.687   8.489  12.969  0.2358 -0.0109  0.2041
 7418W        W26952   0.232  10.189   3.452 -0.0612 -0.1087  0.3596
 7419W        W26953   3.076   9.013   0.471 -0.1363  0.1858 -0.2309
 7420W        W26954  14.944   9.661  15.131  0.2229 -0.0679  0.4242
 7421W        W26955  15.340  16.542  10.851 -0.0175 -0.0644  0.1417
 7422W        W26956  12.561  17.602  12.047 -0.3100  0.1027 -0.1652
 7423W        W26957  11.361   9.682  13.727  0.1348 -0.0499 -0.0364
 7424W        W26958  17.772   1.588   0.309 -0.0740  0.2175  0.0667
 7425W        W26959   0.039  13.518  15.498 -0.2719 -0.1351 -0.0878
 7426W        W26960  18.315   8.344  14.772  0.0974  0.1403 -0.0328
 7427W        W26961   5.743   5.826   0.036 -0.1783 -0.0344  0.1759
 7428W        W26962  15.103   6.969  15.121  0.0313 -0.0273 -0.3192
 7429W        W26963  12.794   9.135  11.323  0.0006 -0.3837 -0.1909
 7430W        W26964   8.112   7.822   3.083  0.1598  0.0202 -0.1376
 7431W        W26965   9.079   9.276  14.338  0.0418  0.1322 -0.1850
 7432W        W26966  15.579  14.256   2.939 -0.2596  0.0869 -0.0886
 7433W        W26967  16.249  18.280  11.464 -0.0548  0.0777  0.1645
 7434W        W26968   2.215   1.459  12.515 -0.2365  0.0568 -0.3173
 7435W        W26969  11.872   5.251  14.562  0.0557  0.0479  0.2013
 7436W        W26970  14.306   9.144  12.459 -0.0801 -0.5388 -0.1078
 7437W        W26971  14.796  15.085  15.117  0.1029 -0.2035  0.3230
 7438W        W26972   3.254   2.786   2.701 -0.0520  0.0630  0.4468
 7439W        W26973   4.902   0.011   3.546  0.0321 -0.0025  0.1134
 7440W        W26974   0.146   0.466  12.497  0.2012 -0.2337  0.1809
 7441W        W26975  10.156  10.550   3.391  0.0018  0.0246  0.0278
 7442W        W26976   7.145   7.223   0.005  0.1150 -0.0663  0.0247
 7443W        W26977   2.827   2.062  13.366 -0.3628  0.0018  0.0252
 7444W        W26978   5.850  15.822   1.804 -0.3239 -0.2383 -0.4079
 7445W        W26979  10.264   0.627  11.982 -0.1510  0.0454 -0.1470
 7446W        W26980  14.047  14.635   2.353  0.2246  0.2541  0.0101
 7447W        W26981  12.236   9.393  13.967  0.3414 -0.1874  0.1987
 7448W        W26982   5.742   7.253  11.525  0.2233  0.0565 -0.0003
 7449W        W26983   0.026   7.159  11.696  0.0044  0.0048  0.0903
 7450W        W26984  13.857   1.367  13.434 -0.1233  0.0120 -0.3697
 7451W        W26985   0.055   4.955   2.124  0.1653 -0.0835  0.1797
 7452W        W26986   9.829  12.838  13.076  0.0303 -0.2202 -0.3512
 7453W        W26987  16.035  10.324  11.647  0.2582 -0.2749 -0.1034
 7454W        W26988   0.498  10.340  10.300 -0.0138 -0.0984  0.0073
 7455W        W26989   5.768  12.907   2.884  0.0846  0.1445  0.2873
 7456W        W26990   1.232  13.121  15.480  0.3166  0.5892  0.1075
 7457W        W26991   8.437  11.170   4.498 -0.0845  0.2504 -0.5000
 7458W        W26992   4.575   3.440  12.964 -0.1519  0.2080  0.0184
 7459W        W26993   8.873   5.253  15.568  0.1717 -0.1531 -0.1271
 7460W        W26994   6.368   5.278   2.258 -0.3182 -0.1028 -0.0978
 7461W        W26995   9.955  12.370  13.248  0.1663 -0.1352 -0.0260
 7462W        W26996   6.993   9.060   1.242  0.0486 -0.1797 -0.1623
 7463W        W26997  18.339   4.304  14.377  0.1360  0.1019 -0.3184
 7464W        W26998   8.161  10.284  12.378 -0.1416  0.1187  0.1328
 7465W        W26999   5.049   5.333  15.521 -0.0354  0.1612 -0.0595
 7466W        W27000   0.791   6.246  11.314 -0.1061  0.3168  0.1414
 7467W        W27001  14.726   1.979   1.530  0.0647  0.2066 -0.1806
 7468W        W27002   7.865  10.582  14.276 -0.1190  0.2804 -0.0386
 7469W        W27003   4.716   2.926   0.316 -0.3937  0.0473 -0.0097
 7470W        W27004   8.291   6.348  14.120 -0.2184 -0.0815 -0.1531
 7471W        W27005  13.016   8.369  11.347  0.0974  0.2042 -0.1239
 7472W        W27006  13.742  10.405   3.522  0.2077  0.1728 -0.0362
 7473W        W27007  14.264  13.409  12.071  0.1104  0.3260  0.2532
 7474W        W27008  14.219  11.038   3.140  0.0504  0.1242  0.0476
 7475W        W27009   8.851   6.866  15.554 -0.0101  0.1960  0.0388
 7476W        W27010  11.905   0.043   3.003  0.0491 -0.2116 -0.0717
 7477W        W27011   1.420  17.909   5.185  0.1420 -0.0710 -0.2105
 7478W        W27012  16.822  12.265  11.644 -0.0299 -0.1362 -0.1354
 7479W        W27013  17.661  16.571  11.731 -0.2121  0.1541 -0.2274
 7480W        W27014   9.183  15.261   0.761  0.0822 -0.0159 -0.3033
 7481W        W27015   7.547   3.342  15.152  0.0597  0.0914 -0.0451
 7482W        W27016   5.949  16.339   3.317  0.4511  0.0377 -0.0437
 7483W        W27017   0.695  17.971   0.934 -0.1194 -0.3224  0.0254
 7484W        W27018  16.387  16.437  15.113 -0.0514 -0.2255  0.1025
 7485W        W27019   4.631  15.470   1.138  0.1136  0.0142  0.1831
 7486W        W27020  10.161  15.975  11.994  0.2804 -0.2500  0.1582
 7487W        W27021  12.652   1.511  13.603  0.1846  0.0882  0.0548
 7488W        W27022  15.692   8.832  13.346 -0.1433 -0.0064 -0.3622
 7489W        W27023  15.889   5.263  11.608 -0.0223  0.1869 -0.2927
 7490W        W27024  15.522   5.748  14.112  0.0516 -0.1469 -0.3421
 7491W        W27025   1.034  13.340   0.179 -0.3018  0.3531  0.1829
 7492W        W27026   4.365   4.480   3.277 -0.0984  0.0856 -0.0455
 7493W        W27027   5.401   1.379  11.164 -0.0310  0.1826 -0.0977
 7494W        W27028  12.994  14.894  14.499 -0.3123 -0.0744  0.0831
 7495W        W27029   9.520   1.374  11.844 -0.0860 -0.3533 -0.3159
 7496W        W27030   1.567  17.235  15.293  0.2156 -0.0236  0.0225
 7497W        W27031   5.005  10.597   2.160 -0.0577 -0.1241 -0.0281
 7498W        W27032  14.515   1.789   3.625  0.0032  0.2521 -0.0365
 7499W        W27033   4.258  17.795  13.491 -0.2283 -0.1561 -0.0705
 7500W        W27034   3.463   8.958   3.212 -0.0896 -0.1146 -0.3045
 7501W        W27035  11.084   6.513  10.167 -0.1005  0.1630 -0.0007
 7502W        W27036  10.979   1.437  11.951 -0.1090 -0.1221 -0.0956
 7503W        W27037   0.882   0.444  15.700  0.0031 -0.1293  0.3294
 7504W        W27038   0.233   3.946  12.827 -0.1848 -0.0147 -0.1700
 7505W        W27039   4.382  18.036  11.713  0.0609  0.0905 -0.0600
 7506W        W27040  12.425   7.184  11.769 -0.1639  0.3877  0.3005
 7507W        W27041  16.362  15.957   2.566  0.0794  0.0961 -0.0554
 7508W        W27042   2.860   9.973   5.174  0.0386  0.1879  0.1128
 7509W        W27043  14.108  12.863  11.385 -0.0317 -0.0147  0.0034
 7510W        W27044  16.444   5.923  11.674 -0.2007  0.0875 -0.0984
 7511W        W27045  15.674   1.821  12.632 -0.0802 -0.1066  0.0070
 7512W        W27046  12.881   9.964  11.692  0.1933 -0.0961  0.1545
 7513W        W27047   0.215   8.557  15.283 -0.0545 -0.2383  0.0489
 7514W        W27048   9.661   2.957  14.196  0.0941 -0.1568  0.0312
 7515W        W27049   1.779  13.400  13.141  0.1458  0.2205  0.0441
 7516W        W27050  13.331  10.656   3.399 -0.2773 -0.3140 -0.3280
 7517W        W27051   2.517   3.307  15.288 -0.1525 -0.0000  0.2429
 7518W        W27052   1.545  12.225   1.434 -0.0473  0.1833  0.0782
 7519W        W27053  11.819   6.598  14.904  0.0730 -0.4735  0.1563
 7520W        W27054   9.516   5.547   5.077 -0.2418 -0.4880 -0.0655
 7521W        W27055  15.378   3.217   3.013 -0.3097 -0.1091  0.0032
 7522W        W27056   6.737  17.069  13.963 -0.0397 -0.0520 -0.3226
 7523W        W27057  15.285   4.787  11.924 -0.1730 -0.1280 -0.1120
 7524W        W27058   0.937   9.450  11.833 -0.0056  0.2256  0.1092
 7525W        W27059  14.628   2.118   2.396 -0.3161 -0.3637 -0.0694
 7526W        W27060   0.402  16.732   0.623 -0.3191 -0.1797  0.1142
 7527W        W27061   9.619   7.035  14.508 -0.0473 -0.0950 -0.0568
 7528W        W27062  16.595  11.038  12.853 -0.1000 -0.0294 -0.3894
 7529W        W27063   1.557   3.536   4.804 -0.0916 -0.0442 -0.0997
 7530W        W27064   0.341  14.648   2.671  0.1846 -0.2940 -0.1797
 7531W        W27065   4.577   5.779   0.763 -0.1901 -0.2494  0.0246
 7532W        W27066  17.208   3.424   4.510 -0.3044 -0.3295 -0.1667
 7533W        W27067   2.126  16.652   2.972  0.1306 -0.2175  0.3571
 7534W        W27068   1.047   8.290   0.756  0.2230 -0.0849 -0.2441
 7535W        W27069  13.639   0.603  15.652 -0.1236 -0.0312  0.0039
 7536W        W27070  16.826   2.252  12.859 -0.2410 -0.2441  0.1917
 7537W        W27071   3.913   2.463  13.595  0.0103 -0.0919  0.3167
 7538W        W27072  17.173   0.480  14.861 -0.1304  0.1512 -0.0780
 7539W        W27073   8.519   2.079  13.786 -0.1063  0.0277 -0.3327
 7540W        W27074   0.811  11.101  12.673 -0.0040 -0.1980  0.0192
 7541W        W27075  15.800   7.178  14.426 -0.1775 -0.4218  0.1739
 7542W        W27076   4.353   9.680   3.179 -0.0585 -0.0749 -0.1202
 7543W        W27077  15.178  12.650  13.818  0.1419 -0.0394 -0.1288
 7544W        W27078  11.549   6.974   1.500 -0.0051  0.0807  0.0548
 7545W        W27079   9.066  10.833  15.246 -0.0139  0.2837  0.2517
 7546W        W27080  15.838   7.918   0.350 -0.2678 -0.1861  0.1351
 7547W        W27081   2.819  13.658   0.108  0.1835  0.2102  0.0225
 7548W        W27082  13.391   6.512  12.039  0.0454  0.1696  0.0284
 7549W        W27083   2.154   6.241   4.972 -0.2202  0.0644  0.1974
 7550W        W27084  10.281   9.296   0.146  0.1858 -0.0607 -0.2854
 7551W        W27085  18.228  12.233  15.530 -0.1494  0.5983 -0.0570
 7552W        W27086   5.682   2.090   3.356 -0.1636  0.1842  0.0358
 7553W        W27087  13.137  12.707  13.450  0.1624  0.0257  0.0091
 7554W        W27088   5.459   8.911  12.913 -0.1591  0.0275 -0.0696
 7555W        W27089   8.477   9.622   2.969  0.0578 -0.0049 -0.0603
 7556W        W27090  13.782   7.343  13.646  0.1993 -0.1096 -0.0169
 7557W        W27091  15.302  12.886   4.400 -0.0281  0.0104  0.0836
 7558W        W27092   2.255   0.180  13.118  0.2825  0.1155 -0.0862
 7559W        W27093   1.151   1.926   1.689 -0.0160  0.0976 -0.2924
 7560W        W27094  18.032  13.999   0.405  0.0776  0.0746  0.0120
 7561W        W27095  12.551   7.976  14.113 -0.0095 -0.2897 -0.0604
 7562W        W27096   9.739   8.946  11.906 -0.2616 -0.0129 -0.3343
 7563W        W27097   4.478   2.535  14.813  0.0181 -0.1012  0.2956
 7564W        W27098  10.586  16.253  15.499  0.1493  0.0232  0.2858
 7565W        W27099  11.756   2.637   4.253 -0.0364 -0.1234 -0.2713
 7566W        W27100   9.919   2.071   3.444 -0.2684 -0.2903 -0.0940
 7567W        W27101   1.404  16.104   4.087 -0.1008 -0.0247  0.1780
 7568W        W27102   0.124   7.150   2.993 -0.2203  0.1853  0.2359
 7569W        W27103   5.333  11.259  11.745 -0.1481 -0.2307 -0.0467
 7570W        W27104  10.104   7.534   2.157  0.1172  0.0976  0.2751
 7571W        W27105   3.312   7.541  13.520 -0.0474  0.0498  0.0909
 7572W        W27106   0.774   5.878   1.578  0.0792 -0.2147  0.1483
 7573W        W27107  10.233   0.649   3.542 -0.0706  0.0561  0.2304
 7574W        W27108   3.124   5.016  15.572  0.1798 -0.0161  0.0784
 7575W        W27109   7.291   5.950   0.184 -0.2048 -0.0860 -0.0024
 7576W        W27110   4.304   7.114  13.751 -0.0811 -0.2128 -0.1929
 7577W        W27111   7.176   2.642   2.431 -0.1178 -0.0652 -0.1193
 7578W        W27112  13.216   0.299   2.708 -0.2987  0.2341 -0.0270
 7579W        W27113   8.310  11.588  13.104  0.1848  0.3051 -0.0300
 7580W        W27114   4.099  12.865  12.278 -0.0885  0.1438  0.1885
 7581W        W27115  11.978   4.511  13.171 -0.4604 -0.1390 -0.0366
 7582W        W27116  10.743  13.779   1.121 -0.0782  0.1177 -0.1578
 7583W        W27117   7.711   7.006   1.959  0.2441  0.0381  0.0988
 7584W        W27118  11.321  11.064  15.095 -0.0582 -0.0327 -0.0951
 7585W        W27119   3.456  15.682  11.869  0.2153  0.0165  0.2994
 7586W        W27120   1.573  17.441   4.267 -0.3463 -0.2377 -0.0758
 7587W        W27121  15.304   7.885  15.375  0.3695 -0.0512 -0.0909
 7588W        W27122   7.095  11.940  10.277  0.0420 -0.2101  0.0335
 7589W        W27123   1.837  12.100   0.796  0.1409 -0.1246 -0.1713
 7590W        W27124  18.185   6.033   0.535 -0.0871 -0.0411 -0.2304
 7591W        W27125   2.483   2.032   3.529  0.0743 -0.1230  0.1293
 7592W        W27126   7.484  11.336  10.789  0.3478  0.0598 -0.0156
 7593W        W27127  14.928   5.881   0.345 -0.1675  0.1350 -0.2792
 7594W        W27128  17.636   0.153  12.159 -0.0948  0.0381 -0.1729
 7595W        W27129   6.538   3.296   4.482  0.0601  0.0839  0.0931
 7596W        W27130  11.796  14.170   0.390 -0.0863 -0.0320  0.0558
 7597W        W27131   8.843  12.072  15.013 -0.5021 -0.2778  0.1165
 7598W        W27132  14.914   7.167   2.336  0.0579  0.1789 -0.3395
 7599W        W27133  17.750   6.209  15.394 -0.0756  0.4498 -0.2422
 7600W        W27134  15.507   0.639  13.712 -0.1309  0.0958 -0.2154
 7601W        W27135   0.094  10.924   1.390  0.1488  0.0461  0.2610
 7602W        W27136   0.948   9.940  11.910 -0.2608 -0.0066  0.1843
 7603W        W27137   8.812   2.699  13.270 -0.1023 -0.2175  0.0393
 7604W        W27138   2.357   5.656  14.729 -0.3607  0.2956  0.2750
 7605W        W27139   5.305   4.867  13.877  0.0862 -0.2795 -0.1968
 7606W        W27140   5.281   5.070  12.479 -0.1391 -0.1286 -0.2194
 7607W        W27141   6.356   3.907  15.540  0.4500 -0.1022  0.0285
 7608W        W27142   7.248  14.437  12.400 -0.2966 -0.0604 -0.1689
 7609W        W27143  10.934   6.424   2.122 -0.1596 -0.2667 -0.0712
 7610W        W27144   5.563   3.151   4.982 -0.0232 -0.1287 -0.3185
 7611W        W27145   4.763   1.225  13.258  0.0887  0.0146 -0.0120
 7612W        W27146  14.425   3.457  11.902  0.2960 -0.2593 -0.1239
 7613W        W27147  16.526  12.346  12.506 -0.4716 -0.1138  0.0605
 7614W        W27148   0.432   1.350   5.970  0.0884 -0.1670 -0.0883
 7615W        W27149   0.819   2.828   1.408 -0.1537  0.2000 -0.1375
 7616W        W27150  16.409   2.622   1.187 -0.0271  0.0085 -0.0417
 7617W        W27151   3.966  10.996   1.244  0.1605  0.0133 -0.2703
 7618W        W27152  16.566   3.372   3.328  0.1325 -0.1229  0.2125
 7619W        W27153  16.079   0.011   3.540 -0.1804 -0.1044 -0.4439
 7620W        W27154   2.760  12.839  15.302  0.4203  0.0986 -0.0877
 7621W        W27155   5.459   9.554  15.560  0.1677  0.0919  0.1860
 7622W        W27156  11.663  16.828   1.015  0.4473  0.1587 -0.2447
 7623W        W27157   6.667  12.932  13.605 -0.2257 -0.1205  0.2386
 7624W        W27158  15.408   8.052  12.003 -0.1588 -0.3607 -0.0072
 7625W        W27159   4.677  10.027   4.017  0.3559  0.3571  0.0056
 7626W        W27160  10.565   2.220   4.713  0.2284 -0.2678 -0.1436
 7627W        W27161   4.952   6.437   3.029  0.0621 -0.0672  0.2663
 7628W        W27162  16.804   0.384   1.851 -0.0679  0.0452  0.0780
 7629W        W27163  18.235  15.040   3.371  0.1978 -0.5781 -0.0674
 7630W        W27164   0.390   3.257  14.351 -0.0704 -0.4084 -0.2288
 7631W        W27165   4.854  17.181   3.944  0.0739 -0.0035 -0.0575
 7632W        W27166  13.530  14.355  15.554  0.1335 -0.4205 -0.1329
 7633W        W27167   2.890  12.694  11.558  0.1598 -0.0599  0.2114
 7634W        W27168   5.660   9.081  12.164  0.1685 -0.1910  0.2506
 7635W        W27169   6.472   1.538  14.224  0.2407  0.2822  0.4670
 7636W        W27170  10.167   5.844   1.478  0.0398 -0.0423 -0.1965
 7637W        W27171  15.960   7.813   2.544  0.1107  0.1468 -0.0882
 7638W        W27172  14.403   8.839  12.886 -0.0100  0.1690 -0.1414
 7639W        W27173  11.258  15.394  13.165  0.2536 -0.1704 -0.1414
 7640W        W27174  11.297  15.118   2.669 -0.0372  0.1236  0.0021
 7641W        W27175   3.718   4.691  13.479  0.2020  0.1738 -0.0182
 7642W        W27176   7.358   8.674  12.419 -0.1792  0.0735 -0.1633
 7643W        W27177  16.731  16.855  13.756  0.1166  0.2182  0.1062
 7644W        W27178   3.874  15.877   1.161 -0.1800  0.0038  0.1245
 7645W        W27179  15.678   2.322  15.550 -0.1784  0.0762  0.1341
 7646W        W27180   1.465  17.259  14.690  0.0303  0.4855 -0.0930
 7647W        W27181   3.108   5.371  13.776  0.1636  0.0983  0.1178
 7648W        W27182  12.832   7.384   2.239 -0.1284  0.0254  0.0541
 7649W        W27183   0.368  13.669  11.234 -0.2020  0.0873  0.3256
 7650W        W27184  14.410   8.991  14.812  0.0071  0.3205 -0.0166
 7651W        W27185   1.147   2.278   1.344  0.0994  0.1422 -0.2337
 7652W        W27186  13.131  13.418   5.435  0.0032 -0.0383  0.3464
 7653W        W27187  16.223   6.258  13.437 -0.0268 -0.1856  0.1568
 7654W        W27188  14.670  17.767   3.975 -0.1870 -0.3056  0.0499
 7655W        W27189   0.293   2.580   3.058  0.0488 -0.0805  0.0452
 7656W        W27190   0.446   3.255  13.797 -0.2769  0.1242 -0.3507
 7657W        W27191   7.157   4.669   5.146  0.0852  0.4599  0.0730
 7658W        W27192   5.849   2.634   1.622  0.2756  0.0847 -0.0826
 7659W        W27193  17.961   0.958  12.011 -0.0383 -0.3021  0.0969
 7660W        W27194  15.571   3.700  14.150 -0.2319  0.1897 -0.0140
 7661W        W27195  14.102  15.512   4.582 -0.1339  0.0025  0.2124
 7662W        W27196  15.803   2.825   3.072 -0.1074 -0.0264  0.1689
 7663W        W27197   7.435  15.546   1.022 -0.0781 -0.2170  0.0192
 7664W        W27198   5.905   3.696  15.519  0.3046  0.1208 -0.2196
 7665W        W27199  10.452  11.291  14.716  0.1388 -0.0455  0.0970
 7666W        W27200   2.147   7.868  14.696  0.0527  0.0552 -0.0942
 7667W        W27201  11.842  13.272   0.764 -0.2943  0.1102 -0.2198
 7668W        W27202  15.792  14.772   2.846  0.0328  0.2572 -0.0856
 7669W        W27203  10.744   7.918   3.902 -0.3220  0.2158 -0.1665
 7670W        W27204   7.590   3.193   0.797 -0.3751  0.2382  0.0832
 7671W        W27205   5.924   7.414  15.044 -0.3039 -0.2723 -0.2686
 7672W        W27206   7.864   5.022   0.671 -0.0107  0.0518  0.1704
 7673W        W27207   6.955   4.737  12.430  0.1640 -0.0776 -0.1482
 7674W        W27208  12.016   9.399  14.848  0.1129 -0.3592 -0.0077
 7675W        W27209   5.714   0.451   3.449 -0.0852 -0.1946  0.0115
 7676W        W27210   0.089   8.515  13.549 -0.2552  0.1172  0.0213
 7677W        W27211   2.179  14.621   2.051 -0.0371  0.1778 -0.0578
 7678W        W27212  18.295  14.465   2.436  0.0177  0.1385  0.1606
 7679W        W27213   3.080  10.482   3.899  0.4562  0.0154 -0.0663
 7680W        W27214   4.575  13.006  11.913 -0.0854 -0.3583 -0.2527
 7681W        W27215  13.699  17.916  14.593  0.0039  0.1726 -0.0779
 7682W        W27216  14.956  12.652  13.002 -0.2050 -0.3169  0.1669
 7683W        W27217  10.015   6.444  14.956  0.1275 -0.3497 -0.0159
 7684W        W27218  15.904  17.943   3.188  0.0797 -0.1260  0.0024
 7685W        W27219   3.515   4.154   3.576  0.1488 -0.1140 -0.3209
 7686W        W27220  10.805  13.734  11.534  0.1012  0.4860  0.2776
 7687W        W27221  10.323  16.127  13.544  0.0046 -0.1999 -0.3023
 7688W        W27222  12.029   9.226  13.060  0.1323  0.2279  0.2309
 7689W        W27223  15.619   8.407   1.456  0.0392  0.0387 -0.1611
 7690W        W27224   5.293   8.900   1.533  0.1300  0.0843 -0.1934
 7691W        W27225  15.466  12.536   2.242  0.2708  0.1940  0.3458
 7692W        W27226  11.854   1.391   0.935  0.0336 -0.0130  0.2675
 7693W        W27227   4.447   0.824  12.699 -0.1507 -0.0220 -0.3590
 7694W        W27228  16.981   7.816  14.871  0.0452  0.2541 -0.0110
 7695W        W27229   1.947   4.082  13.151  0.1955  0.0464 -0.2602
 7696W        W27230  15.112  15.074  13.403 -0.0182  0.3389 -0.0629
 7697W        W27231   9.905   9.781  12.621 -0.3309 -0.0764  0.1155
 7698W        W27232  15.235   7.066  12.785  0.2429 -0.0757 -0.2889
 7699W        W27233   4.729   7.165   3.629 -0.1991  0.1429  0.0009
 7700W        W27234  14.963  17.137   4.535  0.2781 -0.0795  0.0923
 7701W        W27235   4.498  10.977  11.573  0.3810  0.1088  0.0159
 7702W        W27236  17.115   5.719   1.737 -0.0838 -0.0655  0.3666
 7703W        W27237  12.423   7.926   3.523 -0.2404  0.0911  0.1311
 7704W        W27238   7.661  17.489  13.901 -0.0846  0.2993 -0.0072
 7705W        W27239   9.557   1.575  12.754  0.3800  0.3468 -0.0335
 7706W        W27240  13.176   8.391  12.069  0.2013 -0.0418  0.0301
 7707W        W27241  11.443   2.891  14.861  0.1087 -0.0223 -0.0164
 7708W        W27242   0.301  17.256  11.785 -0.1472 -0.0725 -0.0185
 7709W        W27243  18.390   5.890  11.717  0.0061  0.0562 -0.1504
 7710W        W27244   4.170  10.880   2.224  0.1950 -0.1862 -0.0106
 7711W        W27245   4.659  10.355   3.064  0.1587  0.0166 -0.0734
 7712W        W27246  15.169  15.828   3.402 -0.2991 -0.2364 -0.1872
 7713W        W27247   4.551  14.337   0.135 -0.0315  0.2825 -0.0407
 7714W        W27248   3.576  17.994  12.619 -0.0459 -0.1301 -0.0254
 7715W        W27249   7.971  16.231   2.496  0.0138 -0.1408  0.2062
 7716W        W27250   4.539   1.379  15.145  0.1522  0.1934 -0.3084
 7717W        W27251   5.289  14.937   3.741 -0.0059 -0.2404  0.1950
 7718W        W27252  18.329  16.377   1.397  0.0587 -0.0422 -0.0468
 7719W        W27253   5.290  18.068   1.382 -0.5023  0.0344  0.0508
 7720W        W27254   4.704  15.865   4.434  0.4535  0.0352  0.0168
 7721W        W27255   0.772   4.922  15.608 -0.0023 -0.1538  0.1718
 7722W        W27256   7.049  14.382   2.687  0.1630 -0.1623 -0.0597
 7723W        W27257   9.920   7.375   0.186  0.1012 -0.0602 -0.2137
 7724W        W27258  11.924   7.266  10.497 -0.0815 -0.0149 -0.4010
 7725W        W27259  13.181   6.700  13.130  0.1448  0.4418 -0.0864
 7726W        W27260   2.246   3.713  13.046 -0.0974 -0.0526  0.0310
 7727W        W27261  16.532   3.011  11.704 -0.0588  0.0046  0.1719
 7728W        W27262   5.013   0.938   1.587  0.0795  0.0297 -0.0508
 7729W        W27263   7.949   4.849  13.201 -0.3587 -0.2282  0.0330
 7730W        W27264   7.671   6.941   0.883  0.1559  0.1277 -0.2745
 7731W        W27265   4.574  10.205  13.663 -0.3366 -0.0515 -0.1301
 7732W        W27266  18.017   5.073   0.355  0.0052 -0.3011 -0.1860
 7733W        W27267  17.032   3.942  11.256  0.0223 -0.0278  0.0542
 7734W        W27268   7.746   5.131   3.518  0.0662  0.4196  0.0043
 7735W        W27269   3.623  11.022  15.673 -0.0111  0.2536 -0.0244
 7736W        W27270   5.532  13.652   4.865  0.1544 -0.1405 -0.3088
 7737W        W27271   9.810  13.432  14.476 -0.0178 -0.0530 -0.2869
 7738W        W27272   8.983   9.151  15.834 -0.2832  0.0770  0.0006
 7739W        W27273   6.912   7.976   3.811  0.2991  0.0941 -0.0663
 7740W        W27274  11.064   5.552  15.783  0.2788 -0.1792 -0.3682
 7741W        W27275  11.858   9.307   0.396  0.0710  0.3704 -0.0049
 7742W        W27276  10.963  12.160   2.168  0.0500 -0.2350  0.0913
 7743W        W27277   5.736  17.384   3.268  0.1437  0.0292  0.0310
 7744W        W27278   1.516  13.418  13.900 -0.0429 -0.1442  0.1101
 7745W        W27279   9.900  16.333   2.817 -0.1051 -0.2510 -0.0025
 7746W        W27280   9.579  14.664   2.826  0.0404 -0.3523  0.1334
 7747W        W27281  10.524  10.839  13.246  0.0920 -0.0577  0.1345
 7748W        W27282   9.298   2.524   0.828 -0.1176 -0.2677  0.1970
 7749W        W27283   5.162   5.750  15.267  0.2148  0.3499 -0.1790
 7750W        W27284   4.540   7.885   2.485 -0.0203  0.5450 -0.2702
 7751W        W27285   1.424  10.307  12.381  0.0461 -0.3653  0.1468
 7752W        W27286   9.491  17.983   0.672 -0.2472  0.0201  0.0082
 7753W        W27287   2.757  10.513  12.930 -0.3984 -0.1383 -0.0776
 7754W        W27288   7.580  13.282   1.292 -0.0863 -0.0154  0.0605
 7755W        W27289   7.021   3.668   4.577 -0.0705  0.1087 -0.4272
 7756W        W27290  12.556   4.321  14.567  0.2569  0.0401 -0.1815
 7757W        W27291   3.965   9.765   4.505  0.2539  0.3754 -0.0110
 7758W        W27292  14.019   6.282  11.341 -0.3533 -0.0485  0.1667
 7759W        W27293  15.604  10.076   3.272 -0.2107  0.0498 -0.0795
 7760W        W27294   9.885   4.202  15.244 -0.1231 -0.1320 -0.2414
 7761W        W27295   5.378   6.662   0.118  0.0286  0.0841 -0.0522
 7762W        W27296   5.921   8.811  15.488  0.0266 -0.0019 -0.0532
 7763W        W27297  16.130   0.584   3.354  0.1329  0.0277  0.1092
 7764W        W27298   8.592   5.105  14.486 -0.1702 -0.0052 -0.0890
 7765W        W27299   6.135   6.612  12.153 -0.0782  0.1358 -0.2745
 7766W        W27300   0.269   0.331   0.131 -0.0190 -0.2081 -0.3756
 7767W        W27301   1.309  17.007   3.002  0.2447 -0.0734  0.2346
 7768W        W27302   2.886   5.790   3.059 -0.0381  0.0003 -0.0573
 7769W        W27303  16.847   9.203   2.727  0.0051  0.2093  0.2090
 7770W        W27304  17.049   3.942  11.745 -0.1109  0.3129 -0.0024
 7771W        W27305   8.374  11.861  12.317 -0.0671 -0.2137 -0.0885
 7772W        W27306  11.147  17.107   0.309 -0.0095  0.0562  0.2729
 7773W        W27307  12.252  14.371  15.226  0.0596  0.0112  0.3943
 7774W        W27308   9.268   7.380  14.858  0.4423 -0.0927 -0.0834
 7775W        W27309  17.035   6.660  13.941 -0.1267  0.1444  0.2709
 7776W        W27310   8.620   5.099  15.075 -0.0444 -0.3639  0.1945
 7777W        W27311  12.444   1.645   1.915  0.3341 -0.0861  0.0870
 7778W        W27312   4.437  17.682  11.309  0.0058  0.0543  0.1229
 7779W        W27313  14.131   1.158   1.358  0.0537  0.0280  0.0406
 7780W        W27314   0.769   1.082  13.989 -0.0890  0.1218 -0.1353
 7781W        W27315   4.843   6.145  11.078  0.1641  0.1206  0.1616
 7782W        W27316  13.574   5.223  10.139 -0.0992  0.0417  0.0463
 7783W        W27317  13.661  14.906  13.769  0.0260  0.1382  0.3203
 7784W        W27318   2.402  16.712   4.799  0.4749 -0.0798 -0.2160
 7785W        W27319   3.487   0.053   1.744 -0.0688 -0.2968 -0.2805
 7786W        W27320   5.080   9.855  15.353 -0.2319  0.0806 -0.1711
 7787W        W27321  10.741   7.412  15.607 -0.0629  0.0111  0.2756
 7788W        W27322  17.151   6.041  13.759 -0.0450  0.3213  0.1146
 7789W        W27323  10.497   1.558   2.116 -0.1221 -0.0597 -0.0155
 7790W        W27324   6.554  17.229  13.531 -0.3004 -0.2669 -0.1775
 7791W        W27325   0.254   3.628   1.674 -0.3085 -0.3660 -0.3739
 7792W        W27326  14.879  13.826  14.603  0.0303  0.0644  0.0433
 7793W        W27327   4.574   6.877  12.259 -0.5962 -0.0396  0.0208
 7794W        W27328  17.028   0.593   0.539 -0.1613 -0.0844  0.0214
 7795W        W27329   2.666   5.437  12.039  0.0430  0.0609  0.2626
 7796W        W27330  14.790  16.415   0.356 -0.1755 -0.0876 -0.0329
 7797W        W27331   8.303  15.036   1.763 -0.3724 -0.2917  0.3158
 7798W        W27332  15.893  16.295  15.105  0.0689 -0.1390  0.0297
 7799W        W27333   1.769  10.702   0.666  0.0971  0.2208 -0.0348
 7800W        W27334   7.114   7.666  13.602  0.0745  0.0956  0.1716
 7801W        W27335  14.004  15.742  13.909 -0.4164 -0.0314  0.1797
 7802W        W27336   9.982  12.299  11.192 -0.2159  0.0716 -0.1371
 7803W        W27337   5.361   3.539  15.624  0.0019  0.0479 -0.1283
 7804W        W27338  12.018   8.467  14.889  0.1285 -0.1721  0.1642
 7805W        W27339   5.602  15.171   4.057 -0.0511  0.0057 -0.0414
 7806W        W27340   2.569  15.391   4.335 -0.1457 -0.2998  0.0547
 7807W        W27341   0.246  14.495   0.309  0.0214  0.0097 -0.2142
 7808W        W27342   8.966   4.857  13.045  0.1048 -0.2888  0.0437
 7809W        W27343   7.410   2.366   4.007  0.0971 -0.0984 -0.1019
 7810W        W27344  17.759  16.393  15.765  0.1533  0.0689  0.0391
 7811W        W27345  17.110   9.945  14.269  0.2189  0.3924 -0.3036
 7812W        W27346  11.323  11.523   3.530 -0.2045  0.2748 -0.0662
 7813W        W27347   1.246   6.015   3.408 -0.0706  0.1461 -0.1024
 7814W        W27348   3.665  13.095   1.551 -0.0028 -0.5000  0.0206
 7815W        W27349  18.017  12.888   1.804 -0.1247 -0.2685  0.0020
 7816W        W27350   2.920   5.777  13.553  0.0231 -0.0757  0.0287
 7817W        W27351  14.898  17.879   2.975 -0.4208 -0.1357 -0.0265
 7818W        W27352  10.617   5.393   0.283  0.0607 -0.0583 -0.0578
 7819W        W27353   4.096  17.052   3.229 -0.1372 -0.2084 -0.0620
 7820W        W27354  17.906  15.869   0.899 -0.1074  0.1276  0.1948
 7821W        W27355   3.269   1.463  15.535  0.1885  0.1599 -0.1041
 7822W        W27356  12.527  12.910   2.229 -0.1301  0.1021 -0.0881
 7823W        W27357   5.016  16.802  11.779  0.2156 -0.0676 -0.1493
 7824W        W27358   9.225  18.400   2.346  0.1750  0.0752  0.3981
 7825W        W27359  14.388   9.890  14.168  0.0556  0.0639 -0.0935
 7826W        W27360   4.355  10.301  15.402 -0.0434 -0.1145 -0.4595
 7827W        W27361   8.701  12.689  11.858  0.1079  0.0046  0.0391
 7828W        W27362   7.446  13.262   0.717  0.3799 -0.0795  0.0922
 7829W        W27363   3.777  16.632  13.932  0.0710 -0.0840  0.2250
 7830W        W27364   9.339  13.948   4.829  0.2054  0.1433 -0.1398
 7831W        W27365   3.103   1.522   1.011  0.3679 -0.3447  0.1490
 7832W        W27366  17.210  11.826  11.508 -0.0162 -0.2946  0.1130
 7833W        W27367   2.335  12.345  13.836 -0.0628  0.2068 -0.0707
 7834W        W27368  11.209  16.458   4.641 -0.0073 -0.1956 -0.0530
 7835W        W27369   4.332   3.691   2.905 -0.2689  0.2621 -0.4096
 7836W        W27370  11.923   7.920   3.291 -0.0773  0.0299 -0.1067
 7837W        W27371   5.875   4.392  13.992  0.2063  0.2654  0.1713
 7838W        W27372   8.571   9.135   2.014  0.0624 -0.0586 -0.0338
 7839W        W27373  16.095  12.099  14.848 -0.2718  0.3014 -0.1019
 7840W        W27374  15.025  18.276  14.933 -0.2280 -0.1490 -0.2528
 7841W        W27375   6.848   6.120   2.774  0.0935 -0.0903  0.0236
 7842W        W27376   6.137   7.786   2.259  0.0819 -0.0435 -0.0157
 7843W        W27377   6.934   5.888   2.044  0.2998 -0.3521 -0.0138
 7844W        W27378   3.796  15.602   2.707  0.3154  0.0572  0.1129
 7845W        W27379  14.775   7.599   2.135  0.0914 -0.1175  0.0523
 7846W        W27380   2.594  16.922   0.650 -0.1309  0.1288 -0.0928
 7847W        W27381   6.566  13.816  13.377 -0.2991  0.0648 -0.0717
 7848W        W27382   4.052  14.424  14.915  0.0339 -0.2980  0.1159
 7849W        W27383  14.192  13.073  12.473 -0.0333 -0.3084  0.5393
 7850W        W27384  16.975  13.013   0.030  0.0085  0.0585  0.2220
 7851W        W27385  14.152   3.885   0.602 -0.3167 -0.3568  0.3218
 7852W        W27386  15.957  17.009   0.878  0.0393 -0.0704  0.1213
 7853W        W27387  12.732   7.815  15.684  0.2958 -0.0884 -0.1246
 7854W        W27388  16.794   4.740  12.148  0.3372 -0.1230 -0.0028
 7855W        W27389  15.677  17.962   0.635  0.1673 -0.1410  0.0984
 7856W        W27390   4.968   5.507   3.836 -0.0923 -0.3840 -0.0139
 7857W        W27391   9.283  17.846   0.004 -0.2145 -0.2328  0.2397
 7858W        W27392   2.287   1.023  14.962  0.1047  0.2408 -0.0972
 7859W        W27393  10.754   4.849  13.586  0.1500 -0.0755  0.2408
 7860W        W27394   3.808  12.241  13.697 -0.0435 -0.0191 -0.2715
 7861W        W27395  11.302   4.110   0.119  0.0159 -0.4136 -0.0431
 7862W        W27396   0.504  13.337   2.238 -0.1132  0.2564 -0.1813
 7863W        W27397  17.882   0.561   0.059  0.0312 -0.2479  0.0205
 7864W        W27398   6.702  10.813  13.682  0.0400  0.0582 -0.1470
 7865W        W27399  12.342   0.425  15.391  0.1322  0.1599  0.0556
 7866W        W27400  17.297  11.307  15.712  0.0305 -0.0380 -0.0697
 7867W        W27401  16.379  10.460  13.600 -0.3982  0.0815  0.1807
 7868W        W27402  13.527   0.119   1.946 -0.0379  0.1022  0.2279
 7869W        W27403   5.598   8.703  14.428  0.1590 -0.0897 -0.0511
 7870W        W27404   3.730  17.638   0.776  0.0122  0.1013 -0.3961
 7871W        W27405  12.784  14.187   2.077  0.1175  0.1571 -0.2149
 7872W        W27406   9.263   1.524   4.087 -0.2732  0.2614 -0.0271
 7873W        W27407   3.465   4.170  10.494  0.0667  0.0999  0.0212
 7874W        W27408  13.886  12.742   3.006  0.2959 -0.0541 -0.0438
 7875W        W27409   3.117   8.168   2.830  0.1379  0.2358  0.1297
 7876W        W27410   0.345   9.085  11.582 -0.1628  0.1142 -0.4237
 7877W        W27411   8.822   4.272  15.691 -0.2200 -0.2649  0.0873
 7878W        W27412  17.549   4.526  14.609 -0.2524  0.0063 -0.1642
 7879W        W27413   0.311   1.313   4.646 -0.0232  0.1361  0.0243
 7880W        W27414   4.691   2.146  14.531  0.0635  0.2696  0.1294
 7881W        W27415  17.509   8.405   1.761 -0.2788  0.1426 -0.2565
 7882W        W27416  17.877   2.302  11.304  0.0460  0.2612 -0.1374
 7883W        W27417   3.999   2.887  15.636 -0.3224 -0.1146 -0.1952
 7884W        W27418   1.686  15.605   0.187 -0.0071 -0.2069  0.1476
 7885W        W27419   0.135  11.319  13.643  0.3587 -0.0530  0.3936
 7886W        W27420   8.648  12.191   0.407 -0.0172  0.2933  0.2611
 7887W        W27421  11.448   6.909   0.405  0.0868  0.1623 -0.3223
 7888W        W27422   3.825  11.513  13.656  0.1146  0.3386  0.0578
 7889W        W27423   8.462   1.426   0.281  0.1361 -0.1826 -0.3948
 7890W        W27424   0.470  17.448   3.418  0.0798  0.1568 -0.1087
 7891W        W27425   9.323  14.413  12.080 -0.1115 -0.0916  0.3171
 7892W        W27426   1.478   6.594  14.529  0.3636  0.1233  0.2394
 7893W        W27427  13.965   5.207   0.852  0.0935  0.2816 -0.2446
 7894W        W27428   2.941  15.224  14.939 -0.1290 -0.0949 -0.4160
 7895W        W27429   3.130   4.454   2.876  0.3285 -0.0183 -0.1167
 7896W        W27430   7.730  16.394   0.889 -0.4024 -0.1418  0.1721
 7897W        W27431   8.219  15.507  14.898 -0.2181  0.0290  0.0115
 7898W        W27432  17.514  13.038   3.261  0.7333 -0.0739 -0.1007
 7899W        W27433  12.523   8.879  13.038 -0.1106  0.0001 -0.1120
 7900W        W27434  10.217  10.566   4.916  0.0252 -0.0083  0.0341
 7901W        W27435   6.538  12.882   0.934  0.1723  0.0517 -0.1843
 7902W        W27436   6.122   2.401   2.943  0.1490 -0.2464  0.1850
 7903W        W27437  14.325  11.957  11.721  0.2156 -0.0075 -0.1610
 7904W        W27438  11.373  16.771   3.825  0.0871 -0.1412 -0.0068
 7905W        W27439  13.134  18.335  14.049 -0.1760 -0.2092  0.1853
 7906W        W27440  16.031  13.941   2.719  0.1672  0.0088 -0.0372
 7907W        W27441  11.041  15.137  15.814  0.0659  0.0671  0.0387
 7908W        W27442   4.289  16.248  13.659  0.2059  0.1299  0.1272
 7909W        W27443   8.674   0.853   4.073 -0.1488 -0.0073  0.1012
 7910W        W27444   5.083   8.005   0.386  0.0996 -0.0197 -0.2059
 7911W        W27445   1.468  12.213  13.366  0.1557 -0.1534 -0.2693
 7912W        W27446  14.001  12.510   4.195 -0.2301 -0.1972 -0.0214
 7913W        W27447  15.643   7.147  14.942 -0.0422 -0.3139 -0.1586
 7914W        W27448  12.363   5.669  13.487  0.0070 -0.0537 -0.2645
 7915W        W27449   1.891  14.880  15.266 -0.3035 -0.0390 -0.2096
 7916W        W27450   1.015   0.683  14.817  0.0483 -0.2965 -0.0308
 7917W        W27451   1.654  14.320  15.118  0.1672 -0.1191 -0.1038
 7918W        W27452  10.865  14.674   4.242 -0.3653 -0.0527 -0.0535
 7919W        W27453  17.942   3.515  14.760  0.1600 -0.0835  0.2035
 7920W        W27454   4.012  11.541   4.268  0.0451 -0.1471  0.0029
 7921W        W27455  12.061   0.978   3.682  0.1144  0.3912 -0.2061
 7922W        W27456   2.282  16.193  11.564 -0.1745 -0.2498  0.0369
 7923W        W27457  16.161  12.946   2.680 -0.0873 -0.0041  0.0519
 7924W        W27458   2.793  14.069  11.560  0.0459  0.0446 -0.1719
 7925W        W27459  15.742   2.025   1.345 -0.0413 -0.0158  0.1188
 7926W        W27460  13.700   9.388  11.496 -0.2358  0.1251 -0.0732
 7927W        W27461  14.260   1.018   3.307 -0.1682 -0.1429  0.0609
 7928W        W27462   7.866  16.878  11.631 -0.0466 -0.2493 -0.0082
 7929W        W27463  13.307   1.244  14.306 -0.2649 -0.1728 -0.0757
 7930W        W27464  13.336   2.857   4.096  0.3465 -0.0353 -0.1326
 7931W        W27465   1.105   5.188  15.047  0.2680 -0.1032 -0.1912
 7932W        W27466  16.714   8.697  11.034  0.0195  0.1299  0.1240
 7933W        W27467   5.511   1.318   1.818 -0.0800 -0.0581 -0.2278
 7934W        W27468   0.318   4.187  14.717 -0.0095  0.1830 -0.3394
 7935W        W27469   1.498   9.128   1.820 -0.0877 -0.0088 -0.0651
 7936W        W27470   7.962   6.346  14.525  0.0194  0.2867 -0.1826
 7937W        W27471   1.751   1.268  12.352 -0.0641  0.0207  0.1431
 7938W        W27472   6.926  11.490   1.515  0.0125 -0.1175 -0.0366
 7939W        W27473  11.514   3.683   0.002  0.1583  0.0800  0.2414
 7940W        W27474   2.747  15.408   0.177 -0.0654 -0.0169  0.2580
 7941W        W27475   0.835   8.862  14.293  0.1388  0.4453  0.1370
 7942W        W27476  16.063  18.397  15.394  0.1785  0.1022 -0.0386
 7943W        W27477   9.243   6.590   1.729  0.1580  0.4308 -0.1812
 7944W        W27478  13.317   0.191   4.625 -0.0658  0.2182  0.0231
 7945W        W27479  14.198  13.377  11.560 -0.0669  0.1684  0.2423
 7946W        W27480   1.082   1.327   0.997 -0.2552  0.1632  0.0081
 7947W        W27481   6.712  15.889   4.483  0.0371 -0.0620 -0.0287
 7948W        W27482  15.447   2.624  14.046 -0.2922 -0.2098  0.3481
 7949W        W27483   2.599   6.116  14.828  0.0223  0.1779 -0.0015
 7950W        W27484  10.575   1.088   3.515 -0.1118 -0.0136  0.2111
 7951W        W27485   3.534   6.373   3.362 -0.1856 -0.3995  0.2071
 7952W        W27486  11.538  11.731  15.719 -0.0690  0.0380  0.1640
 7953W        W27487   6.457  11.023   2.344 -0.1744  0.1154  0.0579
 7954W        W27488   0.954  15.564  13.984  0.3184  0.1891  0.0225
 7955W        W27489  17.174  13.182   2.244 -0.3460 -0.0083  0.0243
 7956W        W27490   9.321   4.035   0.265 -0.1361 -0.0513  0.1606
 7957W        W27491   9.689  15.169   3.959 -0.0612 -0.0351 -0.3620
 7958W        W27492   0.853   8.606   2.853 -0.0065  0.0812 -0.0813
 7959W        W27493  11.548  14.522   3.218  0.0501 -0.3450 -0.0164
 7960W        W27494  14.001   3.309  12.407 -0.2438  0.0292 -0.2695
 7961W        W27495   9.993  16.720  11.783  0.0508 -0.2025  0.0855
 7962W        W27496   3.932   3.218  15.269  0.1531 -0.2173 -0.0250
 7963W        W27497   6.893  15.140  14.065  0.1123 -0.0165  0.2728
 7964W        W27498  14.378  18.098   3.294  0.0912  0.0861 -0.0151
 7965W        W27499   0.565   5.339   1.448 -0.2959  0.3000 -0.0973
 7966W        W27500   0.017   4.131  11.342 -0.2535  0.0800 -0.0377
 7967W        W27501  16.812   0.967   0.201 -0.1554 -0.0977 -0.0213
 7968W        W27502  13.568  13.193   0.218  0.2312  0.2212 -0.1299
 7969W        W27503  18.395   7.132   3.501  0.2009  0.3238  0.2602
 7970W        W27504  10.598   1.253   1.072 -0.3316 -0.1166  0.0097
 7971W        W27505   4.713   7.999  15.286 -0.1545 -0.1534 -0.2050
 7972W        W27506  13.329   1.456   0.893 -0.1453 -0.1056  0.1890
 7973W        W27507   9.922  16.392  12.856  0.2962  0.0809 -0.1143
 7974W        W27508  15.989   2.452   1.484 -0.1826  0.0943 -0.0648
 7975W        W27509   7.117  13.214  12.968 -0.0818 -0.0892 -0.0618
 7976W        W27510  11.748   9.223  11.380 -0.1374 -0.3254  0.1336
 7977W        W27511  10.277   5.449  12.523 -0.4019  0.2634 -0.1691
 7978W        W27512   6.813   9.298   1.737  0.0935  0.3258  0.0576
 7979W        W27513  17.412  11.672  11.964 -0.2326  0.0372  0.0400
 7980W        W27514   1.528  12.691  15.405  0.1075 -0.1412 -0.0359
 7981W        W27515  12.046  16.381   4.233  0.2490  0.0674  0.1650
 7982W        W27516   0.861   5.168   2.950  0.0696  0.0099 -0.1323
 7983W        W27517  12.579   5.577   4.327 -0.2051  0.3651  0.3249
 7984W        W27518   2.342  13.147   1.496  0.3795 -0.4562 -0.0456
 7985W        W27519  10.157   6.767   3.302 -0.2771 -0.1339  0.0376
 7986W        W27520   6.397   9.672   3.063 -0.0231 -0.1584 -0.3875
 7987W        W27521  16.446   7.299   0.080  0.1393 -0.0296 -0.0566
 7988W        W27522  17.091  15.068   1.289 -0.1162 -0.2548 -0.0845
 7989W        W27523   3.742  13.009  13.878 -0.1520 -0.1684  0.0109
 7990W        W27524   0.447  15.274  15.529 -0.2907  0.1711  0.0751
 7991W        W27525  10.817  16.914  15.054 -0.1052  0.0325  0.1139
 7992W        W27526  17.364  13.353  13.069  0.2169  0.0615 -0.1291
 7993W        W27527   4.576  10.576   3.871 -0.1998  0.0103  0.0753
 7994W        W27528   3.608  14.050   1.802  0.2709  0.1357 -0.0384
 7995W        W27529   6.060  17.763   3.423  0.2352 -0.3793  0.3435
 7996W        W27530   1.323  10.470   0.657  0.0295  0.2671 -0.0150
 7997W        W27531   9.613  15.458   4.387  0.1668 -0.1074 -0.1076
 7998W        W27532   4.679   1.516  12.021  0.0649 -0.2105  0.1987
 7999W        W27533   7.329   1.883   3.165  0.0091 -0.2622  0.1623
 8000W        W27534   3.966   3.088   2.137  0.4074  0.1587 -0.1677
 8001W        W27535  17.620   3.875   3.593  0.0023  0.0046  0.1132
 8002W        W27536  14.126  15.095   2.402  0.0071  0.1100  0.1622
 8003W        W27537  16.956  10.841   5.502 -0.1452  0.1613  0.0523
 8004W        W27538   5.399  13.454  11.415 -0.3512  0.3095  0.1800
 8005W        W27539  18.112   2.845  10.222  0.0842 -0.0123 -0.1225
 8006W        W27540  10.135   4.773   1.940  0.0222 -0.0391  0.1040
 8007W        W27541   7.699   0.657  12.586 -0.0986  0.1116 -0.3880
 8008W        W27542  17.436  17.352   2.558 -0.0245 -0.0819 -0.2717
 8009W        W27543  11.333   4.715  13.601  0.1830 -0.2825 -0.0616
 8010W        W27544  13.372   0.049   0.804 -0.0804  0.3430  0.1548
 8011W        W27545   1.313   1.792   4.705 -0.1280 -0.1163  0.0860
 8012W        W27546  10.624   3.640   4.118  0.2108  0.2794 -0.2291
 8013W        W27547  15.617  17.186  11.279  0.3041  0.0197 -0.2794
 8014W        W27548  14.111  16.166   6.088  0.0195 -0.1301  0.3717
 8015W        W27549   1.410   8.760   3.588 -0.2950 -0.3848 -0.2978
 8016W        W27550  13.401   9.258  13.488 -0.0266 -0.0028  0.2247
 8017W        W27551  17.820   5.479  14.989  0.1060 -0.0836  0.1152
 8018W        W27552   7.601  13.492   0.204  0.1064  0.0714 -0.1695
 8019W        W27553  17.678   5.674  14.478 -0.1289 -0.0299 -0.1114
 8020W        W27554  10.091   2.902  15.211  0.0001 -0.2060  0.4258
 8021W        W27555  18.125  14.477  13.203 -0.0155 -0.2402  0.2257
 8022W        W27556  10.784  13.843   4.557  0.2324  0.0127  0.4563
 8023W        W27557   4.300   7.789   2.040  0.1030  0.0442  0.1810
 8024W        W27558  17.959  10.391  11.227  0.2929 -0.1548  0.0162
 8025W        W27559   5.997   4.358  12.700 -0.1166 -0.2345 -0.0940
 8026W        W27560   9.938   8.372  15.281 -0.0047 -0.1956  0.0011
 8027W        W27561   1.393   0.495   0.483  0.0310 -0.3155  0.1503
 8028W        W27562  10.469  15.379   5.152 -0.1635  0.3157  0.0673
 8029W        W27563   3.408  11.575   2.476  0.0752  0.1894  0.0083
 8030W        W27564  13.068  13.744  15.086  0.2063  0.1487  0.0650
 8031W        W27565  17.135  11.336  14.744  0.0826 -0.0077 -0.0632
 8032W        W27566   6.655  10.052  12.239  0.2569 -0.0384 -0.1711
 8033W        W27567   6.693   9.303   3.123  0.2660 -0.1191  0.0170
 8034W        W27568  16.583   6.827  12.778  0.0040  0.2174  0.1904
 8035W        W27569   7.667  14.538  11.577  0.1774 -0.0193  0.0485
 8036W        W27570  16.486  11.008  15.350  0.0727  0.3399 -0.0103
 8037W        W27571   5.839   2.581   3.407  0.0101  0.0571  0.1626
 8038W        W27572  12.129  14.490   3.105  0.0793 -0.1207  0.1001
 8039W        W27573  12.948   0.344  13.876 -0.0404  0.0600  0.1511
 8040W        W27574   9.437  11.127  13.800  0.3955 -0.4317 -0.2053
 8041W        W27575  11.548   5.614   0.723  0.2243 -0.0361  0.0319
 8042W        W27576  18.037   4.254  11.636  0.1175  0.1108 -0.0437
 8043W        W27577  12.478  16.879   4.629 -0.1410  0.0896 -0.2539
 8044W        W27578  13.024  10.630   4.199 -0.0561  0.2682  0.1011
 8045W        W27579   1.620   2.203  12.413 -0.1165 -0.4094 -0.0273
 8046W        W27580   6.332   9.423  11.383  0.0671 -0.0136 -0.0316
 8047W        W27581   1.030  17.383  14.144  0.2714  0.2534 -0.0887
 8048W        W27582   5.977  14.465   3.770  0.2263 -0.1377  0.2580
 8049W        W27583  16.791  13.059  11.430 -0.0835 -0.2304 -0.0849
 8050W        W27584   3.764  14.398   5.386  0.1343 -0.1985  0.1112
 8051W        W27585   6.331   2.678  14.825 -0.2160  0.1141  0.1337
 8052W        W27586  12.115  12.759  14.870  0.2988  0.1518 -0.2583
 8053W        W27587  10.463   1.189  11.037 -0.1159 -0.0059  0.4373
 8054W        W27588   4.215   4.523   0.228 -0.2542 -0.0682  0.2059
 8055W        W27589  14.735  12.138   3.737 -0.0430  0.1446 -0.2545
 8056W        W27590   3.974   4.338  12.555  0.0381  0.0495  0.4299
 8057W        W27591  16.206   8.967  11.540 -0.2007  0.0515 -0.0307
 8058W        W27592   6.569   5.943   1.254 -0.0239 -0.0571 -0.4439
 8059W        W27593   2.776   3.168   4.249  0.1564 -0.1263 -0.0050
 8060W        W27594  10.599   8.700  11.686 -0.0212 -0.0158  0.2576
 8061W        W27595   5.430  16.726  14.531  0.0846  0.0302  0.3883
 8062W        W27596   5.742   3.765  13.139 -0.0074  0.1224 -0.3413
 8063W        W27597  16.212   6.026  12.868 -0.3960  0.0026 -0.1170
 8064W        W27598  12.146  10.712   4.202  0.3033  0.1844 -0.1158
 8065W        W27599  10.430  14.093  15.190 -0.0585  0.1471 -0.0321
 8066W        W27600  10.936  12.263   1.291 -0.0619 -0.1062  0.1227
 8067W        W27601  10.022  15.717  11.441  0.0609  0.1391 -0.0384
 8068W        W27602  16.076   3.114  11.499  0.1327  0.1811 -0.1437
 8069W        W27603   8.590   3.309   2.387 -0.0214 -0.1200 -0.0314
 8070W        W27604  17.672   3.170  12.264  0.0040  0.4437 -0.1395
 8071W        W27605   8.636  15.981   5.942 -0.0619  0.0608  0.1272
 8072W        W27606   1.134   7.901   5.308  0.0703 -0.1291 -0.3421
 8073W        W27607   0.691  14.558   0.071  0.1407 -0.2121  0.3921
 8074W        W27608  15.874   2.796  14.146  0.1484 -0.1590 -0.2491
 8075W        W27609   7.912  12.576   0.698  0.3831  0.0253 -0.0456
 8076W        W27610   1.763  11.945  11.105  0.0382  0.1452 -0.2331
 8077W        W27611   3.873  10.203   5.169  0.0149  0.1670 -0.3701
 8078W        W27612  14.998  10.662   1.222  0.2470 -0.0403  0.0445
 8079W        W27613   9.340  12.884  13.073 -0.0704  0.0864 -0.0599
 8080W        W27614  12.422  10.953   1.091 -0.0139  0.1186  0.1652
 8081W        W27615  13.198   8.347  13.507 -0.2805 -0.1647 -0.2019
 8082W        W27616  11.834   3.433   0.369 -0.3539  0.0771  0.1452
 8083W        W27617   8.952   2.806   5.109 -0.0225  0.0898 -0.0540
 8084W        W27618   6.746   7.609  15.564 -0.2030  0.0672  0.0629
 8085W        W27619   4.344  13.280   0.984  0.0948 -0.1259  0.0303
 8086W        W27620   4.516  13.079  13.865 -0.0883 -0.0743 -0.2369
 8087W        W27621   4.578   0.036  15.467  0.3032  0.3627 -0.0383
 8088W        W27622   0.218   2.984   0.632 -0.2067  0.0542  0.2021
 8089W        W27623   4.912   2.411   1.677 -0.0147  0.1942  0.2602
 8090W        W27624  13.279   6.039  11.758 -0.0533  0.1406 -0.0297
 8091W        W27625   1.191  10.962   2.718  0.1823  0.0581 -0.0428
 8092W        W27626  13.379   6.031   2.420  0.1681  0.3037  0.2594
 8093W        W27627   7.648   9.256  15.437  0.0911  0.1419 -0.0090
 8094W        W27628  13.663   7.753   1.280 -0.1898  0.2853  0.2495
 8095W        W27629   3.367   6.729  15.724  0.0604 -0.1387  0.1710
 8096W        W27630   4.270  10.953   3.657  0.0785 -0.1957 -0.0049
 8097W        W27631   4.800  16.173  10.735  0.1386  0.1857 -0.0344
 8098W        W27632   1.338   9.104  14.146  0.2170 -0.1738  0.2161
 8099W        W27633   1.767  10.284   3.751  0.1918 -0.1137  0.0901
 8100W        W27634  17.877  13.176   2.841 -0.0934 -0.1198  0.1827
 8101W        W27635  14.714  10.928  13.032 -0.1073  0.0008 -0.1676
 8102W        W27636   7.465  17.330  10.352  0.1458 -0.1977 -0.1739
 8103W        W27637   7.879   0.347  11.389 -0.0879  0.0550  0.0333
 8104W        W27638   4.598  16.242  14.339 -0.0669  0.0448  0.1110
 8105W        W27639  15.438  17.790   0.209  0.0271  0.2685 -0.2584
 8106W        W27640   5.361   1.683  14.905 -0.0015  0.0417  0.1625
 8107W        W27641   9.132   8.958   4.048  0.0926 -0.1029 -0.1527
 8108W        W27642   7.811  14.472  13.284 -0.0047  0.2510 -0.0105
 8109W        W27643  10.872  16.425   3.827 -0.3064  0.6151  0.1710
 8110W        W27644   7.900   4.155   2.850  0.1221 -0.0547 -0.2107
 8111W        W27645   5.812  10.324  12.371 -0.1214  0.1519  0.3648
 8112W        W27646  15.641   0.359   0.307  0.0909  0.0126 -0.2431
 8113W        W27647   2.047  15.373  14.142  0.1677 -0.0594 -0.1450
 8114W        W27648   7.635   3.686   2.136  0.0272 -0.0138  0.1874
 8115W        W27649   0.713  13.336  12.819 -0.0023  0.0198  0.3641
 8116W        W27650  12.229  15.377  15.617  0.0948 -0.0440  0.0105
 8117W        W27651   7.774  15.021  11.318 -0.0035  0.1134 -0.2014
 8118W        W27652   1.369   8.386  14.805 -0.0625 -0.2131 -0.0546
 8119W        W27653  11.212  13.997  14.642  0.2716 -0.0821  0.3335
 8120W        W27654  14.646  13.848  10.882  0.2231  0.2946  0.2105
 8121W        W27655   6.628   3.785   4.267 -0.1797 -0.1114 -0.1983
 8122W        W27656  14.000  16.857   4.726 -0.1417 -0.0964 -0.3663
 8123W        W27657   3.210   1.850  12.497  0.0444  0.3194 -0.1583
 8124W        W27658   4.558  18.007  14.861  0.0333 -0.1285 -0.0766
 8125W        W27659  13.131   5.904  12.639 -0.1730  0.0913 -0.1025
 8126W        W27660  11.492  12.910  13.733  0.0704 -0.0776  0.0362
 8127W        W27661   3.358  10.857  15.294 -0.0111  0.1525  0.2108
 8128W        W27662   6.144   0.160  14.963 -0.0908  0.1155 -0.2034
 8129W        W27663  15.157  15.007   1.394  0.3833 -0.3142 -0.2279
 8130W        W27664  17.437   5.632  12.358  0.1329  0.2526  0.0049
 8131W        W27665   8.604   7.051  13.613 -0.1068  0.1115  0.1312
 8132W        W27666   1.461   6.972  11.622  0.1086 -0.0254 -0.1395
 8133W        W27667   2.672   3.485   2.276  0.3014  0.1463 -0.3612
 8134W        W27668   1.440  13.642   1.082 -0.2639  0.1454  0.2603
 8135W        W27669  17.054   5.866   0.993  0.2120 -0.2982 -0.1349
 8136W        W27670   4.800   6.175  11.791  0.3585  0.1294 -0.2451
 8137W        W27671  15.807   3.889  11.019  0.1183  0.0117  0.1013
 8138W        W27672   3.887  14.275   3.877 -0.4264 -0.1343  0.1062
 8139W        W27673  13.883   4.161   0.869 -0.0668  0.1050  0.2255
 8140W        W27674   5.307   9.759   2.667  0.3352 -0.1186  0.2416
 8141W        W27675   7.318   4.962   0.205  0.0708 -0.1927 -0.0946
 8142W        W27676  17.471  16.395   2.956  0.0248 -0.0410  0.3624
 8143W        W27677  15.225  13.356   1.504 -0.0535 -0.0435 -0.0414
 8144W        W27678  13.675   1.547  13.985 -0.1038 -0.1437  0.0650
 8145W        W27679  10.489   0.199   3.731 -0.3467  0.0059 -0.1293
 8146W        W27680  12.386  16.588   1.309  0.1669  0.0013  0.1594
 8147W        W27681   9.315  18.362  11.512 -0.2481  0.0217  0.0375
 8148W        W27682   7.766   1.653  12.980 -0.0978  0.1762  0.1710
 8149W        W27683   0.089   8.526   0.438  0.1988 -0.0872 -0.0833
 8150W        W27684  13.771   9.891   0.061 -0.3832  0.0994  0.1645
 8151W        W27685  15.419  16.446  14.026  0.0304  0.0849 -0.0143
 8152W        W27686   5.404  13.702   3.525 -0.0721 -0.0854 -0.0340
 8153W        W27687   2.342   0.139   0.334 -0.1675 -0.0269  0.0905
 8154W        W27688  14.831   8.136   2.017  0.1394 -0.0124 -0.1453
 8155W        W27689  10.923   4.371  13.740 -0.0313 -0.5393  0.0770
 8156W        W27690   5.819   9.597  11.992 -0.1553 -0.6374  0.0271
 8157W        W27691   5.639  10.468  13.715  0.1551  0.2106  0.1030
 8158W        W27692   4.984  15.683   2.982 -0.2043 -0.0734 -0.1987
 8159W        W27693   0.862  10.061  15.520  0.0810  0.1084 -0.0106
 8160W        W27694   6.839   4.258   0.745 -0.1010 -0.1766 -0.4501
 8161W        W27695   0.238   5.830  15.143  0.2620 -0.0054 -0.1841
 8162W        W27696  14.980   4.633  13.316 -0.1800 -0.0316  0.1115
 8163W        W27697  17.015  15.434  15.670 -0.1530 -0.1023 -0.1196
 8164W        W27698  10.167  11.136   0.316 -0.3002 -0.2458 -0.2823
 8165W        W27699   3.902  14.097   0.862 -0.1241 -0.0360  0.1015
 8166W        W27700   3.941   0.148  15.493 -0.0035  0.4120 -0.0118
 8167W        W27701  16.078   2.483   4.085  0.1577 -0.0590 -0.3301
 8168W        W27702   7.489  12.150   0.340 -0.3603 -0.4332  0.0243
 8169W        W27703  16.993   0.509  15.817 -0.0535 -0.0711  0.1040
 8170W        W27704   4.642   9.472   2.767  0.5544 -0.0340 -0.3607
 8171W        W27705   9.025   4.642  12.575  0.0804  0.1606 -0.0528
 8172W        W27706   8.361  16.612  14.961 -0.0248 -0.1559 -0.1007
 8173W        W27707   6.952  17.756   3.229  0.0503  0.3405  0.1459
 8174W        W27708  13.054   9.482   4.551  0.1866 -0.0093  0.0313
 8175W        W27709   9.354  13.236   2.254 -0.1602 -0.1188 -0.2298
 8176W        W27710  14.550  16.317   1.888 -0.0953  0.2783 -0.1097
 8177W        W27711  16.045   6.737  13.538 -0.0187  0.2125  0.0145
 8178W        W27712  17.363   6.179   1.860 -0.0291 -0.1175 -0.6204
 8179W        W27713  12.813   6.906  15.035  0.1483  0.0443  0.0615
 8180W        W27714   8.316  16.619   1.634  0.0029 -0.2121  0.0110
 8181W        W27715   4.782   9.170  13.875  0.0095 -0.0446  0.3810
 8182W        W27716  14.436   6.538   1.898  0.1594 -0.1790  0.1910
 8183W        W27717   1.848   8.155  12.699 -0.0044  0.0794  0.0940
 8184W        W27718  13.843  16.517  12.853 -0.1795  0.3328 -0.3850
 8185W        W27719   3.866   5.463  15.720  0.0800 -0.0431 -0.2073
 8186W        W27720  16.472  13.071  15.707  0.1986 -0.1837  0.0144
 8187W        W27721  15.961  17.952   1.090  0.1369  0.0611  0.4033
 8188W        W27722   4.414   6.092   4.508 -0.0127  0.1857  0.3047
 8189W        W27723  10.136  10.487  11.000  0.0488  0.0822  0.1827
 8190W        W27724  14.344  11.562  15.713  0.1755  0.0229  0.1114
 8191W        W27725   2.586   0.658  11.030 -0.2784 -0.3702  0.2293
 8192W        W27726   3.178   0.884   3.539  0.0641 -0.2206  0.1561
 8193W        W27727  14.053  14.854  13.368 -0.1521  0.1486  0.0894
 8194W        W27728   0.407   0.017  14.281  0.0585  0.3793 -0.1571
 8195W        W27729  14.249  16.536  12.014  0.2184  0.0339 -0.0110
 8196W        W27730  11.977   0.338  15.030  0.0180 -0.0720  0.0342
 8197W        W27731   5.529  12.201  14.739  0.0431 -0.1418  0.0016
 8198W        W27732   5.667   9.801  15.182  0.1079  0.2711 -0.0649
 8199W        W27733   0.647  11.730   2.888 -0.1092 -0.0669 -0.1563
 8200W        W27734  18.324  17.119   5.511 -0.2576  0.0132 -0.0609
 8201W        W27735  10.676   2.800   2.051  0.2880 -0.3225 -0.1071
 8202W        W27736  10.716   4.768  15.384  0.3211  0.1166  0.2949
 8203W        W27737   4.471   8.634   3.164  0.0946 -0.1362  0.0050
 8204W        W27738   5.656   9.471  13.881  0.1223 -0.0787 -0.0108
 8205W        W27739  17.548  17.807   2.781  0.2465 -0.1034  0.1114
 8206W        W27740   5.510   1.919   1.099  0.1855  0.1487 -0.0981
 8207W        W27741   5.811  13.744  14.490  0.1345 -0.0380  0.1054
 8208W        W27742  11.573   7.402   1.771 -0.1240  0.2104 -0.0129
 8209W        W27743  17.639   9.083  11.275 -0.0823 -0.0722  0.1913
 8210W        W27744  15.668  13.834   0.455  0.1333  0.0131  0.0074
 8211W        W27745   1.023  17.952  13.436 -0.0701 -0.1123 -0.1150
 8212W        W27746   5.495  11.332  13.393 -0.1503 -0.0989 -0.0316
 8213W        W27747   9.805   9.048   2.445 -0.4991 -0.1558  0.1738
 8214W        W27748  12.035  11.018   2.222  0.3193 -0.3026  0.0678
 8215W        W27749  17.553  11.628   2.133  0.2883  0.4211 -0.1484
 8216W        W27750  14.463  18.209  11.912 -0.3381 -0.1250 -0.0656
 8217W        W27751   7.988   4.541   2.511 -0.0891  0.1093 -0.3579
 8218W        W27752  15.574   0.043   1.844 -0.0305  0.0035  0.0713
 8219W        W27753   3.195   2.085   3.074 -0.0620 -0.1679 -0.1973
 8220W        W27754   3.138   3.116   3.009  0.2791 -0.3023  0.1574
 8221W        W27755  11.898   2.450   1.394 -0.1908 -0.3374 -0.0755
 8222W        W27756  12.451   9.555   2.827 -0.2492 -0.3883  0.1157
 8223W        W27757   3.258   4.628  11.795 -0.3184  0.0472 -0.2086
 8224W        W27758   4.804  17.226   5.129  0.3525 -0.0698  0.0586
 8225W        W27759   9.049   3.579  11.560 -0.0590  0.0682  0.0695
 8226W        W27760  17.512   0.100  15.162 -0.2130  0.0037  0.1010
 8227W        W27761   0.669  14.478  13.368  0.6519 -0.0921 -0.0935
 8228W        W27762   1.764  16.012   4.536 -0.0552 -0.3661  0.0683
 8229W        W27763   8.900  15.255  15.270 -0.0366  0.0939  0.0273
 8230W        W27764  11.043   6.593   3.490  0.4617 -0.1105 -0.1894
 8231W        W27765   7.003   3.900  11.321  0.0217  0.0967  0.2582
 8232W        W27766   9.114   6.529  13.677 -0.2054 -0.0288 -0.3037
 8233W        W27767   2.948  14.800   0.958  0.1528  0.1195 -0.2394
 8234W        W27768   0.183  15.941   4.445 -0.0860 -0.2305 -0.0360
 8235W        W27769   4.439   1.372  11.472 -0.1105  0.4902 -0.3300
 8236W        W27770   3.815  13.867  13.460  0.0317  0.1787 -0.1472
 8237W        W27771   8.519  13.073  12.208  0.3051 -0.2519  0.0348
 8238W        W27772   4.541  11.872  10.061  0.1693  0.0405  0.0198
 8239W        W27773  16.549   4.450  13.491 -0.1167 -0.0655 -0.2051
 8240W        W27774   7.818   5.269   5.025  0.0456 -0.1961 -0.1040
 8241W        W27775  12.907  14.777  12.580  0.0137  0.0749  0.0526
 8242W        W27776   4.720   4.256  13.768 -0.0225  0.1249 -0.0784
 8243W        W27777  15.059  17.512   3.379 -0.4047  0.6171 -0.0989
 8244W        W27778   8.825   8.599  11.789 -0.0916  0.2182  0.0191
 8245W        W27779   1.208   5.100  15.672 -0.2672 -0.1217 -0.1821
 8246W        W27780   6.836   3.959   2.548  0.2686  0.2343  0.3593
 8247W        W27781  11.543   0.750   1.078 -0.1630  0.3092 -0.1580
 8248W        W27782   2.567   1.061  11.379 -0.1449  0.2541  0.0142
 8249W        W27783  18.380  15.157  12.139 -0.1169  0.2475  0.2454
 8250W        W27784  15.679  16.543   0.867  0.1264  0.1208 -0.1085
 8251W        W27785   3.681   1.026  14.804  0.2256  0.1313 -0.3654
 8252W        W27786   7.374   1.840  11.270  0.4792  0.1671  0.1609
 8253W        W27787   7.474  14.070   3.651 -0.3456  0.0382 -0.1328
 8254W        W27788  12.606  13.042   0.280  0.3430  0.2458 -0.2244
 8255W        W27789   9.622   5.340   0.223 -0.2139  0.0733  0.0624
 8256W        W27790   1.253   2.291   4.821  0.2246 -0.0430 -0.0033
 8257W        W27791  10.929  15.122   0.520 -0.0538  0.2379  0.3442
 8258W        W27792  11.209   9.902  13.264  0.0536  0.2391  0.1129
 8259W        W27793  10.031  17.246   2.414  0.0399 -0.3599 -0.5400
 8260W        W27794  18.179  16.771  10.478  0.5415 -0.0021 -0.3490
 8261W        W27795  15.910   5.468  13.998  0.1382  0.1327  0.1709
 8262W        W27796   0.097   8.158  13.914 -0.0850 -0.0329  0.2677
 8263W        W27797  13.610   1.345   1.427 -0.3181 -0.0517  0.4333
 8264W        W27798  13.140  10.328  14.399  0.0367 -0.0375 -0.1080
 8265W        W27799   2.651  16.999  12.841 -0.3001 -0.0856  0.0713
 8266W        W27800  13.745  16.046  11.944 -0.5018 -0.1557 -0.2758
 8267W        W27801   8.933  12.826   2.340  0.0254  0.2214  0.4745
 8268W        W27802   4.804  13.138   4.556 -0.1056 -0.1150  0.0326
 8269W        W27803   2.755  16.922  14.690 -0.0377 -0.0063 -0.0249
 8270W        W27804  11.760   9.849  11.274 -0.1582  0.0640  0.1259
 8271W        W27805  13.708  14.311   2.155  0.2412  0.1312  0.1685
 8272W        W27806   5.267  13.177   2.718 -0.0639 -0.2642 -0.0936
 8273W        W27807  11.153  11.330   4.416  0.1090 -0.0518  0.0555
 8274W        W27808   7.860  15.025   3.855 -0.1849  0.0976  0.0875
 8275W        W27809  17.246   9.709   1.054  0.0859 -0.1153 -0.3112
 8276W        W27810   5.940  15.328  12.801 -0.1554  0.2500  0.1668
 8277W        W27811   8.846   5.381  11.154  0.5459 -0.1340 -0.1812
 8278W        W27812  10.889   0.728  15.302  0.1085  0.1794  0.0080
 8279W        W27813  13.275  14.663   4.021  0.0725 -0.1109 -0.2765
 8280W        W27814  12.439  10.289  12.911  0.0159 -0.2436  0.2687
 8281W        W27815   1.738   2.784  13.626 -0.0170  0.1004 -0.0637
 8282W        W27816   8.017  18.250  11.402  0.2638 -0.5037  0.1358
 8283W        W27817  12.315   2.262   3.116 -0.2566 -0.0073 -0.0511
 8284W        W27818   3.546  15.275   1.733 -0.0365  0.1702  0.3534
 8285W        W27819   9.009   2.170   1.093  0.0994 -0.0950  0.2557
 8286W        W27820  14.215   6.598  14.948 -0.2738 -0.2637 -0.2478
 8287W        W27821  13.384  10.680  10.952 -0.1280 -0.0115  0.2897
 8288W        W27822  12.483   9.398   3.340  0.2986 -0.1062 -0.0843
 8289W        W27823  15.563   8.311  15.282 -0.4870 -0.0591 -0.4730
 8290W        W27824  18.310   7.038  12.985  0.4137  0.1871  0.1822
 8291W        W27825  15.468  13.825   2.783  0.0932  0.0108 -0.1846
 8292W        W27826  17.136   8.073  15.302  0.2265 -0.0149 -0.3031
 8293W        W27827  17.214   7.990   3.618 -0.0901  0.0078  0.0609
 8294W        W27828  17.038  17.627  13.196  0.1696 -0.0578  0.1309
 8295W        W27829   4.674   4.355  11.947  0.0556 -0.0561 -0.3038
 8296W        W27830  14.400   9.637  12.481  0.0559 -0.0366  0.0588
 8297W        W27831  13.764  16.831   3.999 -0.1742  0.0320  0.1048
 8298W        W27832   5.254   6.082  12.179  0.2087  0.1490 -0.3095
 8299W        W27833  18.069  15.040   1.342 -0.0476  0.2602 -0.1114
 8300W        W27834   1.338   7.358  11.264 -0.1366  0.1405 -0.0438
 8301W        W27835  13.602  13.043   3.286  0.0181 -0.0120  0.1546
 8302W        W27836  11.438  15.599   2.813 -0.3252 -0.2900 -0.2889
 8303W        W27837   5.964  11.431  13.667  0.2231  0.1948 -0.0161
 8304W        W27838  16.370   6.512  15.405 -0.1572  0.2043 -0.0225
 8305W        W27839   6.527   6.457   2.585 -0.0441 -0.2692  0.0068
 8306W        W27840  14.976   4.070  12.736 -0.3674  0.0221  0.1040
 8307W        W27841   1.048  17.459   2.822 -0.0118 -0.0696 -0.1462
 8308W        W27842  14.792   8.280   4.607 -0.0886  0.1482  0.2165
 8309W        W27843   7.821   4.438  12.923 -0.0454 -0.2576  0.1828
 8310W        W27844   0.965   5.257   0.265  0.1000  0.3391 -0.0185
 8311W        W27845   9.628  15.011   3.278  0.2277 -0.0199 -0.1413
 8312W        W27846   5.346   0.101   3.820 -0.2572 -0.2237  0.0208
 8313W        W27847   3.556   5.371   0.548  0.0811 -0.1171  0.0929
 8314W        W27848  13.947  12.876   0.080  0.1008 -0.1203  0.1505
 8315W        W27849  17.955  16.030   1.362 -0.0726  0.2288  0.1205
 8316W        W27850  13.775  16.440   3.533 -0.1323  0.1198 -0.1775
 8317W        W27851   0.815   9.276  11.330  0.0180 -0.1590  0.0645
 8318W        W27852  18.401  11.297  14.465 -0.1560  0.2509  0.0341
 8319W        W27853  14.616   5.171  15.726 -0.1265  0.1041  0.1351
 8320W        W27854   1.074   3.022  10.698  0.1404  0.0144 -0.0891
 8321W        W27855   3.217  15.977  13.229 -0.2892 -0.1646 -0.1750
 8322W        W27856  16.326   2.977   0.797  0.2513 -0.2706  0.1829
 8323W        W27857   9.330  15.125  13.574  0.4660 -0.0689  0.2079
 8324W        W27858  12.264  13.972  11.619 -0.6027  0.0204  0.2132
 8325W        W27859   0.187  12.750  13.733 -0.0324  0.1879 -0.1601
 8326W        W27860  18.093  12.815   5.512  0.1328  0.0043 -0.1019
 8327W        W27861  11.594   1.816  12.116  0.1640  0.1504 -0.2663
 8328W        W27862  11.986  15.982   3.863  0.0316 -0.1576  0.1020
 8329W        W27863  17.297   7.514  10.467 -0.1424  0.1236 -0.1477
 8330W        W27864  14.401   7.526   2.766 -0.2027 -0.2386 -0.0309
 8331W        W27865  17.675  12.736  12.897 -0.1503  0.1003 -0.0271
 8332W        W27866   4.376   2.083   0.303 -0.0012  0.1438  0.0064
 8333W        W27867   6.708  17.262   2.582 -0.0242  0.0542  0.1628
 8334W        W27868  13.689  15.092   1.545 -0.1461  0.0439  0.1904
 8335W        W27869   2.213  15.041   2.347 -0.0581  0.0081  0.1894
 8336W        W27870   9.184  14.594   4.107 -0.1586  0.4013 -0.0432
 8337W        W27871   5.098   3.677   2.107  0.0402  0.1461  0.1213
 8338W        W27872  17.593  15.557  15.096  0.0102  0.1747 -0.0036
 8339W        W27873  16.174   7.844  15.332 -0.2289 -0.2138  0.0033
 8340W        W27874   3.326  17.079  14.105  0.0398  0.1746 -0.0246
 8341W        W27875   5.048   5.920   1.979  0.0114 -0.1989  0.0787
 8342W        W27876  17.036   7.898  14.332  0.0015 -0.0301  0.1242
 8343W        W27877   2.339   0.715  13.216  0.0254  0.0163 -0.0784
 8344W        W27878   1.916   6.991  14.843  0.0121  0.2787 -0.1090
 8345W        W27879  12.624  10.511   2.062 -0.0281  0.1871 -0.0020
 8346W        W27880   6.039   8.348   2.151 -0.0470 -0.3025 -0.1468
 8347W        W27881   1.124   6.238   0.375  0.1840 -0.0493 -0.0436
 8348W        W27882   0.311  15.541   1.368  0.0624 -0.0921  0.1728
 8349W        W27883   3.891  17.239  14.120  0.1086 -0.1723 -0.2245
 8350W        W27884  17.867   9.905  15.775  0.0936 -0.1668 -0.0153
 8351W        W27885   5.539  10.262   0.248  0.0808 -0.1034 -0.0898
 8352W        W27886   1.135   0.500  11.573 -0.0428  0.1635 -0.1501
 8353W        W27887  13.092   8.520   0.710  0.0332  0.0787 -0.1661
 8354W        W27888  14.878  11.566  13.024  0.1103  0.0585  0.2449
 8355W        W27889  12.428  13.623  15.723  0.0894 -0.3903 -0.2429
 8356W        W27890   8.371   8.498  14.154 -0.2373 -0.0356 -0.0331
 8357W        W27891   1.183   1.140   4.976 -0.0244  0.1038 -0.0722
 8358W        W27892   9.239  13.349   0.612 -0.2397  0.1155  0.0708
 8359W        W27893   5.800   7.940  15.090 -0.0820 -0.3352 -0.0760
 8360W        W27894   6.060   4.487   3.920  0.1550 -0.1577  0.0960
 8361W        W27895   3.554   5.088   0.090  0.0628  0.4387 -0.1260
 8362W        W27896  13.466   7.693  12.738  0.5191 -0.1211  0.2332
 8363W        W27897   1.076  10.023   0.723  0.1163  0.0087  0.0676
 8364W        W27898   4.993  12.377   3.752 -0.1207 -0.3651 -0.0711
 8365W        W27899  13.280   5.996   3.051  0.0878 -0.0168  0.2115
 8366W        W27900  15.726   5.821  12.761 -0.2277  0.1993  0.1016
 8367W        W27901   2.633   1.781   0.379  0.0589  0.1238  0.0570
 8368W        W27902   8.517   5.006  13.258 -0.1146 -0.2343  0.0350
 8369W        W27903   2.915  16.788   4.810 -0.0500  0.0801  0.1830
 8370W        W27904  14.731   9.103  14.266  0.1214 -0.1330 -0.4627
 8371W        W27905   8.130  11.045   3.378  0.3346  0.2044  0.0470
 8372W        W27906   2.928  16.922   1.603  0.2413  0.2284 -0.3778
 8373W        W27907  13.709   4.775  12.027 -0.2904 -0.0887  0.0691
 8374W        W27908   5.115  10.775  12.640  0.2112 -0.2799 -0.3382
 8375W        W27909  15.481  13.273  10.840  0.1163  0.0394  0.1776
 8376W        W27910   4.552   0.369   3.795  0.0586  0.0372  0.3269
 8377W        W27911   3.626  17.464   1.993  0.0407  0.1669  0.1544
 8378W        W27912   8.455  12.217  11.973 -0.0911  0.1982  0.0163
 8379W        W27913   3.530   2.552  13.930  0.4754 -0.0095 -0.2474
 8380W        W27914   2.981   2.492  13.171 -0.3262  0.3035 -0.1881
 8381W        W27915  10.814   6.673  13.713 -0.4391 -0.1162  0.0458
 8382W        W27916  15.841   2.269  11.426 -0.0330  0.1445 -0.0535
 8383W        W27917   5.740   1.938   4.339  0.1541  0.1767 -0.1684
 8384W        W27918  12.169  16.323  13.807 -0.0970 -0.0711 -0.1856
 8385W        W27919  17.965   0.960   5.074  0.1852  0.0014 -0.1482
 8386W        W27920  15.094  15.570   0.042 -0.0168  0.0486  0.0282
 8387W        W27921   5.674  12.905   4.096 -0.0992 -0.0902  0.0995
 8388W        W27922   7.235  13.976   1.902  0.2344 -0.0244  0.0788
 8389W        W27923  17.297   0.600   3.861 -0.0815  0.0635 -0.2759
 8390W        W27924   7.840   8.818  12.462 -0.2635 -0.1184  0.1391
 8391W        W27925   8.152   9.837   2.465  0.0775  0.2239 -0.1421
 8392W        W27926  11.872   1.890  15.728  0.0454 -0.1020  0.1778
 8393W        W27927   4.695   1.551   1.038  0.3593 -0.0771 -0.0049
 8394W        W27928  10.399   3.532   3.394  0.2600  0.0734  0.3047
 8395W        W27929  15.964   9.840  15.253 -0.1584  0.1346 -0.1631
 8396W        W27930   8.311   3.018   1.977  0.2214 -0.1388  0.2582
 8397W        W27931   7.878   4.326  11.329  0.0107 -0.1557  0.2800
 8398W        W27932   3.434  15.866   2.409  0.0405 -0.2262 -0.1357
 8399W        W27933  12.610   3.623   1.067  0.0404  0.0675 -0.0061
 8400W        W27934   8.460  13.545  12.413 -0.1323  0.0843  0.2151
 8401W        W27935  16.478  11.430  14.499  0.2092  0.3155  0.1502
 8402W        W27936   7.134   2.795   1.788  0.2846  0.1562 -0.3628
 8403W        W27937   0.916   4.363  10.020 -0.0323  0.2100 -0.1425
 8404W        W27938  13.349   4.308  12.524  0.1917  0.3656 -0.1642
 8405W        W27939   8.738  10.581   1.693 -0.1408 -0.2065 -0.1551
 8406W        W27940   1.677  15.470   0.942 -0.1456  0.1897 -0.1467
 8407W        W27941   8.012  11.551   1.463  0.4191 -0.1125  0.0290
 8408W        W27942   5.650   8.518  13.810 -0.0059 -0.4896 -0.3119
 8409W        W27943  17.786  10.709  15.037  0.0926 -0.3336  0.0879
 8410W        W27944  16.394   2.319   0.297 -0.2098 -0.0029  0.1184
 8411W        W27945  13.636  15.666   0.298 -0.1859 -0.1380  0.0459
 8412W        W27946   5.900  16.472  14.271 -0.1605  0.0069 -0.1303
 8413W        W27947  11.824  12.705  12.407 -0.1287  0.1017 -0.0640
 8414W        W27948  16.150   1.722  15.282  0.0853  0.0007 -0.0607
 8415W        W27949  11.473  13.159   2.464  0.0332 -0.0500  0.0789
 8416W        W27950   6.581  17.423   4.561 -0.1720 -0.2313  0.0898
 8417W        W27951  11.265   9.694   1.756 -0.1307  0.1284 -0.1636
 8418W        W27952  10.862   5.782  15.417 -0.1275 -0.1423 -0.0101
 8419W        W27953   8.655   5.434   2.196  0.1100 -0.1361  0.0598
 8420W        W27954   4.978   3.155  12.958  0.1194 -0.0490  0.0007
 8421W        W27955   9.455  17.057  11.562 -0.1421 -0.0805  0.0589
 8422W        W27956   8.639   1.092  14.645  0.0172 -0.0994 -0.1120
 8423W        W27957   4.562   1.087   1.349 -0.1536  0.1308  0.2830
 8424W        W27958  10.868   8.594   0.544  0.0678 -0.0168 -0.1732
 8425W        W27959   0.653  16.885   3.117  0.1048 -0.1750  0.2914
 8426W        W27960  13.052   0.356  14.836 -0.0661  0.1027 -0.1181
 8427W        W27961  18.260   3.442   0.505 -0.3568  0.0625 -0.2938
 8428W        W27962   2.871   1.723   3.263 -0.0041  0.1275 -0.1434
 8429W        W27963  15.466   9.682  14.057  0.0885  0.1493  0.0425
 8430W        W27964  16.476   0.919   0.655  0.1452  0.0240  0.1875
 8431W        W27965   4.925  13.327  14.208  0.1592 -0.0405  0.1580
 8432W        W27966   2.231  17.278   0.383  0.2911  0.3194  0.1165
 8433W        W27967  12.981  11.319   0.405 -0.2655  0.1349  0.0869
 8434W        W27968  13.450  13.342   0.679  0.0012  0.1256 -0.0985
 8435W        W27969   6.386   1.517   1.400 -0.2047 -0.0360  0.4478
 8436W        W27970  12.732  12.303  15.734 -0.0385  0.3779  0.2186
 8437W        W27971   3.120   9.469   0.177  0.1383  0.0511  0.1461
 8438W        W27972   5.962  11.264   1.153 -0.2426 -0.1043 -0.2659
 8439W        W27973   4.946  17.973  12.643  0.1894 -0.0266  0.2027
 8440W        W27974   8.982  12.112   0.013 -0.0865 -0.1461 -0.1675
 8441W        W27975  15.314   9.186   1.416 -0.1681  0.2682 -0.2020
 8442W        W27976   6.327  11.701   3.969  0.1788 -0.2943 -0.0584
 8443W        W27977  17.369   6.591   0.645 -0.0000  0.0221 -0.0172
 8444W        W27978  14.417  10.500  13.018 -0.1889 -0.4255  0.0139
 8445W        W27979  16.961  16.200   0.514  0.0580 -0.1128  0.1904
 8446W        W27980   2.273  11.264  14.007 -0.3906 -0.1851 -0.2464
 8447W        W27981  13.388   3.303   1.474  0.3214 -0.0909  0.0926
 8448W        W27982  11.890  17.728   4.859  0.0047  0.0673  0.1778
 8449W        W27983   9.385   3.967   4.351 -0.3141  0.0522 -0.0538
 8450W        W27984  14.651   8.545  11.345  0.3487 -0.0406  0.1744
 8451W        W27985   6.337  11.501   4.447 -0.1026 -0.3121 -0.0457
 8452W        W27986  16.113   2.513  14.572 -0.0316 -0.0846 -0.3086
 8453W        W27987  10.324  18.229   0.282  0.2437  0.0735 -0.0127
 8454W        W27988  11.331  10.941  13.747  0.4003  0.0968  0.3409
 8455W        W27989   9.163  13.423   3.072 -0.1143 -0.0298  0.2297
 8456W        W27990   3.867  15.329   5.658 -0.2698 -0.1420 -0.0333
 8457W        W27991   6.176  14.345   3.194  0.1996  0.3049 -0.1115
 8458W        W27992   3.219  11.177   0.656 -0.1100  0.1122  0.0982
 8459W        W27993   7.987   3.319  14.866  0.1295 -0.0426 -0.1851
 8460W        W27994  10.185   1.070   4.922 -0.1864 -0.0089  0.1237
 8461W        W27995  10.485   3.005   0.725  0.1207 -0.3227  0.0711
 8462W        W27996  16.967   6.136  15.835  0.1398 -0.0482 -0.1663
 8463W        W27997  18.333  14.760  14.451 -0.0889 -0.0983  0.2148
 8464W        W27998   0.426   3.186   4.179  0.2463 -0.0177  0.0726
 8465W        W27999   3.471  10.431  12.697  0.1477  0.2050 -0.1259
 8466W        W28000   6.937  11.682   1.975  0.0888  0.0709  0.0974
 8467W        W28001  16.723   4.891  11.644 -0.2740 -0.0819 -0.2272
 8468W        W28002  10.038   3.414  15.454 -0.0745 -0.0379  0.3833
 8469W        W28003   6.527  12.277   2.940 -0.1553  0.0648 -0.0890
 8470W        W28004   2.200   5.153  11.777  0.3275  0.0456 -0.0251
 8471W        W28005   6.179   6.473  13.112 -0.0905 -0.2503  0.0414
 8472W        W28006  17.842   6.126  14.687 -0.0940 -0.0973 -0.0106
 8473W        W28007  13.749  12.860  14.312  0.1317  0.4012  0.1510
 8474W        W28008   8.699  17.645  15.688  0.0279 -0.0631  0.1009
 8475W        W28009   3.672  17.684  15.166 -0.3200  0.2893  0.1495
 8476W        W28010   2.244  13.204  13.303  0.0543 -0.0721 -0.3366
 8477W        W28011  17.927  13.464   3.896  0.0465 -0.0306 -0.1562
 8478W        W28012  16.673  10.411  12.138 -0.1284  0.3654  0.1232
 8479W        W28013   6.503   7.065   3.706 -0.2748 -0.2422 -0.1166
 8480W        W28014   1.492   0.632  10.540 -0.2430 -0.1642 -0.0494
 8481W        W28015  16.606  15.571   2.348  0.0385 -0.2187 -0.1417
 8482W        W28016   8.881  11.560  13.145 -0.0829  0.1343 -0.1081
 8483W        W28017  13.621  17.547   1.966 -0.3604  0.1987  0.3029
 8484W        W28018  14.065   0.977  11.571 -0.0435  0.2428 -0.2356
 8485W        W28019  14.647   7.624  14.828 -0.0342 -0.0254 -0.1366
 8486W        W28020   0.951   2.250   0.762 -0.1686 -0.1709  0.3384
 8487W        W28021   7.546  12.623  14.727 -0.0130  0.1309 -0.2473
 8488W        W28022   1.369  17.423  13.794 -0.3147  0.0879 -0.0416
 8489W        W28023   7.170  10.951   3.104 -0.0722  0.2853  0.1136
 8490W        W28024   3.870   4.228  13.416 -0.2497 -0.1622  0.3649
 8491W        W28025  16.180   5.934  15.237  0.0301  0.1218 -0.1430
 8492W        W28026  11.712  14.904   1.177 -0.0796 -0.1153 -0.6605
 8493W        W28027   3.235   1.418  12.180  0.1127 -0.0844  0.1566
 8494W        W28028   8.159   6.051   0.659 -0.0389  0.1830  0.1515
 8495W        W28029  13.203   8.209   2.021 -0.0820  0.1254  0.3077
 8496W        W28030   7.164  16.909  13.562  0.2204  0.0532  0.1825
 8497W        W28031   8.415   3.301   3.046  0.0540  0.1653 -0.1275
 8498W        W28032   9.340  17.605  11.749 -0.1310 -0.1043 -0.0482
 8499W        W28033  12.838  13.405  13.392 -0.1354 -0.0061 -0.1669
 8500W        W28034   0.552   7.307  15.682 -0.1644  0.4322 -0.0360
 8501W        W28035   9.598  14.429   1.689 -0.3088  0.1185  0.1095
 8502W        W28036  13.004   8.147  14.442 -0.1711  0.0412  0.1043
 8503W        W28037  10.724   6.870  15.017  0.2993 -0.0001 -0.0693
 8504W        W28038   4.679  10.159  11.565 -0.0195 -0.0009  0.2241
 8505W        W28039  17.985   3.389   3.021 -0.0266  0.0599  0.1936
 8506W        W28040   6.822   8.766   1.580 -0.0362 -0.1976  0.0103
 8507W        W28041   1.106  16.138   3.662 -0.4365  0.2112  0.0254
 8508W        W28042   5.978   5.277  14.637 -0.1428  0.1039  0.0873
 8509W        W28043  14.762   9.807  12.883  0.0681  0.0228 -0.0149
 8510W        W28044   3.392  17.357   0.514  0.3281 -0.2228 -0.0675
 8511W        W28045   5.864  16.578   1.918  0.0632 -0.2492  0.0946
 8512W        W28046  18.377  13.883   1.771 -0.2376 -0.1104  0.0161
 8513W        W28047  14.240   2.536  12.215 -0.1413  0.3172 -0.4313
 8514W        W28048   8.420  10.684   2.212  0.2963  0.0151 -0.2142
 8515W        W28049   2.310  14.631  14.881  0.0592 -0.1980 -0.0516
 8516W        W28050   3.577  10.226  11.359 -0.1089  0.0799 -0.1820
 8517W        W28051  10.998   7.282   3.170 -0.1432 -0.0476 -0.2690
 8518W        W28052  12.690  12.421  14.248  0.0281 -0.0278  0.1627
 8519W        W28053  12.125  17.978   2.942  0.0221  0.2922 -0.2453
 8520W        W28054   7.674  14.922  13.578 -0.0161  0.0765 -0.0330
 8521W        W28055   2.986  15.706  14.151  0.2439 -0.2669  0.1444
 8522W        W28056   2.824   2.621  14.775 -0.1167 -0.2808 -0.2153
 8523W        W28057  18.130   9.374  13.844 -0.3060 -0.0226  0.0079
 8524W        W28058   6.500  10.157   1.789  0.2195 -0.1545 -0.2710
 8525W        W28059   0.828   8.703   3.743 -0.3224 -0.0225 -0.3988
 8526W        W28060  12.920   2.478  13.400 -0.1890  0.0726 -0.1239
 8527W        W28061   3.215   2.359   5.682  0.0205  0.2339 -0.0149
 8528W        W28062  11.221   9.036  11.395  0.0912  0.1677 -0.1879
 8529W        W28063   9.565  10.070   3.873 -0.1111 -0.0386  0.1071
 8530W        W28064   3.002   9.980  10.667 -0.3377 -0.2131  0.2517
 8531W        W28065   8.498  15.636   3.436  0.1334 -0.0160 -0.0579
 8532W        W28066   6.890  17.942  15.106 -0.2583 -0.2103 -0.2717
 8533W        W28067   2.157  14.964   4.971  0.0368 -0.0458 -0.1659
 8534W        W28068  10.812   6.324   4.908 -0.1468 -0.2997 -0.1399
 8535W        W28069  15.391   4.562  12.358  0.0100  0.1151 -0.1753
 8536W        W28070   1.757   1.435   2.146  0.4296 -0.3528 -0.0046
 8537W        W28071  17.595  12.978  15.033 -0.0212 -0.0708 -0.4733
 8538W        W28072   4.739   4.061   4.282  0.1054  0.0443 -0.1993
 8539W        W28073   1.685   9.428   1.006 -0.2563 -0.1934  0.3240
 8540W        W28074   0.554   0.727  15.047 -0.1376  0.0585  0.1588
 8541W        W28075  17.061  11.250   0.657  0.3148  0.0630  0.3098
 8542W        W28076   9.745   2.301   0.717 -0.1734 -0.1382 -0.1961
 8543W        W28077  14.354   6.585   0.700 -0.0274 -0.2514  0.1718
 8544W        W28078  15.159  10.328   0.847  0.0622 -0.1637  0.1597
 8545W        W28079  13.512  12.556   3.318  0.0421  0.0464  0.2582
 8546W        W28080  16.130   5.549  13.139  0.2287 -0.2602  0.1408
 8547W        W28081  17.910  12.479  15.193 -0.0943 -0.2068  0.1309
 8548W        W28082   7.950  12.122   2.642  0.0412  0.1571  0.2717
 8549W        W28083  12.704  13.393  14.500 -0.1006 -0.3526 -0.1293
 8550W        W28084   6.273  12.675  13.308 -0.0872  0.0531  0.1652
 8551W        W28085   1.431   9.583   4.566 -0.1444 -0.0441  0.0410
 8552W        W28086   6.289   2.157   1.378 -0.2162 -0.1384 -0.0319
 8553W        W28087   4.974  13.396   3.589 -0.0509  0.0439 -0.2652
 8554W        W28088  16.498   7.429  13.947 -0.1326 -0.1117 -0.1694
 8555W        W28089  11.393   9.170   0.277 -0.2607 -0.0600  0.1295
 8556W        W28090  11.899  13.144  14.599  0.0104  0.0453 -0.2427
 8557W        W28091  16.986  14.688  15.317  0.0561 -0.0703 -0.0466
 8558W        W28092   3.710  18.254   0.188  0.0957 -0.1298 -0.2519
 8559W        W28093  12.732   7.512  11.576  0.0906 -0.2428 -0.2228
 8560W        W28094   9.504  18.249  14.714  0.0479 -0.1128 -0.1631
 8561W        W28095   6.646  10.125  15.803 -0.0104  0.1004 -0.3191
 8562W        W28096  16.671   8.879   3.461  0.1304  0.1811 -0.2628
 8563W        W28097   3.586  10.126  15.535  0.0525  0.2066 -0.3598
 8564W        W28098   1.237  11.827   3.136  0.3662 -0.0373 -0.0032
 8565W        W28099   1.040  10.730   2.071 -0.0310  0.1855 -0.0893
 8566W        W28100   4.429  16.312   4.216 -0.1518  0.1017 -0.1801
 8567W        W28101   3.476  17.162   4.186 -0.3241  0.1086  0.0860
 8568W        W28102   1.486   4.500   3.043  0.0344  0.0464 -0.0050
 8569W        W28103   2.187  16.279  14.124 -0.0620  0.2081 -0.1201
 8570W        W28104   6.833   9.804   0.762 -0.1031 -0.0038 -0.2694
 8571W        W28105   4.357   3.859   0.691 -0.0975 -0.1349  0.1059
 8572W        W28106  16.039   0.452   3.862 -0.0569  0.2796  0.0297
 8573W        W28107  10.477   7.372  11.528  0.1861  0.0758 -0.0839
 8574W        W28108  18.092  17.022   2.394 -0.0373  0.2363  0.1938
 8575W        W28109  10.855   2.033  14.034 -0.0429 -0.0879  0.1575
 8576W        W28110  18.390   3.945   1.302 -0.0449 -0.0151 -0.0171
 8577W        W28111  16.237   4.915  11.713 -0.3764  0.2105 -0.2960
 8578W        W28112  17.553   7.030  11.236 -0.1113 -0.1154  0.0438
 8579W        W28113   5.613   9.114   4.452 -0.1567 -0.1676  0.0439
 8580W        W28114  14.494  15.810  15.180 -0.0016  0.1676  0.2468
 8581W        W28115  11.189   8.078   3.596  0.1174  0.2322  0.1287
 8582W        W28116  17.800  13.844  12.458  0.1162  0.2033  0.1974
 8583W        W28117   9.766  10.254   1.930  0.3986  0.2578 -0.1248
 8584W        W28118  15.677   0.475  12.015  0.1527 -0.0755  0.0872
 8585W        W28119   7.955   9.115   2.049  0.0774 -0.0315  0.0404
 8586W        W28120  13.467  11.091  12.258 -0.1641 -0.1310 -0.0220
 8587W        W28121   1.293  14.506   3.770  0.2465 -0.0131 -0.0074
 8588W        W28122   4.281  17.107   1.672  0.0505  0.0414 -0.1020
 8589W        W28123  14.460  16.060  11.768 -0.0829  0.3053  0.1430
 8590W        W28124  13.149   6.044  13.125 -0.1210 -0.0838 -0.2699
 8591W        W28125   7.198  10.785  13.573 -0.3121 -0.1448  0.1749
 8592W        W28126  17.230   1.064  15.012 -0.0091 -0.4712 -0.3042
 8593W        W28127  10.850  16.728  13.014  0.1428 -0.2787 -0.0064
 8594W        W28128   9.269  13.135  14.007 -0.0126  0.0855 -0.1261
 8595W        W28129  15.370   1.301   1.719  0.1544  0.0676  0.3336
 8596W        W28130   9.764  16.733  13.211 -0.1491  0.0818  0.0066
 8597W        W28131  11.810  13.484   3.949  0.2295  0.2297  0.2389
 8598W        W28132  18.138  12.510  12.894  0.1030  0.1754  0.2101
 8599W        W28133  17.040   0.437   2.286  0.0540  0.1313  0.1019
 8600W        W28134  12.561   2.261  11.258  0.0657  0.0517  0.0553
 8601W        W28135   4.779   2.858  13.321 -0.0165  0.0362  0.0463
 8602W        W28136   1.396  15.152   2.417  0.2331  0.0103 -0.1355
 8603W        W28137   7.785   0.451   3.025 -0.3600  0.0065  0.2324
 8604W        W28138   9.573  14.736  13.334  0.1081  0.2134 -0.2073
 8605W        W28139  16.580  16.664   3.259  0.2270 -0.0039 -0.1155
 8606W        W28140  11.467  14.977  14.253  0.1992 -0.0781  0.1966
 8607W        W28141   4.728  17.199  14.771  0.0555  0.2516 -0.1745
 8608W        W28142   8.988  15.127  10.442  0.2581 -0.0089  0.0133
 8609W        W28143   1.483  10.981  15.827 -0.0590  0.0338 -0.0373
 8610W        W28144   2.506   1.616  13.379  0.1928 -0.2294  0.5732
 8611W        W28145   1.242   3.318   5.743  0.0876 -0.1496  0.2510
 8612W        W28146   4.593   9.228   0.362 -0.1150  0.3112  0.0576
 8613W        W28147   3.064   3.868   2.225  0.3576  0.1431 -0.0481
 8614W        W28148  14.080   6.061   1.509  0.0714 -0.0992 -0.1771
 8615W        W28149  16.315   0.521  13.084 -0.1920 -0.0194  0.3939
 8616W        W28150   2.764   8.507  15.639 -0.5123  0.2801  0.2540
 8617W        W28151  17.129   4.406   1.803  0.2239  0.2037 -0.0123
 8618W        W28152   7.298   4.472   3.710 -0.1171 -0.0551 -0.0456
 8619W        W28153  14.846  10.255  14.273 -0.2485  0.1707 -0.1770
 8620W        W28154  13.215  12.078  12.673 -0.0773 -0.1873  0.1168
 8621W        W28155   1.377   9.142   1.353  0.0603  0.1225  0.0768
 8622W        W28156  11.034   6.310  11.990 -0.0452 -0.0899  0.1435
 8623W        W28157  12.368  12.586   5.448 -0.1026 -0.0087  0.0187
 8624W        W28158   7.953  13.396  14.714  0.0026 -0.1900 -0.1583
 8625W        W28159   3.203  12.522   2.871  0.0697 -0.1166 -0.0510
 8626W        W28160  11.850  11.286   0.989 -0.0542  0.2688 -0.1235
 8627W        W28161   2.396  14.947   3.968 -0.3627 -0.0540  0.2874
 8628W        W28162  11.758   8.051  15.785  0.0989 -0.1284 -0.2541
 8629W        W28163   7.612  10.410   2.460 -0.2710  0.1732  0.0673
 8630W        W28164   0.023   8.385   3.306 -0.1350  0.1448 -0.0411
 8631W        W28165   5.846   8.193  13.368  0.0317 -0.1964 -0.4635
 8632W        W28166   6.637   2.476  11.203 -0.2485 -0.1857  0.0370
 8633W        W28167   3.148   1.077  14.811 -0.0228 -0.1285 -0.0066
 8634W        W28168  17.174   2.447  13.989 -0.0075  0.2450 -0.2807
 8635W        W28169   0.989   1.957  14.137 -0.0351  0.0478 -0.3229
 8636W        W28170   7.359   8.822  15.132  0.3777 -0.0711  0.0301
 8637W        W28171  11.879   7.669   0.218  0.0862 -0.1372  0.0679
 8638W        W28172   2.155   6.401   2.983 -0.1241 -0.0511  0.2931
 8639W        W28173   2.892   0.644  13.025  0.1476  0.2926  0.3438
 8640W        W28174  11.539   4.586   1.606  0.1083  0.0399 -0.1806
 8641W        W28175   0.711   8.548  15.213  0.1244 -0.0700  0.1226
 8642W        W28176  17.593   6.924   5.192  0.4985 -0.1043  0.2949
 8643W        W28177   3.022  11.982   3.671  0.2851  0.0729 -0.0528
 8644W        W28178   8.345   6.484   4.673  0.3078  0.1300  0.4654
 8645W        W28179   2.568   7.595  12.288  0.1835  0.2481  0.1666
 8646W        W28180   4.210  14.748   0.330  0.2270 -0.1585  0.1135
 8647W        W28181   6.312   1.089  14.207  0.0596  0.1488 -0.0711
 8648W        W28182  11.522   1.664   4.585  0.0749  0.2898  0.0007
 8649W        W28183   6.875  15.162  15.600 -0.3407  0.0452  0.0537
 8650W        W28184  16.512   6.828   3.204 -0.1213 -0.1591  0.1020
 8651W        W28185  11.709   4.650   2.362  0.1590  0.1593 -0.0948
 8652W        W28186  12.474   8.784  14.485  0.0231 -0.1976  0.1337
 8653W        W28187  17.922   6.802  12.774 -0.0341  0.2125  0.1215
 8654W        W28188  14.514  17.776   2.648  0.2047 -0.4221  0.0862
 8655W        W28189   0.532   0.164  13.025 -0.1349  0.0306  0.0831
 8656W        W28190   5.050  16.855   3.596 -0.1944 -0.2110 -0.1327
 8657W        W28191   8.017   8.076  15.634  0.0080 -0.1104 -0.0833
 8658W        W28192  10.612   3.579  13.932  0.0056  0.1879  0.2340
 8659W        W28193   7.678  16.932   4.247 -0.1522  0.2812 -0.2784
 8660W        W28194  12.110   1.491  15.395 -0.1127 -0.1443  0.0383
 8661W        W28195   6.424   4.071   3.355 -0.4721  0.0403 -0.1868
 8662W        W28196   3.607  17.725   4.919 -0.2792  0.1114 -0.0039
 8663W        W28197   2.422  10.930  11.596 -0.0484  0.1043 -0.0386
 8664W        W28198   8.138  12.113   2.070 -0.0277  0.1670  0.1335
 8665W        W28199   6.595   3.710   4.813 -0.3444 -0.0551 -0.0530
 8666W        W28200   9.862   1.698  14.241 -0.0319 -0.4435 -0.1593
 8667W        W28201  17.320   8.967  13.970 -0.0034  0.1320 -0.0753
 8668W        W28202   9.120   2.929   0.599 -0.2213 -0.0682  0.0839
 8669W        W28203   8.333   3.980  13.477  0.1201  0.0895  0.0167
 8670W        W28204  12.942   2.806   1.131  0.0302  0.2354 -0.2373
 8671W        W28205   1.250  11.205  12.415  0.1046 -0.0689  0.0021
 8672W        W28206   9.679  12.725  13.892  0.1014  0.0898  0.1368
 8673W        W28207   2.709  13.201   1.107 -0.1719 -0.0730 -0.1236
 8674W        W28208   9.286  15.536   2.563  0.1103  0.0702 -0.0966
 8675W        W28209   5.353   1.251  15.698 -0.2625 -0.0611 -0.0099
 8676W        W28210   4.470   6.316  14.213  0.1952 -0.2195 -0.1316
 8677W        W28211  12.408   1.265   0.838  0.4636  0.0325  0.4184
 8678W        W28212   1.708  11.801   1.614 -0.1439  0.4060 -0.1450
 8679W        W28213   3.960  16.930  11.789  0.0468  0.2590 -0.0851
 8680W        W28214  14.067  15.418   0.177  0.0032  0.2163  0.2926
 8681W        W28215  13.971   1.743   2.082 -0.4523  0.1562  0.0042
 8682W        W28216  11.800   7.065   3.998 -0.0062 -0.2531  0.4209
 8683W        W28217   0.198   9.853  14.246 -0.2172  0.0165  0.4624
 8684W        W28218  12.887   1.835   2.739  0.3067  0.1152  0.0015
 8685W        W28219  17.849   1.477   3.821  0.0010  0.0420  0.3384
 8686W        W28220  15.625   4.803   1.733 -0.3469  0.0439 -0.0613
 8687W        W28221  10.833   4.195  12.060  0.1970 -0.3718 -0.3204
 8688W        W28222   5.900  11.932  11.235  0.0755 -0.0089 -0.3237
 8689W        W28223   2.330  12.675   3.294 -0.0298 -0.1274 -0.0657
 8690W        W28224   3.335   6.050   3.047  0.1085  0.0080 -0.3124
 8691W        W28225   9.232  10.883   2.732 -0.1857  0.3601  0.0710
 8692W        W28226   7.807   2.056   1.329 -0.2505  0.0594  0.1514
 8693W        W28227   3.111  18.161  12.863  0.0015 -0.0375  0.2254
 8694W        W28228  16.865   2.997   3.316  0.0185  0.0265 -0.2271
 8695W        W28229   2.102   9.092   0.897  0.3595  0.2261  0.0294
 8696W        W28230  14.514  11.624   3.219 -0.0962 -0.0271 -0.1681
 8697W        W28231   5.564  11.131   4.233  0.0864 -0.3710  0.1627
 8698W        W28232   8.684   9.184   3.187 -0.2544 -0.4726  0.1098
 8699W        W28233   4.738   8.197   2.820  0.1342 -0.0455  0.1712
 8700W        W28234   4.915   0.395   5.035  0.0012  0.1862  0.0742
 8701W        W28235   3.680  11.597  13.208  0.3882 -0.1908  0.1038
 8702W        W28236  15.604   0.317   2.289 -0.1262  0.0719 -0.0263
 8703W        W28237  10.618  10.095   1.531  0.0792  0.0453  0.0523
 8704W        W28238   3.524   7.112  13.285 -0.0098 -0.1985 -0.0495
 8705W        W28239   1.802   4.699  11.231 -0.1434 -0.1954 -0.3810
 8706W        W28240  14.048  11.863  14.118 -0.0447  0.0926  0.0118
 8707W        W28241  17.538   7.926  11.123  0.0131  0.1345  0.0642
 8708W        W28242   1.366   7.314   1.899  0.1064 -0.0532  0.1473
 8709W        W28243  15.421   7.959  13.020 -0.1785  0.2034  0.2861
 8710W        W28244  15.368  10.444  15.734  0.0436  0.0530  0.0438
 8711W        W28245   0.714  13.854   3.832  0.0489 -0.0108  0.4560
 8712W        W28246  14.616   9.330  12.859  0.0901 -0.0243  0.1474
 8713W        W28247   5.015   7.843  11.667  0.0210  0.0495  0.0347
 8714W        W28248  17.626  12.006   2.671 -0.2324 -0.0655  0.1447
 8715W        W28249  10.326  14.564   2.830 -0.1010 -0.0178  0.2266
 8716W        W28250  13.170   6.079   4.393  0.0332 -0.0181 -0.0209
 8717W        W28251  14.885   0.986   4.090  0.0263 -0.0116  0.3571
 8718W        W28252  15.028   4.581   4.484  0.0745  0.1403  0.1930
 8719W        W28253  13.421   6.092   0.057  0.0257  0.3131  0.1091
 8720W        W28254   2.950  13.326  11.738 -0.1921 -0.0686 -0.0103
 8721W        W28255   3.471   8.657  15.596 -0.0991 -0.2139 -0.3078
 8722W        W28256  11.207   1.787   2.901  0.3492 -0.2063 -0.3301
 8723W        W28257  15.489  15.660   2.434  0.0962 -0.1631  0.1118
 8724W        W28258  17.898   7.321  12.773  0.2813  0.0615 -0.1375
 8725W        W28259  17.462   6.574  15.549  0.0830 -0.3469 -0.1855
 8726W        W28260   0.702   3.051   0.501 -0.1718  0.0178 -0.2546
 8727W        W28261   6.233  15.539  15.484  0.3249 -0.3818 -0.1172
 8728W        W28262   1.510   0.434  11.314 -0.0922 -0.1508  0.0997
 8729W        W28263   6.624  13.840  11.771  0.0018 -0.4611 -0.0848
 8730W        W28264   9.965   1.376  15.474  0.2316  0.1106  0.2272
 8731W        W28265  16.526   9.131  14.324 -0.1870  0.0160 -0.1003
 8732W        W28266   8.694   5.194  11.781 -0.2150  0.1121  0.2853
 8733W        W28267   9.105   2.383  14.675 -0.2403  0.0466 -0.0144
 8734W        W28268  14.102   3.943   3.911 -0.1212 -0.1360  0.1532
 8735W        W28269  13.364   2.033   2.108 -0.1013  0.1077  0.1813
 8736W        W28270   6.913   0.805  15.610  0.1085 -0.0592 -0.1815
 8737W        W28271   1.316   2.143   4.367 -0.1465 -0.1360 -0.1554
 8738W        W28272   5.895   1.635  15.054  0.2466  0.2874  0.0270
 8739W        W28273   6.510  12.074  13.295  0.1837 -0.1002  0.0732
 8740W        W28274  17.693  13.900   4.205  0.1802 -0.0739  0.0354
 8741W        W28275   9.573   1.676  14.680  0.0617 -0.2418  0.2694
 8742W        W28276  18.045   7.865   3.962 -0.0428  0.1943  0.1587
 8743W        W28277  16.230   3.721   3.312 -0.0060  0.0251  0.4059
 8744W        W28278   2.154  17.165   0.865 -0.0480  0.0073  0.1574
 8745W        W28279  15.858   3.431  10.142 -0.1771  0.0210  0.2165
 8746W        W28280   3.038  18.249   1.913  0.0663 -0.0127  0.1018
 8747W        W28281   1.172  15.955  11.629  0.1864  0.0709 -0.0649
 8748W        W28282  11.714   0.928   0.101  0.1970 -0.0298 -0.0303
 8749W        W28283  16.666  11.569  12.800 -0.0428 -0.0102  0.1358
 8750W        W28284  17.814   7.872  14.576  0.0471 -0.3415 -0.1098
 8751W        W28285   0.129  14.482   1.879 -0.1038  0.4026 -0.1556
 8752W        W28286   6.683   8.476   3.721  0.1110 -0.1930 -0.0395
 8753W        W28287   0.588   2.126   0.451  0.1193 -0.0340 -0.0742
 8754W        W28288   5.580  15.294  12.363 -0.0834  0.1082 -0.2314
 8755W        W28289  10.443  15.045  10.504  0.1923  0.0026 -0.1882
 8756W        W28290  15.927  11.201   4.679 -0.2378  0.3461 -0.2610
 8757W        W28291  10.027  15.500  11.917  0.0455  0.2474  0.1963
 8758W        W28292   3.247   8.725  14.725 -0.2034 -0.0025 -0.2418
 8759W        W28293   4.263   9.951  11.370 -0.1272 -0.0674  0.0758
 8760W        W28294   5.119   2.278   0.822  0.2067  0.1465  0.3318
 8761W        W28295  10.819   5.940  13.051 -0.1062  0.0478  0.0096
 8762W        W28296  10.704  10.452   0.864  0.1561  0.1670  0.1775
 8763W        W28297  18.257  14.175   0.946  0.0225  0.1498  0.1829
 8764W        W28298  13.765  15.963   4.743 -0.1898 -0.1275  0.3038
 8765W        W28299   4.913   1.976   0.421  0.0282 -0.2878  0.0903
 8766W        W28300   8.113   5.172   2.977  0.2199  0.0988 -0.1325
 8767W        W28301   6.209  16.699  13.507 -0.0683  0.0497 -0.2914
 8768W        W28302  16.026   9.302  14.250 -0.0770 -0.0130 -0.1426
 8769W        W28303  18.117   6.145  13.803 -0.0432 -0.2588  0.0191
 8770W        W28304  17.222  10.584   2.955 -0.2576  0.0266  0.1701
 8771W        W28305  11.098  11.023  12.382 -0.3059 -0.0775 -0.1043
 8772W        W28306  17.141   8.531   0.437  0.2717  0.2283  0.2165
 8773W        W28307  11.836  13.239  12.360 -0.2823  0.0823 -0.3030
 8774W        W28308  11.942  17.218   2.437 -0.0123  0.1516  0.1976
 8775W        W28309  14.632   2.959   0.207 -0.2745 -0.0128 -0.1124
 8776W        W28310   7.461   5.194  13.841 -0.0879 -0.2511  0.0038
 8777W        W28311   7.482  15.175  15.312  0.1340 -0.2600 -0.0928
 8778W        W28312   6.437  16.760   3.495 -0.0617  0.0574  0.0037
 8779W        W28313   8.797  15.534   2.464 -0.3445 -0.1573 -0.1095
 8780W        W28314   1.021   3.427  13.849  0.2321 -0.1659  0.2888
 8781W        W28315   5.102  12.164   0.789 -0.0683 -0.1113  0.1758
 8782W        W28316   3.236  13.144  12.989 -0.0102 -0.0533  0.0377
 8783W        W28317   4.477  18.096  12.566 -0.2241 -0.0634  0.1997
 8784W        W28318   0.390   4.874  11.828  0.1834 -0.2465  0.0626
 8785W        W28319  12.683   9.645   1.533  0.3215  0.1279 -0.1874
 8786W        W28320  15.377  12.243  15.187 -0.0763  0.0108  0.0807
 8787W        W28321   7.722   0.269   3.477  0.4107  0.2148 -0.0970
 8788W        W28322  15.182  14.501  10.785  0.2242 -0.0852 -0.0412
 8789W        W28323   6.227   6.579   0.007  0.1792  0.2015  0.4129
 8790W        W28324   0.072   2.359  12.670  0.0461  0.1164 -0.2546
 8791W        W28325   0.171  10.500   3.864 -0.0778  0.0354 -0.1216
 8792W        W28326  13.450   7.222   3.837 -0.1233 -0.0059  0.1038
 8793W        W28327  14.874  10.513   2.923 -0.1303  0.1589 -0.1174
 8794W        W28328  14.722   9.113   2.328  0.1316  0.1254  0.0492
 8795W        W28329   0.373   5.217  12.196 -0.0999 -0.0646  0.1902
 8796W        W28330   7.863  17.272   3.255 -0.2955  0.0488 -0.4299
 8797W        W28331  13.705  12.545  14.877  0.3277  0.2360 -0.2526
 8798W        W28332   8.550   5.569   0.363 -0.2776  0.1252  0.0198
 8799W        W28333  15.581  15.804   3.046  0.2122 -0.2931 -0.3971
 8800W        W28334   4.286   6.214   1.821 -0.2708  0.0953 -0.2157
 8801W        W28335   0.368   3.583  15.584  0.1877  0.2923  0.0478
 8802W        W28336  11.159   8.131  13.605 -0.2860  0.0416  0.1355
 8803W        W28337  15.217  17.199  13.425  0.2555  0.1362  0.1400
 8804W        W28338   8.276  12.932   1.469 -0.0011 -0.4874  0.2363
 8805W        W28339   5.775   9.803  12.483 -0.0866  0.1074  0.0189
 8806W        W28340   1.815   8.245  11.488  0.1656 -0.0934 -0.0002
 8807W        W28341  13.255   4.848   0.336  0.1894  0.1435  0.3221
 8808W        W28342  10.915  17.731   4.794  0.0101  0.0266  0.3041
 8809W        W28343   4.213   8.253  15.527 -0.1756 -0.2638 -0.1393
 8810W        W28344   3.119   7.049  13.549  0.2892 -0.0310 -0.0840
 8811W        W28345  12.656   2.305  12.613 -0.0298 -0.1344 -0.0216
 8812W        W28346   9.081   5.816   3.245 -0.0592  0.1977  0.3348
 8813W        W28347   2.516  10.770   3.364  0.0924  0.0684  0.0054
 8814W        W28348  11.966   8.766  14.475 -0.1753 -0.0173 -0.0795
 8815W        W28349   4.057  10.364   3.621  0.0583 -0.2666 -0.1246
 8816W        W28350   3.056   4.043  13.942  0.0939 -0.0962  0.1729
 8817W        W28351   0.094   5.301   1.770  0.1005  0.0535  0.1039
 8818W        W28352  16.424   9.592  11.699 -0.0082 -0.1424 -0.1471
 8819W        W28353   7.011  14.859   2.796 -0.1711 -0.2159 -0.3763
 8820W        W28354  12.266  14.377   4.027  0.3692 -0.0643 -0.2190
 8821W        W28355  17.099   7.435  13.129  0.0792  0.2755  0.0463
 8822W        W28356  11.242   4.801   4.631  0.3197 -0.0058 -0.1619
 8823W        W28357   8.548   0.871   5.066  0.0096 -0.2179 -0.0412
 8824W        W28358   9.738  12.374   3.819 -0.1911  0.1720  0.2605
 8825W        W28359  11.658  17.235   4.189 -0.1148 -0.0056  0.2990
 8826W        W28360  18.075   5.574  12.221 -0.0690  0.1828  0.1822
 8827W        W28361   9.505   2.945   0.172 -0.2070 -0.2518 -0.3267
 8828W        W28362   7.520   9.782  15.462  0.3010  0.0112  0.1315
 8829W        W28363   9.010   1.994  15.553  0.2247 -0.1900 -0.1204
 8830W        W28364  10.194   0.553  11.461 -0.0158  0.3743 -0.0229
 8831W        W28365  11.193   3.022   4.973 -0.0333 -0.5305  0.1481
 8832W        W28366  12.004   4.987  14.128  0.1258 -0.1126  0.1211
 8833W        W28367  11.284  16.294   3.518  0.2042  0.1268  0.0079
 8834W        W28368  10.252   2.027  12.159 -0.0166  0.0914 -0.2311
 8835W        W28369  14.152   4.717  12.121  0.0866 -0.1115  0.2619
 8836W        W28370  17.304  12.204  11.868  0.0117  0.0101 -0.0557
 8837W        W28371   6.336   6.626   3.581 -0.1049 -0.0733  0.1494
 8838W        W28372  15.043   5.591  14.366  0.1675 -0.1548 -0.2369
 8839W        W28373  11.557  15.266  15.821 -0.3095 -0.0708 -0.1151
 8840W        W28374  12.561  16.680   0.570 -0.0681  0.3194  0.1016
 8841W        W28375   4.594  13.606  15.675  0.1711 -0.1557 -0.1934
 8842W        W28376   9.164  13.491  13.632  0.0425  0.5738  0.0109
 8843W        W28377  18.108  13.056  13.023 -0.0243 -0.2047 -0.2633
 8844W        W28378   4.302  11.398   2.426  0.1030 -0.1185  0.2050
 8845W        W28379  13.713   9.237   3.645  0.1297 -0.3679 -0.4533
 8846W        W28380  14.216  10.536  13.598  0.5266  0.0852  0.0470
 8847W        W28381   4.448   6.455  13.071 -0.1448 -0.0629 -0.0599
 8848W        W28382  11.642   5.537  11.473  0.2129  0.2340 -0.0514
 8849W        W28383   9.036   3.154  13.365  0.0523 -0.3522  0.2171
 8850W        W28384  15.221   1.254  14.989  0.1109 -0.2213 -0.2880
 8851W        W28385  10.551   6.889  11.492  0.3611  0.1445 -0.0109
 8852W        W28386   3.702   6.361   2.399  0.1606 -0.1037  0.0396
 8853W        W28387   7.967   0.589  13.734 -0.0354 -0.2490 -0.2763
 8854W        W28388  12.754   0.401   2.913  0.1743 -0.1178 -0.0005
 8855W        W28389  17.104  13.196  15.427  0.0845  0.1107 -0.2101
 8856W        W28390   4.293   7.814  13.376  0.1576 -0.0998  0.0227
 8857W        W28391   6.449   9.827  10.110 -0.3091 -0.2786  0.2413
 8858W        W28392   5.513  11.938  11.543 -0.0750 -0.2211  0.1293
 8859W        W28393   8.570  18.105  12.637  0.1624  0.0322 -0.1513
 8860W        W28394   5.976   1.550   4.099 -0.1624  0.0889 -0.0198
 8861W        W28395   8.721  17.098  11.831 -0.0794 -0.1339  0.1066
 8862W        W28396  15.045  17.993   0.867  0.2168  0.0104  0.3402
 8863W        W28397   2.127   6.350  14.090  0.1846  0.3116 -0.2175
 8864W        W28398  17.066  14.839  11.802 -0.1081  0.1024  0.2841
 8865W        W28399   2.063  12.703   2.585 -0.0242  0.0283  0.1207
 8866W        W28400   4.224  12.223  11.635 -0.3618  0.0072  0.2135
 8867W        W28401   8.610   4.391  12.440  0.0067  0.0404  0.0886
 8868W        W28402   9.432   7.199   2.971  0.3255  0.0179 -0.0261
 8869W        W28403   5.434  12.544   0.997  0.2882  0.0659  0.0601
 8870W        W28404  17.480   0.658   2.203 -0.0594 -0.0654 -0.0396
 8871W        W28405  11.475   9.177   2.179  0.1106  0.1403  0.0730
 8872W        W28406  17.124  16.612   3.441 -0.2216  0.1523 -0.0072
 8873W        W28407   4.238   1.405  13.412 -0.1052  0.0138 -0.3231
 8874W        W28408   0.373   3.666  14.670  0.2899  0.1978  0.0572
 8875W        W28409   7.445   7.265  14.988 -0.0210 -0.0572  0.3925
 8876W        W28410   9.259   6.820  11.835  0.0026  0.0294  0.0975
 8877W        W28411   8.831  17.556  14.798  0.1748 -0.2903 -0.0908
 8878W        W28412   4.441  14.251   1.750  0.0276 -0.2775 -0.2492
 8879W        W28413   7.112   7.147   4.511  0.1248  0.0861  0.0429
 8880W        W28414  16.870   6.223  14.774 -0.1888 -0.0795  0.0928
 8881W        W28415  15.476   0.477  12.801  0.2088 -0.4248  0.0331
 8882W        W28416  12.169  18.308   1.146  0.1936 -0.2901 -0.0643
 8883W        W28417   4.962   8.296  13.202 -0.1644  0.1251  0.0747
 8884W        W28418   4.064   3.958   4.911 -0.2574  0.1422  0.1327
 8885W        W28419  17.494  11.548   0.824 -0.1331  0.0835  0.0712
 8886W        W28420  17.222  17.748   3.731 -0.2651  0.1869 -0.2244
 8887W        W28421   8.025  17.219  13.566  0.0975  0.2918  0.0750
 8888W        W28422  18.178  10.965  14.850  0.1126  0.0056  0.1076
 8889W        W28423   9.476  17.773   3.308  0.0348 -0.3247  0.0197
 8890W        W28424   7.867  15.414   0.699  0.1918 -0.3191  0.2876
 8891W        W28425  12.284   3.160   4.601  0.0285 -0.1652  0.0538
 8892W        W28426  15.062   0.160   1.572 -0.0898 -0.1273  0.0468
 8893W        W28427  14.612  10.939   1.453 -0.0914 -0.0424  0.3321
 8894W        W28428  13.280  12.178   1.455  0.0531 -0.0048  0.0474
 8895W        W28429  10.916   1.061   1.442  0.2078  0.2294  0.0477
 8896W        W28430  15.182  12.704   3.917 -0.0643 -0.0693 -0.2598
 8897W        W28431  13.082   6.626  11.712 -0.0267 -0.2213 -0.0185
 8898W        W28432  16.045   9.147  15.700  0.0196  0.1323 -0.1607
 8899W        W28433  11.425   3.075   4.297 -0.5768 -0.1829  0.2241
 8900W        W28434  11.264   3.683   1.835 -0.0785  0.0826 -0.1031
 8901W        W28435  12.174   9.648   0.166  0.1404  0.2808 -0.1579
 8902W        W28436  14.737   2.546  10.326  0.1473  0.1233 -0.3211
 8903W        W28437  10.446  13.001   4.171 -0.2677  0.2155  0.5557
 8904W        W28438   8.066   7.363   2.828 -0.0108  0.2118  0.0170
 8905W        W28439  12.949  16.560   2.929  0.0398  0.0796  0.1166
 8906W        W28440  13.763  17.818   0.253 -0.0306 -0.2673 -0.0763
 8907W        W28441   0.507   8.996   2.859 -0.0715 -0.3444  0.2194
 8908W        W28442  13.004   1.351  11.399 -0.0182 -0.3939  0.0258
 8909W        W28443  10.768   1.990  12.632  0.0498 -0.0397  0.0013
 8910W        W28444   7.755   8.281   4.330  0.1986 -0.1286  0.0655
 8911W        W28445   9.767  11.972  14.611 -0.0898 -0.0971 -0.1747
 8912W        W28446   5.721  11.845   3.143  0.0230  0.1930  0.0957
 8913W        W28447   9.811   7.556  14.117 -0.0611  0.0448  0.1604
 8914W        W28448   7.396  17.639  11.990 -0.0227 -0.0233  0.0428
 8915W        W28449   6.890  14.431  10.940 -0.0662 -0.0320  0.1334
 8916W        W28450  13.458   1.133  12.265 -0.0298  0.0998 -0.1069
 8917W        W28451   8.564   8.959   4.231  0.1373 -0.0631  0.0053
 8918W        W28452   1.536   2.399  11.469 -0.1151  0.0852  0.2021
 8919W        W28453  10.833  16.178   3.183  0.0241 -0.0486 -0.0869
 8920W        W28454   8.633  15.333   5.319 -0.4084 -0.0686 -0.3896
 8921W        W28455   9.754   5.747   3.739 -0.1085 -0.0986 -0.1540
 8922W        W28456   2.868  13.172   3.463 -0.0437  0.1728 -0.4843
 8923W        W28457   4.911   0.753   3.119  0.1028 -0.0674 -0.0999
 8924W        W28458   4.786   2.318   4.856 -0.0996 -0.1657 -0.0655
 8925W        W28459  15.151  10.755  12.725 -0.0673 -0.0912 -0.0205
 8926W        W28460  12.492  12.615   1.729 -0.0888  0.0439  0.2474
 8927W        W28461   8.552   3.399   0.030 -0.1274 -0.1149 -0.3510
 8928W        W28462   2.053  11.943  11.942  0.0728  0.0699  0.1911
 8929W        W28463   2.163   1.750   2.255 -0.0422  0.1468 -0.3837
 8930W        W28464  13.765  15.773  12.410 -0.0436  0.5830  0.0423
 8931W        W28465   0.693  17.191   4.321  0.0262 -0.0406  0.1166
 8932W        W28466  18.238  18.051  12.949  0.2256  0.4791 -0.0127
 8933W        W28467   8.530  11.934   4.955 -0.4321 -0.2883 -0.0904
 8934W        W28468  17.931  11.024  12.938  0.0955 -0.1810 -0.1492
 8935W        W28469   0.921   9.003   4.101 -0.1400  0.2796  0.0324
 8936W        W28470  14.567   7.984   2.400  0.1406 -0.0585 -0.0906
 8937W        W28471  13.672  14.829  15.602  0.1429 -0.1007  0.1849
 8938W        W28472   1.777   2.949   0.066  0.1000 -0.0982  0.1689
 8939W        W28473  14.470  15.921   3.869  0.0127 -0.3770  0.1699
 8940W        W28474  17.897  17.874  15.647  0.0587 -0.0845 -0.1295
 8941W        W28475   4.118  11.883  15.754 -0.0698  0.1281 -0.0046
 8942W        W28476  15.509   5.337   2.714  0.1611 -0.1883  0.1723
 8943W        W28477  15.445  13.939  11.620  0.1250 -0.0668  0.2633
 8944W        W28478   4.864  10.323  14.515 -0.0143 -0.1476  0.2688
 8945W        W28479   2.194   5.410  12.342 -0.4201 -0.0862 -0.2235
 8946W        W28480   5.847  14.134   1.339 -0.2355  0.0943 -0.0018
 8947W        W28481   9.502   8.876   2.124  0.0429  0.1562  0.2007
 8948W        W28482   0.377   5.266  12.992 -0.2313 -0.0870 -0.1315
 8949W        W28483  16.103  15.160   0.443  0.1672 -0.1148  0.1170
 8950W        W28484  13.742   4.084   4.215  0.0470  0.3537  0.2334
 8951W        W28485   4.669   0.274  12.051  0.0339  0.2298  0.0202
 8952W        W28486  16.925  10.550  11.384 -0.0664 -0.3054  0.1280
 8953W        W28487   5.098  18.258   4.336 -0.0557  0.0402 -0.3430
 8954W        W28488   9.467   2.948   1.142  0.2549 -0.0204 -0.0627
 8955W        W28489  17.002   3.716   3.100 -0.1580  0.0190 -0.0190
 8956W        W28490   2.166   2.717  12.783 -0.0276 -0.0527  0.0464
 8957W        W28491   3.024   8.642   2.831  0.0112  0.0955  0.1541
 8958W        W28492   3.439   6.004   2.178 -0.2754 -0.0352  0.1508
 8959W        W28493   7.682   2.932  14.890 -0.0314  0.0513 -0.0700
 8960W        W28494   9.093   4.747   1.350 -0.0567 -0.1063 -0.0891
 8961W        W28495  13.417   4.257  11.509  0.0229 -0.1664 -0.0851
 8962W        W28496  14.211   5.499   1.240 -0.3499 -0.1770  0.0576
 8963W        W28497  15.102  10.283  12.403 -0.1127 -0.1212  0.0851
 8964W        W28498   0.012  17.039   1.933  0.1784 -0.1208 -0.0830
 8965W        W28499   5.647  16.888  11.862  0.1197 -0.3172  0.0072
 8966W        W28500  17.419   5.960  13.317 -0.1511  0.1118 -0.0444
 8967W        W28501   4.525   7.715  13.877 -0.2793 -0.1452 -0.0998
 8968W        W28502   1.337  15.602  14.429 -0.3766 -0.0477  0.1780
 8969W        W28503   6.233  14.430  14.152 -0.0353 -0.1873 -0.0879
 8970W        W28504   1.031  16.643   2.884 -0.1640  0.0160  0.2368
 8971W        W28505  12.014   9.231   3.870 -0.1847 -0.0247 -0.2554
 8972W        W28506  11.550  14.141   0.950  0.0042  0.0835  0.0733
 8973W        W28507  11.402  12.492  11.589  0.2039  0.1716  0.0344
 8974W        W28508   5.348   4.849   2.969  0.2186  0.2871 -0.0659
 8975W        W28509  18.310  15.800   0.169 -0.0444 -0.0260 -0.0422
 8976W        W28510  14.860  12.298   1.965 -0.4526  0.1765  0.2167
 8977W        W28511  17.406   3.404  13.647 -0.2588  0.1511  0.0563
 8978W        W28512  11.478  10.858   1.065  0.1677 -0.0725  0.0089
 8979W        W28513   1.823   0.916   3.342  0.0646  0.1532  0.0812
 8980W        W28514   9.454   2.206  12.689 -0.2506  0.3020  0.2420
 8981W        W28515  15.538  16.534  14.845  0.0245  0.0588 -0.1139
 8982W        W28516   6.729   5.219  13.338 -0.1750 -0.1285 -0.0119
 8983W        W28517   0.607   0.587  11.726  0.0616 -0.3560 -0.5160
 8984W        W28518  15.257  11.165  15.162  0.0502 -0.1787  0.0082
 8985W        W28519   2.816  11.444  15.739 -0.0131  0.2187  0.1180
 8986W        W28520  10.872  10.921  15.052  0.1092  0.0703 -0.2022
 8987W        W28521  11.704   0.173   0.941  0.0675 -0.1152 -0.1954
 8988W        W28522  16.734  16.101   2.269  0.0526 -0.0537  0.1509
 8989W        W28523   3.397   7.316  14.992  0.1522 -0.0521 -0.2742
 8990W        W28524   0.573  15.205  12.877  0.1405  0.0410 -0.0404
 8991W        W28525  12.146   6.487  14.519  0.0191  0.1022  0.0840
 8992W        W28526   3.596   0.597  13.767 -0.1775  0.3678 -0.0620
 8993W        W28527   3.449  10.386  15.081 -0.0032  0.2194 -0.0922
 8994W        W28528  18.295  17.492   2.216  0.0462  0.1292 -0.1160
 8995W        W28529   6.797  10.836   3.539 -0.1486 -0.3457 -0.1337
 8996W        W28530  15.247  14.069  14.129 -0.0356  0.2158 -0.3184
 8997W        W28531   0.220  16.681  14.029  0.0242 -0.3223 -0.3353
 8998W        W28532   5.399   8.903   0.481  0.0337 -0.1562 -0.0948
 8999W        W28533   8.151   2.816  14.947  0.1758 -0.1911 -0.1637
 9000W        W28534   2.290   2.588  10.882 -0.0556 -0.1006 -0.0152
 9001W        W28535   1.338   5.775   1.456  0.0809  0.0718  0.1228
 9002W        W28536  12.326   1.988   1.584 -0.4620 -0.3939  0.2423
 9003W        W28537  12.492   6.037  12.216  0.1178 -0.2396 -0.0115
 9004W        W28538  16.389   1.432  15.634 -0.0190  0.0576 -0.3282
 9005W        W28539  10.923   3.907  13.661  0.0817 -0.1894  0.1717
 9006W        W28540   0.340   7.588   1.803 -0.1867  0.1300 -0.2064
 9007W        W28541   5.158  13.042   0.405  0.0072 -0.4439 -0.0397
 9008W        W28542   2.895   9.650  11.471  0.0389 -0.1626  0.2794
 9009W        W28543   3.678  13.239  14.376 -0.2895  0.0423 -0.0447
 9010W        W28544  13.815  17.573  13.204 -0.1008  0.0386 -0.3931
 9011W        W28545   6.556  12.732   2.749 -0.2081  0.0347 -0.3473
 9012W        W28546  11.576  16.765   4.849  0.2236 -0.3577 -0.2665
 9013W        W28547  16.206   8.602   2.297  0.1063  0.0095  0.0038
 9014W        W28548   4.406  11.557   0.210  0.0195 -0.1128  0.0068
 9015W        W28549   9.582  11.370  14.227 -0.1573 -0.0059  0.0292
 9016W        W28550   5.498  10.775   2.397  0.0709  0.3409  0.0984
 9017W        W28551  15.410   8.428  14.452 -0.3334 -0.1266 -0.0237
 9018W        W28552  10.105   5.319   1.952 -0.0480  0.1487  0.0963
 9019W        W28553   7.180   2.621  14.161 -0.3726 -0.1453 -0.0858
 9020W        W28554  18.030  14.267   1.931 -0.0867  0.2306 -0.0449
 9021W        W28555   8.576   6.544   2.419  0.3207  0.0773 -0.0413
 9022W        W28556  13.899  16.521   0.400  0.0659 -0.0065  0.3932
 9023W        W28557   2.601  17.843   0.098 -0.0408  0.0118 -0.0384
 9024W        W28558  11.940  18.208  14.955 -0.4032 -0.1175 -0.0079
 9025W        W28559   0.714   8.799   2.392  0.1183  0.1651  0.1879
 9026W        W28560   2.331   7.535  12.718 -0.3319 -0.0644  0.1617
 9027W        W28561  13.890   3.430   2.003  0.2038 -0.3560  0.1020
 9028W        W28562   3.099  11.210   1.624 -0.1105 -0.0019 -0.3278
 9029W        W28563   3.130   7.317  15.813 -0.2357  0.0528  0.1422
 9030W        W28564   3.558  11.942   0.458 -0.2049 -0.1439 -0.3097
 9031W        W28565   2.154   9.203  13.488  0.1061  0.1384  0.3500
 9032W        W28566  17.242  15.252  12.120  0.1631  0.1371  0.2683
 9033W        W28567   5.145  13.119   4.972  0.2893 -0.4445  0.1947
 9034W        W28568  11.723  15.847   1.100  0.1167  0.1294 -0.1895
 9035W        W28569  17.710   4.089   0.108  0.0978 -0.1240  0.1115
 9036W        W28570  17.936   4.249  12.151  0.3019  0.0027  0.0392
 9037W        W28571   3.997   1.014  15.319 -0.1863  0.0855  0.0054
 9038W        W28572   6.293   6.246   4.004 -0.1979 -0.1022  0.0523
 9039W        W28573  13.664  17.896   2.652 -0.0181  0.2834 -0.1406
 9040W        W28574  16.906   2.658  15.151 -0.1106 -0.2036  0.1623
 9041W        W28575   6.214   6.043   2.862 -0.1236 -0.1484  0.0928
 9042W        W28576   0.604   7.140   0.994 -0.0942  0.2563 -0.1669
 9043W        W28577  10.029   1.969   2.016 -0.0085  0.2435 -0.1541
 9044W        W28578   7.401  13.250   1.789  0.0968  0.2666 -0.1466
 9045W        W28579   4.169   9.464  13.354  0.1845 -0.3651 -0.0408
 9046W        W28580   7.052  12.862   2.716 -0.0693  0.1052 -0.0353
 9047W        W28581   7.715  15.276  13.202 -0.2849  0.0498  0.1139
 9048W        W28582   4.383   4.170   1.034 -0.1260 -0.0565 -0.0244
 9049W        W28583   0.340   6.589   0.420  0.1568  0.1654  0.0917
 9050W        W28584   5.315  13.258   3.903  0.0391 -0.0838 -0.1144
 9051W        W28585  14.138  17.935  13.024  0.0100 -0.2774  0.0746
 9052W        W28586   3.324   1.379  13.639 -0.2192  0.2617 -0.0689
 9053W        W28587   6.401  15.847   2.066 -0.2033 -0.0231  0.1377
 9054W        W28588   0.144  14.710  15.689 -0.0713  0.2119  0.2372
 9055W        W28589  16.931  10.370  15.840  0.4088 -0.1898 -0.1829
 9056W        W28590  12.361  15.526   3.978 -0.0715  0.0998  0.0331
 9057W        W28591   7.718  11.395  12.948  0.1451 -0.2226 -0.1792
 9058W        W28592  15.358  15.933  14.144 -0.0462 -0.1556  0.1795
 9059W        W28593   6.807   4.556  11.676  0.0104  0.1822  0.1433
 9060W        W28594   3.328   8.563   5.383 -0.2532 -0.0626 -0.3347
 9061W        W28595   0.306   9.369  12.477 -0.0483 -0.2438  0.1736
 9062W        W28596   6.826  13.769   2.104  0.1413  0.1093 -0.1282
 9063W        W28597   7.697  10.954   4.051  0.0152  0.1705 -0.0172
 9064W        W28598   1.298   9.707  13.604  0.1750  0.1145 -0.0457
 9065W        W28599  17.438   6.382   2.406 -0.1281 -0.0231  0.0899
 9066W        W28600  18.216  10.174  15.465  0.1900 -0.2360 -0.0274
 9067W        W28601  10.383   0.453  15.468  0.1523  0.1198 -0.1741
 9068W        W28602   4.775   5.813   0.281 -0.1290  0.0415 -0.0638
 9069W        W28603  14.373   0.109   0.733 -0.1895 -0.1863  0.1846
 9070W        W28604  11.694   7.107  13.817 -0.3528 -0.1776  0.1406
 9071W        W28605   1.352   7.344   3.282  0.0524  0.3205  0.2380
 9072W        W28606   1.899   2.333   0.806 -0.3548 -0.0810  0.3481
 9073W        W28607   6.542   6.933  12.183  0.1700 -0.0967  0.1474
 9074W        W28608   1.698   0.737  15.753 -0.2290  0.2059  0.1241
 9075W        W28609   6.117   5.178  14.149 -0.1081  0.0173  0.1713
 9076W        W28610  11.458   0.487   2.253  0.0136 -0.0819 -0.1115
 9077W        W28611   7.464   3.841  11.115  0.4414 -0.1111  0.0758
 9078W        W28612  11.949  18.347   4.276 -0.2430  0.0103  0.1518
 9079W        W28613  12.988   2.581   4.976  0.3431 -0.2274 -0.3959
 9080W        W28614   8.313  14.951   3.128  0.0686 -0.3318  0.0572
 9081W        W28615   0.295   4.487   2.263  0.1912 -0.0762 -0.2353
 9082W        W28616   5.174  18.340   0.271  0.0272  0.0027 -0.2574
 9083W        W28617   4.686  14.057   2.151  0.1446 -0.2516 -0.0827
 9084W        W28618  10.204  13.526  15.757  0.0101  0.0849  0.2400
 9085W        W28619   4.927   6.833  14.999  0.2764  0.2286  0.0707
 9086W        W28620  11.839  12.517  12.939 -0.1861 -0.3014 -0.2894
 9087W        W28621  16.878  15.504   4.253  0.0064 -0.1710 -0.1132
 9088W        W28622   9.688  17.916   4.426 -0.1200 -0.1187  0.2551
 9089W        W28623   8.859   2.168   4.181 -0.1223  0.2868  0.1571
 9090W        W28624  14.246   0.955  15.050 -0.0067 -0.1535 -0.2017
 9091W        W28625   0.887  17.890   1.403  0.0559 -0.1513 -0.2922
 9092W        W28626   6.279  13.226   4.422  0.0033 -0.0404 -0.2528
 9093W        W28627   7.531   5.153  13.190  0.2201  0.1231 -0.3841
 9094W        W28628  17.513   2.485  14.884 -0.1413  0.2058 -0.0833
 9095W        W28629   9.669  14.758  12.776 -0.0897  0.1990  0.1857
 9096W        W28630   4.303  12.364  13.409  0.2640 -0.1055 -0.1440
 9097W        W28631   4.296  12.551  11.942  0.2550  0.2174  0.1271
 9098W        W28632   1.634   3.938   4.425 -0.1581  0.2889 -0.0895
 9099W        W28633  17.742   9.128  15.820 -0.4397  0.2292  0.1476
 9100W        W28634  13.241  13.536   1.134  0.2120 -0.2222  0.2656
 9101W        W28635  10.013  13.922  12.765 -0.1743  0.2281 -0.0210
 9102W        W28636  11.712   4.978  15.454 -0.3719 -0.1289  0.2435
 9103W        W28637   8.716  11.763   3.030  0.0818 -0.2774 -0.4188
 9104W        W28638   7.642   4.169   4.017  0.2094 -0.2447  0.3556
 9105W        W28639   8.435  13.969  11.959 -0.0695  0.2431  0.1896
 9106W        W28640   7.287  18.152   1.577  0.1760 -0.2783 -0.2781
 9107W        W28641   2.324   7.728   1.050 -0.1817  0.0175  0.2647
 9108W        W28642   8.230  13.784  15.632  0.0382 -0.1490  0.4574
 9109W        W28643   1.438  18.085  10.206  0.2957  0.0909  0.0237
 9110W        W28644   3.093   1.374   4.497  0.1586  0.0341  0.2475
 9111W        W28645  12.068  17.286  12.824 -0.0822  0.1030  0.2036
 9112W        W28646   8.095  15.341   2.968  0.0358 -0.2966 -0.0730
 9113W        W28647   9.991  14.797   5.895  0.0875  0.0949 -0.1996
 9114W        W28648   5.109   4.582  14.723 -0.1084 -0.0756 -0.1067
 9115W        W28649  13.927  12.337  14.297  0.1333 -0.0060  0.2716
 9116W        W28650   8.334   5.234   3.416  0.0225 -0.1760  0.1012
 9117W        W28651   9.643  11.636  14.951  0.1537  0.4167 -0.0952
 9118W        W28652   7.226   7.080   1.773 -0.0521  0.0166 -0.2731
 9119W        W28653  16.988   0.672  13.879 -0.2243  0.4145 -0.0087
 9120W        W28654   1.287  18.150   1.541  0.2553 -0.1004  0.0800
 9121W        W28655   1.149   5.352  12.834  0.2680 -0.0407  0.5904
 9122W        W28656  17.195  16.394   4.903  0.0104 -0.2739  0.1523
 9123W        W28657  14.621  12.872   2.315 -0.0951 -0.2242 -0.3419
 9124W        W28658   9.038  10.197   4.023  0.2053  0.2967  0.0595
 9125W        W28659  17.528  12.410   0.657 -0.2625  0.0192  0.2823
 9126W        W28660   7.614   6.126   1.496  0.0008  0.0797 -0.0132
 9127W        W28661   8.407  16.505   5.728 -0.2103  0.2180  0.0258
 9128W        W28662   1.567   5.990  13.911 -0.1017 -0.1662  0.0630
 9129W        W28663  17.325   3.425  11.953  0.1238  0.0466 -0.2912
 9130W        W28664   0.465   0.156   3.984  0.1476 -0.0898  0.0397
 9131W        W28665  12.774  17.778   3.680 -0.2158  0.2984  0.1458
 9132W        W28666   9.053   4.434  15.269  0.1376 -0.1804 -0.0706
 9133W        W28667   2.175   1.712   3.843  0.1072 -0.3368 -0.0980
 9134W        W28668  10.631  12.577   2.242  0.1881 -0.1374 -0.0544
 9135W        W28669   0.417  16.354  14.745  0.1479 -0.1237  0.0381
 9136W        W28670   2.312   7.892   0.225  0.1246 -0.2047 -0.3982
 9137W        W28671  10.572  12.091  15.716 -0.2161 -0.0312 -0.0133
 9138W        W28672  12.507  10.376  13.470  0.0504  0.1721  0.3534
 9139W        W28673   3.004  16.688  15.578 -0.0659 -0.0387 -0.0577
 9140W        W28674   7.249  12.601  15.788 -0.2178  0.2811 -0.0069
 9141W        W28675  17.235   4.907  11.553  0.0206 -0.0988 -0.1815
 9142W        W28676   4.475  13.478   3.538  0.1140 -0.3115  0.0744
 9143W        W28677   3.995  11.543   2.845 -0.0830 -0.2587 -0.1113
 9144W        W28678  17.113   1.026   2.324 -0.1159 -0.1708  0.2424
 9145W        W28679  10.555   2.682  15.233  0.2405 -0.1577  0.1525
 9146W        W28680   5.788  15.701   0.413  0.2788 -0.1097  0.0102
 9147W        W28681   9.950  17.715   4.776 -0.1636 -0.0659  0.0280
 9148W        W28682  13.344   5.578  11.515  0.2545  0.3611  0.0300
 9149W        W28683   4.481  14.878  14.029 -0.0494 -0.4395 -0.3189
 9150W        W28684  14.668   5.152   2.494 -0.0888  0.2381 -0.3073
 9151W        W28685   6.275  17.574   2.482  0.0166 -0.1007  0.0657
 9152W        W28686   6.706   5.667   0.265 -0.0646  0.1834  0.1768
 9153W        W28687  11.017   7.818   3.147  0.1066  0.1120 -0.3448
 9154W        W28688  17.317  14.549   0.427 -0.1459 -0.1847 -0.1337
 9155W        W28689   4.555  10.362   2.264  0.2781  0.1165 -0.1385
 9156W        W28690  12.615   6.699  11.826 -0.0707 -0.0512 -0.3306
 9157W        W28691  17.486   1.634  13.219 -0.2292 -0.1096  0.0234
 9158W        W28692   6.823  10.293   0.392  0.1479  0.0715 -0.0427
 9159W        W28693   4.132   1.020  13.753  0.4256 -0.0732  0.0703
 9160W        W28694   6.110  12.681   2.590  0.0012 -0.2232  0.0387
 9161W        W28695   3.137   0.503  11.730  0.1341 -0.0234  0.2844
 9162W        W28696  17.941   8.964   2.457 -0.2221  0.1266  0.0330
 9163W        W28697   0.600  17.419  12.624 -0.1055 -0.0477  0.0777
 9164W        W28698  10.052   9.286  14.608  0.0481 -0.0117  0.0921
 9165W        W28699   5.290   4.704   0.290  0.0880  0.2171 -0.0088
 9166W        W28700   4.138   2.857  14.432 -0.1029  0.2756  0.1418
 9167W        W28701   2.627   4.130   4.445 -0.2599 -0.1355  0.1536
 9168W        W28702   7.189   2.412   0.518  0.1114  0.0248  0.1158
 9169W        W28703   0.871  12.735   1.020 -0.1960 -0.1052  0.1236
 9170W        W28704  18.107   9.427   0.124  0.0451 -0.0772 -0.2264
 9171W        W28705   5.228   1.160   0.891 -0.0901  0.0819  0.1750
 9172W        W28706  10.433   8.098   4.703 -0.0769 -0.0504  0.1348
 9173W        W28707   0.416   8.910  12.907  0.0683  0.1067 -0.2579
 9174W        W28708  16.865   9.730  13.573  0.1502 -0.0719  0.0334
 9175W        W28709   8.486  16.350   2.451 -0.0335  0.2030 -0.0955
 9176W        W28710   3.906  13.739  12.812  0.2914  0.0594  0.0069
 9177W        W28711   3.638  14.967  11.365  0.0772 -0.0453  0.3621
 9178W        W28712   2.289  17.554   3.483  0.0540  0.0042  0.0770
 9179W        W28713   2.065   4.322   3.039 -0.1690 -0.0070  0.3328
 9180W        W28714  12.301  10.570   1.545 -0.3046  0.0298  0.3184
 9181W        W28715  12.039   1.242   1.784 -0.0112 -0.2527 -0.1019
 9182W        W28716   1.708  15.277  15.601  0.1752 -0.3502  0.2309
 9183W        W28717   5.764   7.624   2.626  0.2493  0.1380  0.3221
 9184W        W28718   3.143  14.577  15.586  0.0272  0.1247  0.0909
 9185W        W28719  12.204   6.990  13.294  0.3801  0.2674  0.1634
 9186W        W28720   8.513   0.894  11.211  0.0967  0.0411  0.1184
 9187W        W28721   7.584  10.217   2.948 -0.0093  0.1538 -0.0373
 9188W        W28722   7.754   2.638  10.156  0.2528 -0.0226  0.3642
 9189W        W28723  17.286   3.942  15.719 -0.1061  0.1202  0.2014
 9190W        W28724  17.580   0.175   4.066 -0.1407  0.0563  0.1221
 9191W        W28725   3.900   3.860   2.771 -0.0056 -0.0737 -0.0530
 9192W        W28726  10.320  17.966  11.960 -0.4442 -0.1923 -0.1087
 9193W        W28727   6.438  16.566   1.440  0.1025  0.1323 -0.3265
 9194W        W28728   5.891  12.759  11.681 -0.1537  0.1074  0.1086
 9195W        W28729  16.853   6.711   0.518  0.2365 -0.0154 -0.3064
 9196W        W28730  14.217   6.165  15.237  0.0449 -0.0342 -0.1281
 9197W        W28731   8.900  14.822  14.947  0.0462 -0.0464 -0.0057
 9198W        W28732  17.061  11.525   4.027 -0.1772  0.2699  0.1398
 9199W        W28733   0.917  15.557  12.827 -0.1213  0.0805  0.1977
 9200W        W28734  16.315  13.055  11.301 -0.2691 -0.2408  0.1865
 9201W        W28735   3.928  17.594   4.261  0.0637 -0.1058 -0.1536
 9202W        W28736  14.547  14.036  12.934  0.2262  0.0642  0.0459
 9203W        W28737  14.856  15.833   0.481  0.0737 -0.2431 -0.2632
 9204W        W28738   1.993   5.403  13.561 -0.0055  0.1942 -0.0152
 9205W        W28739  13.615   5.120  11.449  0.0389  0.0672 -0.1830
 9206W        W28740  16.481  13.164   3.961 -0.0264  0.1615 -0.3175
 9207W        W28741   8.702   3.620  14.871  0.1987  0.0723 -0.0691
 9208W        W28742  14.034  14.635  14.684 -0.4932 -0.2183 -0.2149
 9209W        W28743   9.035  17.375   0.063 -0.0286 -0.1064 -0.4058
 9210W        W28744   1.422   5.377   1.736  0.0104 -0.3457  0.0361
 9211W        W28745   6.366  12.260  12.449  0.0163 -0.0577 -0.0868
 9212W        W28746  10.115  12.890   1.270  0.1141 -0.1012  0.1111
 9213W        W28747  14.370   2.012  15.719 -0.0659  0.3652  0.3266
 9214W        W28748  15.693  15.390  11.555  0.1655  0.0540  0.0128
 9215W        W28749   5.270  17.462   3.323  0.1936  0.1451 -0.1759
 9216W        W28750   7.301   1.597  15.433  0.0204 -0.0513  0.0923
 9217W        W28751   5.195   4.605   3.427  0.2434 -0.1117 -0.4281
 9218W        W28752   6.584  17.299   1.093  0.1084 -0.2865 -0.2639
 9219W        W28753   6.908   2.711  14.943 -0.2295 -0.0473 -0.1756
 9220W        W28754   0.561   9.147   4.466  0.0505  0.2493  0.0398
 9221W        W28755   4.600  15.267   2.987  0.0291 -0.0837 -0.0167
 9222W        W28756   6.802   9.788  12.809  0.0409  0.3596  0.0055
 9223W        W28757   9.701   5.344  11.804 -0.1192 -0.1549  0.0001
 9224W        W28758  16.396  14.183  10.970  0.1130 -0.1072  0.0523
 9225W        W28759   4.194   1.984  13.529 -0.0866 -0.1641 -0.1046
 9226W        W28760  15.216   1.034  13.868  0.0350  0.1344  0.1078
 9227W        W28761   3.891  16.829  13.102 -0.1436  0.1059 -0.4936
 9228W        W28762  13.229   1.777  13.936  0.0947  0.0938  0.3538
 9229W        W28763  13.889  13.836   2.036  0.2605 -0.0306 -0.2009
 9230W        W28764   4.342   2.589   2.791 -0.0536  0.0527 -0.1556
 9231W        W28765   6.014  14.118  15.377  0.1206 -0.4886  0.1215
 9232W        W28766   6.582  13.934   3.990 -0.2494  0.2222  0.0242
 9233W        W28767   5.901   7.669   1.447 -0.0492  0.0968 -0.0577
 9234W        W28768   0.551   0.074   2.195 -0.2962  0.0560  0.2441
 9235W        W28769   6.020   9.291   3.189 -0.4000 -0.3345  0.1804
 9236W        W28770   8.192  16.458  14.162  0.0584 -0.1146  0.3460
 9237W        W28771  17.717   4.875   4.364  0.0431 -0.2940  0.0094
 9238W        W28772  12.015  11.944  15.280  0.1278 -0.0345  0.1762
 9239W        W28773   0.741   9.087  14.853 -0.2503 -0.3879 -0.0152
 9240W        W28774  17.635   8.342  10.769  0.1190  0.1669 -0.0345
 9241W        W28775   1.051   9.493  14.973 -0.2856 -0.0093  0.0076
 9242W        W28776   1.400  13.083  13.259 -0.0895  0.0913  0.1383
 9243W        W28777   2.822   2.897  13.428 -0.0827  0.1193  0.2613
 9244W        W28778  16.370   3.428  12.675 -0.1013 -0.1882  0.2661
 9245W        W28779   3.594   6.498   2.891 -0.0428  0.2026  0.0180
 9246W        W28780   1.892  18.122  14.570  0.0786  0.1484  0.3795
 9247W        W28781  15.605  10.718  14.029  0.0779  0.1908  0.1193
 9248W        W28782   7.756  12.590   0.140 -0.0934  0.1067  0.4515
 9249W        W28783  16.584   3.734  11.199 -0.3081  0.0108 -0.4934
 9250W        W28784   5.292   2.901  13.519 -0.1249  0.0670 -0.0703
 9251W        W28785  11.492   0.953   6.015 -0.2362 -0.3253 -0.1497
 9252W        W28786  15.176   7.821   0.882 -0.0517  0.2697 -0.2083
 9253W        W28787   8.542   6.988   3.313  0.1171 -0.0192  0.1143
 9254W        W28788  11.382   4.411   3.954  0.0563 -0.0657  0.0706
 9255W        W28789   7.683  13.117  13.114 -0.4334 -0.3567 -0.1521
 9256W        W28790   9.015  12.424  13.304 -0.0369 -0.4571 -0.0173
 9257W        W28791  15.072  10.829  14.879  0.0694 -0.2033 -0.0255
 9258W        W28792  11.975  10.822   0.793  0.1537 -0.1772 -0.0695
 9259W        W28793  15.734   9.546  15.809  0.2300 -0.0024 -0.0068
 9260W        W28794  15.715  17.027  14.879 -0.0881 -0.0772 -0.2425
 9261W        W28795   1.738  17.909  12.843 -0.1978 -0.0651  0.2358
 9262W        W28796  10.100   0.213  12.269 -0.0683 -0.0285 -0.0646
 9263W        W28797   7.548   2.774   3.801 -0.2210  0.1997 -0.0167
 9264W        W28798   5.001  11.095  13.270  0.1503  0.0391 -0.3075
 9265W        W28799  16.923  13.292  12.460 -0.0895  0.3979 -0.3307
 9266W        W28800  14.803   7.628  13.609  0.1056 -0.0384  0.1424
 9267W        W28801  16.100   8.279   0.101 -0.2545 -0.1954  0.3305
 9268W        W28802  17.936   0.855  15.462  0.0960  0.1185  0.0398
 9269W        W28803   5.217   4.365  11.754  0.0116  0.1247  0.0114
 9270W        W28804   2.779   6.178   2.780 -0.1813  0.2560  0.1766
 9271W        W28805   9.240  15.950  15.721  0.0248 -0.0110 -0.2473
 9272W        W28806   8.377   7.600   0.607 -0.0008  0.0327 -0.3250
 9273W        W28807  10.337  14.846  13.757  0.2547 -0.1977 -0.1024
 9274W        W28808   4.025  14.283  14.410  0.2301  0.1019 -0.2105
 9275W        W28809  11.191   1.471  13.886 -0.1937 -0.0728 -0.1910
 9276W        W28810   1.583  17.817  11.552  0.1803 -0.0070  0.0409
 9277W        W28811   9.460   7.018  13.096  0.1269  0.0719  0.0840
 9278W        W28812   4.637  18.199   3.154 -0.0719 -0.3197  0.3384
 9279W        W28813   1.754   9.113  10.630  0.3712 -0.1283 -0.1127
 9280W        W28814   1.595  13.994  14.179 -0.2028 -0.1470 -0.0978
 9281W        W28815  10.588   7.734   0.930 -0.0386  0.0661  0.4968
 9282W        W28816   6.827  14.680   3.262  0.3615 -0.0332 -0.1163
 9283W        W28817   1.667   2.238  13.291 -0.0703  0.1688  0.1302
 9284W        W28818   2.587   5.043   4.063 -0.0615  0.1639 -0.1444
 9285W        W28819   5.134   7.315   5.715 -0.0295 -0.3152 -0.1967
 9286W        W28820  14.876   7.784   5.403  0.2393  0.4757 -0.0404
 9287W        W28821  12.939  17.048  14.697  0.0847 -0.1982  0.1690
 9288W        W28822   8.322   1.123   0.986 -0.0908 -0.0957  0.2595
 9289W        W28823   5.400  18.089  15.148 -0.0318 -0.1732 -0.2004
 9290W        W28824   2.179   0.556   3.708 -0.0312 -0.0100 -0.0137
 9291W        W28825   8.774  14.104   1.706  0.1532  0.0097  0.1778
 9292W        W28826   3.469   5.507   3.444 -0.1163  0.0633  0.0144
 9293W        W28827   0.024  18.275   0.316 -0.1400 -0.1310  0.2099
 9294W        W28828  11.030   8.730  11.900 -0.1927 -0.0137 -0.0439
 9295W        W28829   7.326   9.271  13.559 -0.0756 -0.0990  0.0828
 9296W        W28830   6.929   3.891   3.387 -0.1035 -0.3468  0.1832
 9297W        W28831  10.589  16.821   3.903  0.0470 -0.1105 -0.0367
 9298W        W28832   4.105  16.334   1.060 -0.0521 -0.0828  0.0631
 9299W        W28833   6.852   1.370   1.184  0.0240  0.1571 -0.2644
 9300W        W28834   2.623   1.170   2.555 -0.0123 -0.0087 -0.3377
 9301W        W28835   8.199   4.674  14.663  0.1907  0.2736 -0.1187
 9302W        W28836   8.649  11.463   4.113 -0.0312 -0.0674 -0.0548
 9303W        W28837  15.658   4.356   0.511  0.1296  0.1192  0.0223
 9304W        W28838   9.538   1.030   0.359  0.0485 -0.0372  0.0025
 9305W        W28839  14.319   2.835  15.534  0.1290 -0.2401 -0.4291
 9306W        W28840  10.843  16.807  11.546 -0.0242  0.0446  0.0364
 9307W        W28841   7.866  15.589  11.950  0.3020  0.0228 -0.1863
 9308W        W28842   8.851   3.114  14.690  0.1059  0.0437  0.0336
 9309W        W28843   5.197   7.479   3.370 -0.0569 -0.1712 -0.3248
 9310W        W28844   6.891   6.835   0.301  0.0901 -0.2573 -0.0887
 9311W        W28845  14.960  11.197   4.100  0.0552  0.0951  0.2046
 9312W        W28846  12.612  14.493   0.247  0.0946 -0.0088  0.0618
 9313W        W28847   8.653   8.377   1.795 -0.1268  0.0241 -0.0655
 9314W        W28848  16.455   9.411  12.902  0.0482  0.1334  0.0427
 9315W        W28849   4.908   1.144  10.630 -0.1285 -0.1371 -0.1406
 9316W        W28850   6.096  12.535  12.758 -0.0027 -0.0490  0.0533
 9317W        W28851  15.080   2.970  13.400 -0.0362  0.0888  0.2886
 9318W        W28852  10.103  18.320  14.182 -0.1671 -0.0203  0.1268
 9319W        W28853   3.051  16.575   0.383  0.2291 -0.3618  0.2194
 9320W        W28854   2.756  12.796   0.056  0.1184  0.1768 -0.0529
 9321W        W28855   8.795  10.260  11.676  0.0222 -0.1548  0.1911
 9322W        W28856  13.189  13.021   0.973  0.1435 -0.4470 -0.0648
 9323W        W28857  17.283  11.629   0.334  0.0898  0.0502 -0.1920
 9324W        W28858   7.087  16.471   0.006  0.0991  0.1414  0.0285
 9325W        W28859  18.087   4.602   4.049  0.0930 -0.0787 -0.2983
 9326W        W28860   4.557   3.455   0.469 -0.5171 -0.0322  0.1075
 9327W        W28861   0.991   6.676  12.817  0.1216  0.0504 -0.0492
 9328W        W28862  13.875   7.528  11.088 -0.0817  0.1096  0.0289
 9329W        W28863   3.505   9.686  12.139 -0.0385  0.1738  0.1090
 9330W        W28864   8.307  11.592  11.761 -0.1093 -0.0685 -0.0703
 9331W        W28865   4.699  12.110  14.766 -0.0115  0.0211  0.0478
 9332W        W28866   1.867  10.753   0.172 -0.1627 -0.0665  0.2075
 9333W        W28867   2.023  14.576   0.940 -0.0487 -0.0745  0.0523
 9334W        W28868  17.072  13.699  12.251  0.2494 -0.1175 -0.0342
 9335W        W28869   7.664   3.340  13.936 -0.1483 -0.1462  0.0264
 9336W        W28870  14.164   9.265   1.995  0.1339 -0.1839 -0.0914
 9337W        W28871  15.348   2.138   3.130  0.1099  0.1825  0.1528
 9338W        W28872   7.638  13.943  13.203 -0.1878  0.0124 -0.2233
 9339W        W28873  12.001   1.039   1.272  0.0189  0.1810 -0.4236
 9340W        W28874   6.987  11.177   3.897 -0.1202  0.1630  0.3009
 9341W        W28875   1.063   1.316  15.695  0.1744  0.3325  0.4127
 9342W        W28876  17.821   3.957   3.108  0.0547  0.1481 -0.0781
 9343W        W28877   9.254   7.914   0.928 -0.2530  0.0517 -0.4675
 9344W        W28878  10.857  12.422  11.625 -0.1301 -0.2928 -0.2059
 9345W        W28879   3.501   8.104   2.439  0.0847  0.0229 -0.0121
 9346W        W28880   3.329   2.964  11.963 -0.2543 -0.2068  0.1590
 9347W        W28881  11.742  10.345   1.213 -0.1664  0.0745 -0.2911
 9348W        W28882   0.241   8.007   2.543  0.0003 -0.0424 -0.3136
 9349W        W28883  16.799   5.393   0.591  0.0264 -0.4004  0.0938
 9350W        W28884  11.646  12.122   5.266 -0.0185  0.2180 -0.1851
 9351W        W28885   5.089  12.142  11.102 -0.1327  0.1357  0.1819
 9352W        W28886   0.618   0.573  13.467  0.0357  0.1717  0.0783
 9353W        W28887   3.437  16.861  11.689  0.0548 -0.0087  0.4879
 9354W        W28888   5.615   9.316  12.612 -0.3557  0.1018 -0.1377
 9355W        W28889   6.773   8.420  14.665  0.0803  0.1589  0.3012
 9356W        W28890   4.751   2.880   1.482  0.3147  0.0061  0.2848
 9357W        W28891  15.049   4.228   1.352 -0.1264 -0.0974  0.1310
 9358W        W28892   9.507  11.570   1.236 -0.1361  0.0012  0.0307
 9359W        W28893  11.777  16.329  13.235 -0.0174 -0.1716 -0.0417
 9360W        W28894  12.317   3.581   3.053  0.4543 -0.2232  0.0923
 9361W        W28895  11.783  14.783   2.317  0.0260 -0.0159 -0.1173
 9362W        W28896  15.725  10.232   4.689  0.0201  0.4899 -0.3311
 9363W        W28897   3.264   4.555  15.361 -0.0790 -0.1566 -0.2568
 9364W        W28898  17.560   1.656  15.704 -0.1375 -0.0087  0.0100
 9365W        W28899  18.313  17.196   1.183  0.0555 -0.4115 -0.0014
 9366W        W28900   0.880   2.886  15.122  0.1582 -0.2863 -0.1876
 9367W        W28901  10.759   1.533   3.186 -0.2035 -0.0851  0.1074
 9368W        W28902   9.377   4.316   2.849  0.0415  0.0331  0.3313
 9369W        W28903   4.981   7.720   2.617 -0.0747 -0.2965 -0.1046
 9370W        W28904  11.535  18.152   2.797 -0.0342  0.1106 -0.1204
 9371W        W28905  14.804  14.404   3.407 -0.1403  0.2790 -0.2285
 9372W        W28906   9.663   2.837   0.655  0.1464 -0.1005 -0.0038
 9373W        W28907   8.561  14.003  14.658 -0.1286 -0.2317 -0.1306
 9374W        W28908   2.250  13.271   0.684  0.0341 -0.2187 -0.0372
 9375W        W28909   0.455  13.805   0.845 -0.1664 -0.1836 -0.1583
 9376W        W28910  17.832   5.637   0.891 -0.2287 -0.0337  0.1284
 9377W        W28911  16.826  15.160  14.426 -0.0156  0.0910  0.0054
 9378W        W28912  14.250   6.109   4.194  0.3806  0.1029  0.2774
 9379W        W28913   4.059   5.553  13.699  0.3506  0.0431 -0.0697
 9380W        W28914   7.036   3.031   3.784  0.0578 -0.1050  0.0313
 9381W        W28915   5.418  17.640   0.987  0.0210  0.2104  0.0771
 9382W        W28916   5.992  10.377   4.385 -0.0635  0.3782  0.2236
 9383W        W28917   3.688  14.620  13.667  0.0138 -0.2790  0.1827
 9384W        W28918   7.756   7.537   3.167  0.5013  0.1161 -0.3179
 9385W        W28919   8.379   9.361   0.723 -0.0960 -0.1747  0.0520
 9386W        W28920   4.392  12.870   1.571  0.1567  0.2572 -0.2155
 9387W        W28921   0.101  11.997   5.009  0.1130  0.2349  0.1032
 9388W        W28922  12.408   2.564  13.482 -0.1049 -0.0512  0.0408
 9389W        W28923  10.923   6.301   0.702  0.1183  0.1301  0.1165
 9390W        W28924   7.461  12.071   2.621 -0.1156  0.0727  0.0549
 9391W        W28925   9.346   3.159   2.063 -0.1669 -0.2052 -0.1795
 9392W        W28926  14.923   4.968   3.599  0.2860  0.0836 -0.1894
 9393W        W28927  13.770  17.724   3.895  0.2126  0.3205  0.1147
 9394W        W28928  15.942  10.383  15.068  0.0387 -0.0897  0.2377
 9395W        W28929   7.618   3.064  12.069 -0.0484 -0.0909  0.0763
 9396W        W28930  11.251  16.821  14.401  0.0153 -0.0676  0.0390
 9397W        W28931   5.910   2.862   4.602 -0.0123 -0.1198  0.1839
 9398W        W28932  11.604  16.759  13.579 -0.3271  0.1692  0.1398
 9399W        W28933  16.280  11.231   3.800 -0.3274 -0.3079 -0.0791
 9400W        W28934   1.207   8.323   1.613  0.1401 -0.0135  0.2956
 9401W        W28935  17.714  15.041  14.895 -0.0979 -0.0641 -0.0269
 9402W        W28936   3.295  13.664  13.560  0.0921  0.1517  0.1915
 9403W        W28937   0.194  13.250  12.813  0.1504  0.0177  0.3769
 9404W        W28938   2.458   8.685   0.937 -0.0686  0.1597  0.2198
 9405W        W28939   9.147   5.024   3.861 -0.0229  0.0057 -0.1665
 9406W        W28940  10.694   8.176  13.519 -0.1805  0.1407  0.0954
 9407W        W28941   2.300   1.529   0.694 -0.0713 -0.2073 -0.2200
 9408W        W28942   8.237   2.605  15.536  0.0547  0.0080 -0.0035
 9409W        W28943  16.409  10.054  11.949 -0.0365  0.1022 -0.0900
 9410W        W28944  13.133  12.496  12.344  0.1732  0.1165  0.2638
 9411W        W28945   3.752  18.340  14.899 -0.2075 -0.4787  0.0131
 9412W        W28946   5.095   6.020   0.660  0.3983 -0.2547 -0.1465
 9413W        W28947  16.484   7.694  14.354 -0.1277  0.3502 -0.0710
 9414W        W28948   3.689  17.949   1.755 -0.1272  0.1268 -0.4186
 9415W        W28949  11.401   7.694  13.620  0.0511  0.1471  0.2141
 9416W        W28950  16.207  17.668  12.097 -0.1521 -0.1979 -0.0017
 9417W        W28951   4.404   2.054   1.364 -0.1995 -0.1371  0.2325
 9418W        W28952   7.198  14.054  12.788  0.1640  0.1709 -0.1205
 9419W        W28953   4.962  16.190   2.217  0.1122 -0.5123 -0.4802
 9420W        W28954  16.444   0.333   1.475 -0.0188 -0.2333  0.0296
 9421W        W28955  10.148   0.887   3.085 -0.0885  0.0834  0.1956
 9422W        W28956   1.923   3.028   3.941 -0.1724  0.2399 -0.0498
 9423W        W28957   6.003  17.503   0.099 -0.0735 -0.2218 -0.0038
 9424W        W28958   7.244   6.413  15.813 -0.3536 -0.3099 -0.0757
 9425W        W28959  14.139   5.265  15.050 -0.0646  0.3330 -0.3808
 9426W        W28960  12.441   7.709   4.302  0.0969 -0.1650  0.1004
 9427W        W28961   6.802   3.262  12.513 -0.2095 -0.0962  0.1243
 9428W        W28962   0.810   3.738   0.862  0.0668 -0.2130 -0.0588
 9429W        W28963   8.616  13.262   3.842  0.0330  0.1247  0.0506
 9430W        W28964  12.697   7.878   3.930 -0.1387  0.2488  0.0499
 9431W        W28965   1.473   9.897   3.894  0.1701  0.4080  0.0494
 9432W        W28966   7.505   0.476   0.565  0.0075  0.4552 -0.1767
 9433W        W28967  17.330   2.538   3.854  0.1258  0.1333  0.1990
 9434W        W28968   2.425   4.042   3.423 -0.1787  0.2548  0.1239
 9435W        W28969  11.328  16.440   3.022  0.2865  0.0661  0.0630
 9436W        W28970   7.073   3.240   3.301  0.0212 -0.4120  0.1242
 9437W        W28971  17.609  14.921   3.281 -0.2283 -0.4152 -0.2964
 9438W        W28972   5.623   5.790   3.141  0.0648 -0.0777 -0.0374
 9439W        W28973   7.366  15.957  15.140 -0.0030  0.1573  0.2563
 9440W        W28974   3.472   4.342   0.675  0.1516 -0.1588  0.1855
 9441W        W28975   6.753  11.316  11.303 -0.0887  0.1806 -0.2987
 9442W        W28976  11.830  16.898  13.110 -0.0259 -0.1338 -0.1134
 9443W        W28977   5.625   7.542  13.257  0.2571 -0.1579 -0.2494
 9444W        W28978  14.068   7.331   4.345 -0.0871 -0.2350 -0.0961
 9445W        W28979  15.898  17.780   2.452 -0.0786 -0.0138 -0.2393
 9446W        W28980  11.354   2.309   3.623  0.0233 -0.0044 -0.2378
 9447W        W28981   5.022   4.612  11.229  0.2379  0.0738  0.1440
 9448W        W28982   9.945   0.450   2.941 -0.0567  0.2544  0.0036
 9449W        W28983   3.067   0.281   1.663 -0.0106  0.1037  0.0048
 9450W        W28984  15.252   0.377   0.023  0.0412 -0.2604  0.2880
 9451W        W28985   5.288  15.468   3.738 -0.0329  0.0519 -0.0623
 9452W        W28986  13.111   3.489   3.048  0.0942 -0.0487 -0.0958
 9453W        W28987   2.004   3.594   2.254 -0.2155 -0.1323  0.1311
 9454W        W28988   6.046   7.888   4.437 -0.0383  0.0917 -0.3370
 9455W        W28989   1.655  10.132  14.364  0.1740  0.3464 -0.1129
 9456W        W28990   9.317  12.229  14.827 -0.1026  0.1492 -0.3828
 9457W        W28991   5.020  15.950  11.769 -0.2277  0.0301  0.3460
 9458W        W28992   0.786   1.549   0.224  0.0386 -0.1475 -0.1262
 9459W        W28993   3.462   5.748  13.707 -0.1739  0.1242  0.0916
 9460W        W28994   9.021  17.945  13.902  0.1913  0.0969  0.1306
 9461W        W28995  11.853  10.440  12.380  0.1081 -0.2596 -0.2357
 9462W        W28996   8.660   2.892   2.863 -0.0226 -0.0452 -0.1425
 9463W        W28997   0.802  13.014   0.503 -0.3954  0.1216  0.1070
 9464W        W28998  11.755   3.998   3.878  0.2164 -0.0493  0.0208
 9465W        W28999  12.152   5.935  13.045  0.0888 -0.1339  0.1193
 9466W        W29000   2.674   1.272   0.948  0.2282 -0.3170 -0.3439
 9467W        W29001   1.977  11.628   3.194 -0.0325 -0.3884  0.1405
 9468W        W29002  17.376   1.352  12.716 -0.1167  0.0264 -0.1997
 9469W        W29003   0.772   9.952  12.772  0.2973  0.2506  0.0624
 9470W        W29004   3.240   8.751  12.529  0.0404  0.2133  0.1499
 9471W        W29005  16.363   3.479   4.079  0.1873 -0.1223  0.2070
 9472W        W29006   3.389   6.657  13.265 -0.2582 -0.0866  0.0445
 9473W        W29007   3.204   3.623  13.001 -0.0802 -0.1397  0.1005
 9474W        W29008   5.102  16.103   3.252 -0.0674  0.2146 -0.0869
 9475W        W29009   8.396   4.359   1.695 -0.5328 -0.1464 -0.2704
 9476W        W29010  10.061  16.258  11.482 -0.1923 -0.1658 -0.2331
 9477W        W29011  11.777   6.909   3.540 -0.2479 -0.0885  0.1417
 9478W        W29012   2.634  11.657   0.920 -0.0597 -0.0597 -0.0739
 9479W        W29013  18.277  11.883  12.139  0.1617 -0.0500 -0.0784
 9480W        W29014   3.924   1.700   4.066 -0.2665  0.1323  0.1499
 9481W        W29015  16.650  17.998  10.497  0.1558  0.1064 -0.0955
 9482W        W29016   2.428  16.046  13.749  0.1126  0.0313  0.0907
 9483W        W29017   6.249   2.196  13.448  0.0278  0.5161 -0.1472
 9484W        W29018  14.208   1.725  13.228 -0.0299  0.3300  0.0836
 9485W        W29019   0.467   7.539   0.312 -0.1094 -0.1400 -0.0709
 9486W        W29020  17.911   6.027   4.861  0.1807 -0.1746 -0.0609
 9487W        W29021  17.776   7.960   0.544  0.2406  0.0085 -0.3067
 9488W        W29022   7.538   1.921   4.220 -0.3338 -0.0268  0.3296
 9489W        W29023   0.119  15.544  14.056 -0.0274  0.1622  0.0597
 9490W        W29024  11.419   5.778   2.396  0.0366  0.2729 -0.0927
 9491W        W29025   4.096   8.935  14.382  0.0506  0.0216 -0.0995
 9492W        W29026   9.250  12.101  15.359  0.2558 -0.0157  0.1223
 9493W        W29027   8.304  16.104   4.327  0.0074 -0.1285  0.1308
 9494W        W29028   0.262  17.431  13.041  0.2553 -0.2965  0.4262
 9495W        W29029   6.890  10.477  15.524 -0.2093 -0.0210 -0.0882
 9496W        W29030   9.119   2.333   1.893 -0.1861  0.1233 -0.2569
 9497W        W29031   8.027  10.397  13.529 -0.0225 -0.3439 -0.0396
 9498W        W29032   3.231   6.544   1.033  0.0460 -0.1483 -0.0982
 9499W        W29033  12.467   9.359  13.147 -0.1226 -0.2056 -0.3151
 9500W        W29034  14.612  11.229  11.936  0.0796 -0.0687 -0.1654
 9501W        W29035  17.813   2.357  10.020  0.2052 -0.2686  0.3403
 9502W        W29036   3.494   8.777  13.635 -0.2887  0.0711 -0.0569
 9503W        W29037  14.339  16.732   0.628  0.0263  0.2243 -0.0850
 9504W        W29038   8.805   4.059   2.887 -0.1367 -0.1309  0.1228
 9505W        W29039   2.736   2.736   0.161 -0.0231  0.0111  0.0971
 9506W        W29040  11.052   4.372  14.703  0.0601 -0.0707 -0.2332
 9507W        W29041   8.260   2.987  11.387 -0.0213 -0.2403 -0.4130
 9508W        W29042   5.667   1.817  14.067 -0.1562  0.3006 -0.1846
 9509W        W29043   0.433   0.552  14.073  0.1026  0.4225 -0.2391
 9510W        W29044   7.342  13.897  13.662 -0.0422  0.0730 -0.0335
 9511W        W29045  18.284   6.994   3.978 -0.2444  0.0323 -0.0043
 9512W        W29046  16.295   6.461   1.167  0.1734 -0.1590  0.0433
 9513W        W29047   3.478   0.761  11.561  0.1819  0.0859  0.0822
 9514W        W29048  16.636   1.849  13.774 -0.0523 -0.1181 -0.2432
 9515W        W29049   5.887   0.787  11.762 -0.4810 -0.0453  0.0956
 9516W        W29050   5.249  12.810   2.400  0.1734  0.3490 -0.3722
 9517W        W29051  17.608   6.580   1.051 -0.0013  0.1788 -0.1870
 9518W        W29052   8.932  14.470  12.469  0.1458  0.0327 -0.1538
 9519W        W29053  13.420  16.579  14.028  0.0630  0.3572  0.0164
 9520W        W29054  14.292  13.722  15.689 -0.1253  0.1005  0.0491
 9521W        W29055  10.227   3.224   5.232 -0.1554 -0.0793  0.2065
 9522W        W29056  14.373   4.896  13.965 -0.0650  0.1290 -0.4934
 9523W        W29057   6.998   0.798   1.745  0.2024  0.0799 -0.1148
 9524W        W29058   6.475   5.224   4.770  0.1066 -0.1088 -0.1911
 9525W        W29059   6.964   6.203   0.955  0.1592  0.0078 -0.1037
 9526W        W29060   3.709   8.571   1.067 -0.0504 -0.1450  0.2413
 9527W        W29061   8.310   1.955   1.244  0.1337 -0.0374 -0.0731
 9528W        W29062   8.066   0.304  12.697 -0.2885  0.0058 -0.1533
 9529W        W29063   1.454   9.309  14.663 -0.4178  0.0783  0.1739
 9530W        W29064  15.363   4.528   3.685  0.0710 -0.1443 -0.1446
 9531W        W29065   4.656   9.791  11.055  0.1521 -0.1477  0.1185
 9532W        W29066   1.971   6.570  14.564 -0.0318  0.0770 -0.0562
 9533W        W29067   9.216   4.009   2.001  0.0439  0.3919  0.0940
 9534W        W29068  16.659   4.935   3.375  0.0069  0.3453 -0.0667
 9535W        W29069  14.440  18.121   4.299 -0.0989  0.0369  0.1967
 9536W        W29070   4.304   5.532   3.106  0.0934  0.4849 -0.0490
 9537W        W29071  11.269   9.390  14.124  0.0228  0.0414  0.0353
 9538W        W29072   8.168   8.275  13.020  0.0515  0.2825 -0.0340
 9539W        W29073   9.243  12.769   1.929 -0.0933 -0.0162  0.1694
 9540W        W29074  16.714   1.062  13.623  0.0713 -0.0904  0.1570
 9541W        W29075   6.252  10.467   0.520  0.0328  0.0992 -0.0463
 9542W        W29076   7.770   0.680   2.547  0.0048  0.2974 -0.3606
 9543W        W29077  17.919   2.300   1.945  0.3171  0.1783 -0.0764
 9544W        W29078  17.681   4.670  12.214 -0.2989  0.0696  0.1404
 9545W        W29079   9.448   9.852  15.483 -0.1181 -0.0431  0.1596
 9546W        W29080   8.969  15.156  11.744 -0.0415 -0.2863 -0.1803
 9547W        W29081  11.883  14.687   1.808  0.0880  0.1094  0.0237
 9548W        W29082   3.181   1.090  10.420 -0.1317  0.3039  0.3393
 9549W        W29083  15.408  14.935  11.534 -0.1442 -0.2064 -0.0040
 9550W        W29084  16.512  17.001  12.395 -0.0828  0.1505  0.1270
 9551W        W29085  15.509  10.532   0.427  0.0916  0.3646 -0.1549
 9552W        W29086   1.550   3.407   3.682  0.0942 -0.1616  0.0125
 9553W        W29087   7.925  17.869   0.148 -0.1548  0.3096 -0.0447
 9554W        W29088   9.283   7.092  13.566 -0.0810  0.1240  0.2767
 9555W        W29089  17.804  11.233   0.002 -0.1780 -0.0910 -0.0896
 9556W        W29090  12.367   1.924  15.533 -0.0448  0.0574  0.2521
 9557W        W29091  17.054   2.492  11.628  0.1764  0.3693  0.0181
 9558W        W29092  16.537  13.117   1.011 -0.3327 -0.3679  0.0330
 9559W        W29093   5.941   8.670   1.762  0.0081  0.1629  0.1844
 9560W        W29094   5.990  17.990  11.619 -0.4044  0.0118  0.0732
 9561W        W29095  11.436  12.438  14.928  0.1386  0.1485 -0.3100
 9562W        W29096  16.899   7.432  14.416  0.2483 -0.1942  0.2554
 9563W        W29097  11.684   1.366  11.876 -0.0707 -0.1005  0.0548
 9564W        W29098  13.172  14.342  14.954 -0.0802 -0.1479  0.0068
 9565W        W29099   7.450  11.257   0.815  0.0560 -0.1176  0.1575
 9566W        W29100   0.329  13.082   4.180  0.0862 -0.0655  0.1855
 9567W        W29101  12.955   1.520  15.483 -0.2292 -0.0980  0.0172
 9568W        W29102  12.600  15.987  12.179 -0.0334  0.1518  0.2380
 9569W        W29103   0.393   6.307   3.689 -0.1579  0.2270  0.0184
 9570W        W29104   2.639  13.082  14.635  0.3289  0.1409 -0.1251
 9571W        W29105  13.476   7.290  15.538 -0.1304  0.1810  0.3431
 9572W        W29106   6.775  17.460  11.756 -0.1515  0.1338  0.0025
 9573W        W29107   4.748  15.978  15.149 -0.2322 -0.2799  0.0178
 9574W        W29108   8.214  13.350  13.903 -0.2072 -0.0343 -0.1215
 9575W        W29109   7.866  16.890   1.030  0.0650 -0.1139  0.2212
 9576W        W29110  17.775  14.034  15.063 -0.0497  0.2915  0.0177
 9577W        W29111  16.386  16.856  14.268 -0.3192  0.2777  0.2384
 9578W        W29112  16.016  11.141  14.386 -0.0857 -0.0088 -0.0061
 9579W        W29113   6.976  14.896  14.651 -0.4502  0.0438  0.0325
 9580W        W29114   0.615  12.414   1.663  0.1103 -0.0939 -0.2499
 9581W        W29115   7.647  15.266   2.576  0.4565 -0.0203 -0.1667
 9582W        W29116   0.773  12.370  14.403  0.0360  0.0025 -0.0533
 9583W        W29117   7.807   2.466  11.805 -0.3119 -0.0724  0.3570
 9584W        W29118  10.589  13.053   3.577 -0.0931 -0.0503 -0.1323
 9585W        W29119   8.943  17.512   4.479 -0.2069 -0.0176 -0.0010
 9586W        W29120  12.895  11.386  12.053 -0.0012 -0.1300 -0.3496
 9587W        W29121   4.510   1.829  11.658  0.1585  0.2218  0.2681
 9588W        W29122   1.525  12.508  12.571 -0.1856  0.0893 -0.2131
 9589W        W29123   2.075   8.070   1.352  0.0800 -0.1999  0.1360
 9590W        W29124   8.039   8.835  14.639 -0.2195  0.0668  0.2671
 9591W        W29125   9.015  17.089  14.860 -0.1148 -0.1687 -0.0698
 9592W        W29126   2.188   8.682   2.255 -0.0139  0.0734 -0.1277
 9593W        W29127   7.694   3.525   0.325  0.1876 -0.2458  0.0745
 9594W        W29128   9.813  10.991   4.144 -0.3627  0.2607 -0.0017
 9595W        W29129   0.119   7.937  11.988 -0.0094  0.1377  0.0204
 9596W        W29130   7.255  11.216  15.813 -0.0551 -0.2422  0.2166
 9597W        W29131   7.790  11.775   3.715 -0.0066  0.1909  0.0714
 9598W        W29132   0.770  15.563   0.088  0.1955 -0.1638 -0.0990
 9599W        W29133  12.330  13.299  12.229 -0.1105 -0.0567  0.0529
 9600W        W29134   8.031   8.190  12.101 -0.1882  0.1813 -0.2422
 9601W        W29135  10.787  16.601   2.930  0.1597  0.0249 -0.0495
 9602W        W29136  14.669   4.172  11.473  0.1581 -0.2226  0.0328
 9603W        W29137   5.424  12.708  14.829  0.0392  0.0463  0.0619
 9604W        W29138   1.380   1.025   1.247 -0.2589  0.2586 -0.4104
 9605W        W29139   7.114   4.628  15.654  0.1692  0.2569 -0.1171
 9606W        W29140   6.418   7.814   0.575 -0.0388 -0.3154 -0.0369
 9607W        W29141  13.802   3.841   2.536 -0.1631 -0.3812 -0.0170
 9608W        W29142   5.471  11.066  14.674  0.0461 -0.0720  0.0313
 9609W        W29143   9.920   1.063  11.818 -0.1287  0.0929 -0.1262
 9610W        W29144   8.887   6.794   4.287  0.2509 -0.2347  0.2349
 9611W        W29145  10.313   2.682   1.654  0.0114  0.0174 -0.0407
 9612W        W29146  14.673  15.773  12.116  0.1566 -0.0830 -0.0863
 9613W        W29147   3.638   0.873  12.363 -0.0329 -0.1029  0.1471
 9614W        W29148   8.227  13.638   3.135 -0.2492  0.3297 -0.0209
 9615W        W29149  10.120  18.038   4.214  0.2505  0.4441 -0.0980
 9616W        W29150   0.187  11.403  14.934 -0.1499 -0.1082 -0.4594
 9617W        W29151   4.368   7.443   0.728 -0.0733  0.3152 -0.1391
 9618W        W29152  14.445  11.147   0.689  0.0436 -0.0530 -0.1483
 9619W        W29153   1.184   4.402   3.596  0.2549  0.2747  0.0339
 9620W        W29154  10.434  16.487   2.162  0.0590 -0.0931 -0.2952
 9621W        W29155   1.488  15.143   1.332 -0.1299  0.0294 -0.1458
 9622W        W29156   4.723   4.464   2.382  0.0699 -0.0201 -0.2486
 9623W        W29157   0.327  10.353  12.918 -0.1145  0.2165 -0.0360
 9624W        W29158   9.969  16.613   3.386 -0.1743  0.1507  0.1563
 9625W        W29159  15.777   2.066   1.870  0.0203  0.0348 -0.1340
 9626W        W29160   9.027  11.928   4.263 -0.1234  0.1104  0.0591
 9627W        W29161  10.941   8.031   0.552 -0.2337  0.3044 -0.1020
 9628W        W29162   7.384   4.478  15.209 -0.0561 -0.0180  0.0320
 9629W        W29163  16.121   4.363   2.637  0.0168 -0.2387  0.0404
 9630W        W29164   2.512  15.572  15.003  0.0432  0.3436 -0.1807
 9631W        W29165  14.426   6.897  14.489  0.1237  0.0607  0.0582
 9632W        W29166   4.393  16.271   2.453 -0.3010  0.0457  0.2194
 9633W        W29167  18.118  12.178   2.711 -0.1101  0.1189 -0.2275
 9634W        W29168   8.872  15.778   5.522  0.0471  0.2219 -0.1784
 9635W        W29169  15.501   2.302  14.654  0.0614 -0.1218 -0.1185
 9636W        W29170  18.094  10.369   0.944  0.2804  0.2011 -0.1325
 9637W        W29171  11.261  10.205   2.610 -0.0347 -0.0522 -0.6555
 9638W        W29172  18.259  14.580  12.735 -0.0164 -0.0214 -0.0088
 9639W        W29173   7.057   9.371  12.024 -0.0252  0.0104  0.1815
 9640W        W29174  17.329   4.593   0.204 -0.2419 -0.2074  0.3351
 9641W        W29175   6.435   3.437   1.828  0.4025  0.1830 -0.0710
 9642W        W29176   3.211   0.352   3.678  0.0950 -0.3073  0.1127
 9643W        W29177   7.276  18.246   2.087  0.3152  0.3731  0.2977
 9644W        W29178  15.735   4.049   3.445 -0.1684 -0.0115  0.2178
 9645W        W29179   2.618  17.340   3.798  0.0357 -0.0893  0.3271
 9646W        W29180  11.941   0.728  12.716 -0.2907 -0.3201  0.1137
 9647W        W29181   4.432  14.691   3.773 -0.2907 -0.1122  0.2957
 9648W        W29182   6.651   2.595   2.901  0.0285 -0.0483  0.2215
 9649W        W29183  12.301  16.438  11.839  0.2768  0.0807  0.0619
 9650W        W29184  17.706  16.231   4.753  0.1634  0.1706  0.0962
 9651W        W29185  17.503   0.903   1.438  0.0890  0.1156 -0.0346
 9652W        W29186   3.571   5.958   1.641  0.0505 -0.1417  0.1166
 9653W        W29187   0.307   1.539  14.645  0.1721 -0.1060  0.1528
 9654W        W29188   2.645   2.896   2.502  0.2082 -0.2759  0.0182
 9655W        W29189  15.496   7.617  11.658 -0.1139  0.0712 -0.2229
 9656W        W29190  10.595   5.257  13.265  0.1776 -0.0647  0.0951
 9657W        W29191   7.670   2.320   5.891 -0.2781  0.0527 -0.0051
 9658W        W29192  13.010   5.413   0.745  0.2095 -0.0261  0.0204
 9659W        W29193   8.681   7.939   3.276  0.0630 -0.0696  0.0904
 9660W        W29194   2.809   3.667   0.932 -0.3316  0.2383  0.3981
 9661W        W29195   9.452  13.665   1.367 -0.2540 -0.0237  0.2400
 9662W        W29196  12.221   2.345   0.767 -0.1007  0.0056 -0.0259
 9663W        W29197  13.524  10.926   3.918 -0.1013  0.1873 -0.0735
 9664W        W29198   4.573   7.865  11.281  0.1866 -0.2713 -0.1924
 9665W        W29199  12.509   3.883   1.505 -0.0957  0.2070  0.0794
 9666W        W29200  13.497   8.282   3.433  0.3011  0.4265 -0.1228
 9667W        W29201  13.936   5.832   3.813 -0.0545  0.2500  0.3277
 9668W        W29202   2.058   5.161  10.432 -0.0750  0.2719  0.1117
 9669W        W29203   3.798  14.178   4.926  0.1088  0.1216  0.0925
 9670W        W29204  10.931  17.141   4.051  0.1312  0.2959  0.2776
 9671W        W29205   1.125  14.332   0.516 -0.0579  0.2643  0.1060
 9672W        W29206   9.619  17.297   1.542 -0.0424 -0.0946 -0.2915
 9673W        W29207   2.746   9.516  15.596  0.0104 -0.3349 -0.0473
 9674W        W29208  15.617  16.060  12.672 -0.2050  0.2087  0.0045
 9675W        W29209   1.216   2.768   0.606  0.0277  0.1639 -0.0295
 9676W        W29210   9.233   7.469   0.422 -0.1014 -0.4291  0.3266
 9677W        W29211   5.122   5.970  12.692  0.1392  0.2721  0.0143
 9678W        W29212   0.408  18.027   4.822 -0.0527  0.1340  0.2225
 9679W        W29213   4.706   9.573  15.124  0.1720  0.0056 -0.1477
 9680W        W29214   9.291  11.067   0.361  0.2609  0.3781  0.0493
 9681W        W29215   5.481   7.367  12.528 -0.2361  0.1518  0.1115
 9682W        W29216  14.848   9.299  14.794 -0.0570  0.1042  0.1708
 9683W        W29217  14.060  13.603   2.443 -0.1168 -0.1633 -0.2652
 9684W        W29218  16.971   2.137  15.213  0.2619 -0.0754 -0.1717
 9685W        W29219   6.580   4.572  12.757 -0.0579 -0.0643  0.0538
 9686W        W29220   5.164   2.524   2.242  0.1125  0.0102  0.0165
 9687W        W29221   0.078   8.028   0.686 -0.0129 -0.1450 -0.0211
 9688W        W29222   6.959  12.154   3.347 -0.1102  0.1035 -0.1804
 9689W        W29223  12.952   0.874  13.599 -0.1060 -0.0051 -0.0316
 9690W        W29224  15.489   4.820  11.050 -0.1509  0.0898 -0.1243
 9691W        W29225  10.943   1.924  15.608  0.3075  0.2247 -0.1510
 9692W        W29226  16.423   0.302  11.801 -0.0156 -0.2959  0.2097
 9693W        W29227   8.469  14.174   2.974  0.0583  0.2193  0.2073
 9694W        W29228  12.324   8.659   4.315 -0.0312 -0.0982 -0.0281
 9695W        W29229   6.432  11.223  14.547  0.2783  0.3262  0.0657
 9696W        W29230  16.913  14.260  11.752 -0.1764  0.6307 -0.0310
 9697W        W29231  12.053  16.097  12.228 -0.1800 -0.1695 -0.3646
 9698W        W29232  15.403   0.474  14.564  0.1370 -0.2303  0.2287
 9699W        W29233   2.022   9.044   1.904 -0.2362 -0.0390  0.0644
 9700W        W29234   4.771  17.672  15.571 -0.2645 -0.0792  0.2647
 9701W        W29235   2.141   2.793  13.965  0.2603  0.1421  0.0525
 9702W        W29236  10.799  14.747   3.529  0.2925 -0.1075 -0.1212
 9703W        W29237  12.735   7.666   0.363  0.2865 -0.2241  0.0300
 9704W        W29238  10.664   7.540  13.912  0.1087  0.1330  0.0614
 9705W        W29239   9.316   6.145  14.069 -0.1575 -0.1021  0.2362
 9706W        W29240   7.465   8.776   2.977  0.1269 -0.1509 -0.0251
 9707W        W29241  15.548   3.882   4.083  0.0006  0.2393 -0.1380
 9708W        W29242  12.289  17.772   3.523  0.1605  0.0261 -0.0527
 9709W        W29243  16.595  12.731  11.801  0.1476 -0.1147 -0.1093
 9710W        W29244  17.198   4.915  15.709 -0.2981 -0.3271 -0.2507
 9711W        W29245   2.403   7.683  13.602 -0.1130  0.1243  0.1230
 9712W        W29246   0.593   3.648  14.094 -0.1442 -0.3915  0.1716
 9713W        W29247   3.368  17.105   0.067  0.1966 -0.1653 -0.0194
 9714W        W29248  10.946  15.671   0.387 -0.1542  0.3595 -0.1280
 9715W        W29249  17.335  17.129  14.491 -0.1350  0.2879 -0.1902
 9716W        W29250  16.544  12.133   0.771 -0.0538  0.0249 -0.0839
 9717W        W29251  12.683  17.885   2.706 -0.0208  0.2484  0.1924
 9718W        W29252  17.290  17.670   1.468  0.0164 -0.0374  0.0536
 9719W        W29253   5.676   4.214   4.694 -0.1209 -0.0111 -0.1162
 9720W        W29254   4.010   3.370  12.501 -0.0769  0.2317  0.2051
 9721W        W29255  10.949  16.800   0.745 -0.0853 -0.0861  0.1347
 9722W        W29256   4.105   0.787  14.696  0.1161  0.0082  0.1912
 9723W        W29257   0.190  14.791  12.463  0.0807  0.1146 -0.1257
 9724W        W29258  15.461  11.866  14.145  0.1172  0.2626  0.0851
 9725W        W29259   0.901  11.263  11.251 -0.3159  0.0457 -0.0915
 9726W        W29260   6.764   5.507  12.029 -0.1182 -0.0887  0.1697
 9727W        W29261  17.786   9.816  13.845  0.0443 -0.0225  0.1328
 9728W        W29262   5.515  17.536  15.133 -0.1391  0.0959 -0.0388
 9729W        W29263  16.434   7.192   3.592  0.2119  0.2177 -0.0539
 9730W        W29264  17.959  15.165  14.415  0.0983  0.0010 -0.2145
 9731W        W29265   6.798   2.118   0.517 -0.0183  0.0713  0.1854
 9732W        W29266   6.682   0.022  15.092  0.0972 -0.1445  0.0650
 9733W        W29267   5.962   8.457   1.222 -0.1276 -0.0610  0.3438
 9734W        W29268  11.354   2.680   4.616  0.0424 -0.0363  0.1177
 9735W        W29269  12.288  10.417  14.075  0.2640 -0.1266  0.2825
 9736W        W29270  16.694  14.107  13.645 -0.1449 -0.1132  0.0508
 9737W        W29271   6.331  16.837  14.522 -0.0598  0.0009  0.2415
 9738W        W29272   1.627   5.019   3.009 -0.1701  0.0967 -0.1668
 9739W        W29273   0.622  14.313   2.254  0.1844 -0.0642 -0.0795
 9740W        W29274   9.273  17.166  12.025 -0.2327  0.0908 -0.1426
 9741W        W29275   2.852   2.706   0.756  0.0689 -0.3859  0.0823
 9742W        W29276   6.726  15.736  11.837  0.3635  0.1130  0.0334
 9743W        W29277   7.025   7.430  12.959  0.2224 -0.0023  0.1256
 9744W        W29278   3.595   5.269   4.521 -0.0182 -0.0163 -0.0162
 9745W        W29279  11.126   3.831   3.289 -0.0597  0.0151  0.1587
 9746W        W29280   8.155   1.246   4.669 -0.2341  0.2084 -0.1298
 9747W        W29281   2.811   3.448  14.405 -0.0664 -0.2547  0.2230
 9748W        W29282   6.686   0.218   0.274  0.1434 -0.2160  0.0059
 9749W        W29283  15.638  11.635  11.732  0.1558  0.1207 -0.2047
 9750W        W29284   5.392   2.014  15.821  0.1404 -0.1697 -0.1635
 9751W        W29285   6.151  13.707  11.686 -0.1861  0.4443 -0.1009
 9752W        W29286  10.851   5.010   4.388  0.1349 -0.0350 -0.3107
 9753W        W29287   2.760   5.733  13.065  0.0325  0.2083  0.1789
 9754W        W29288  12.480  10.080   1.391  0.0827  0.2323  0.0410
 9755W        W29289   1.674  12.007  12.726  0.0782  0.1449  0.2888
 9756W        W29290  14.912  15.809  14.382 -0.0804 -0.3317 -0.2236
 9757W        W29291   4.410   3.700  15.689 -0.0236 -0.0772  0.3354
 9758W        W29292   5.908   9.986   4.668 -0.2239 -0.5067  0.0287
 9759W        W29293  10.168  17.961   5.188  0.0620 -0.0128  0.1759
 9760W        W29294   4.605   9.220   0.913  0.4492 -0.0994  0.2556
 9761W        W29295   8.254  18.097   4.123 -0.0919  0.1362  0.2655
 9762W        W29296   1.670   7.748  11.127 -0.0183 -0.2081 -0.3826
 9763W        W29297  17.585  14.745  15.319 -0.1665 -0.2051 -0.0301
 9764W        W29298   5.376   6.173   0.208  0.0165 -0.2223  0.2030
 9765W        W29299   2.750   0.788   0.367 -0.1014  0.1210 -0.0697
 9766W        W29300  11.627  11.936  14.970 -0.1330 -0.2342  0.1177
 9767W        W29301   8.275  15.766  14.535 -0.2053 -0.3782 -0.2879
 9768W        W29302   5.179   4.050  11.349  0.0279  0.4027 -0.1686
 9769W        W29303   0.887   9.867   4.274  0.1607 -0.0629  0.1799
 9770W        W29304  11.953   3.628  12.913 -0.1889  0.0981 -0.2506
 9771W        W29305  12.446   2.736  14.020 -0.1798  0.0689 -0.1076
 9772W        W29306   6.457   9.150  14.236  0.4067  0.0311 -0.3320
 9773W        W29307   2.623   9.871   4.295  0.2230  0.2152 -0.0316
 9774W        W29308  13.084  17.492  15.082 -0.2381 -0.0887 -0.1365
 9775W        W29309   8.087   7.222   4.092  0.1855  0.0067  0.1002
 9776W        W29310  15.019   4.503   2.946 -0.0126 -0.0321  0.3162
 9777W        W29311  17.955   6.618   3.045  0.2905  0.2036  0.1978
 9778W        W29312   5.508  13.141   1.669  0.3634  0.2043  0.1557
 9779W        W29313  10.569  11.157  11.576  0.2004  0.0553  0.0002
 9780W        W29314  11.493   4.240   3.466 -0.1009 -0.2923  0.1328
 9781W        W29315   2.098  14.589   4.075 -0.0289  0.3413  0.5899
 9782W        W29316   2.102  17.033  11.709  0.2091  0.3261 -0.1079
 9783W        W29317   7.714   1.628  11.602 -0.0272  0.0560  0.0168
 9784W        W29318   3.410  14.912   0.765  0.3084  0.0003  0.2493
 9785W        W29319   8.776   6.328   1.843  0.0631  0.3129  0.0772
 9786W        W29320  13.470  10.443  13.072  0.2615  0.0977 -0.1286
 9787W        W29321  11.467   7.638   3.418 -0.0579 -0.1050  0.2092
 9788W        W29322   4.581   9.786   2.311 -0.2182  0.1595 -0.2043
 9789W        W29323   6.149   9.065   0.016 -0.0832  0.1388  0.0809
 9790W        W29324   4.264   3.794   1.490 -0.1745 -0.3274 -0.0842
 9791W        W29325  18.356   6.193  11.131  0.2962 -0.0377 -0.0070
 9792W        W29326   2.858   9.648   0.575 -0.1332 -0.0547 -0.0312
 9793W        W29327   1.905  12.927  13.000  0.1022  0.0796  0.0498
 9794W        W29328  14.474   8.453  14.941  0.0139  0.0834 -0.0199
 9795W        W29329  11.664  17.077  11.406 -0.2212 -0.1464 -0.0766
 9796W        W29330  15.767   2.094   4.001 -0.0399  0.0910  0.0244
 9797W        W29331  13.353   7.862  15.582 -0.0352 -0.1716  0.2020
 9798W        W29332   6.115   3.628   3.659 -0.0833 -0.2960 -0.1130
 9799W        W29333   8.538  13.151   2.462 -0.3915  0.3411  0.0740
 9800W        W29334  15.121   2.296   2.632 -0.2633 -0.0725  0.0743
 9801W        W29335   8.825   5.627  15.204  0.1486 -0.0440  0.1298
 9802W        W29336   0.190  15.650   2.350  0.2728 -0.1199  0.0923
 9803W        W29337   3.136   9.488   4.314 -0.2926  0.0751  0.2575
 9804W        W29338   6.675  15.489  15.159 -0.1045 -0.3344 -0.2000
 9805W        W29339  11.990  11.428   2.925 -0.1827  0.1940 -0.2221
 9806W        W29340  11.077   5.533   0.458 -0.1291 -0.1598  0.0219
 9807W        W29341   0.517   1.889   3.004 -0.0859 -0.0332  0.1220
 9808W        W29342   2.212  14.994  12.138  0.0341 -0.1237 -0.0741
 9809W        W29343   7.727   9.589   0.623 -0.1661  0.2838 -0.0927
 9810W        W29344  12.883   0.491  13.285  0.0238 -0.0340 -0.1070
 9811W        W29345   4.346  11.160   0.515 -0.1766 -0.0175 -0.2332
 9812W        W29346  15.506   5.609  11.796  0.2841 -0.0639  0.0730
 9813W        W29347   7.935   6.069  15.558  0.2410 -0.0406 -0.2108
 9814W        W29348  14.110  10.885  11.797  0.3637  0.2061  0.1614
 9815W        W29349   0.900   9.389   3.241 -0.0928  0.1526 -0.1394
 9816W        W29350  10.213   0.950  15.467  0.2649 -0.1498 -0.2271
 9817W        W29351   4.205  12.802  14.195  0.0905  0.0428  0.1169
 9818W        W29352   0.608   7.023  12.262 -0.1314  0.3550  0.0398
 9819W        W29353   5.941  11.405   2.882 -0.1881  0.0222  0.0528
 9820W        W29354  17.763  14.638   4.640  0.0648  0.0498 -0.0057
 9821W        W29355  15.095   9.011   1.945 -0.0188  0.3594  0.1749
 9822W        W29356   7.936  12.265   3.942  0.2656  0.1718  0.0684
 9823W        W29357  13.033   8.023   0.741  0.0679  0.0428 -0.0613
 9824W        W29358  16.831   1.150  11.538  0.2420 -0.0990  0.0088
 9825W        W29359   1.003   5.466   3.763  0.3189  0.1297 -0.0243
 9826W        W29360   3.649   3.739   0.109 -0.0467 -0.1377 -0.1772
 9827W        W29361  13.273   6.567  12.652  0.2328  0.0365 -0.1788
 9828W        W29362  12.481  10.071   1.897 -0.2214 -0.1586  0.1286
 9829W        W29363   8.593   2.590  11.953  0.0717 -0.1739  0.1459
 9830W        W29364   0.336  13.574  13.640 -0.0613  0.3293 -0.1843
 9831W        W29365  13.300  13.451  11.280 -0.2120  0.2504 -0.2111
 9832W        W29366   9.198   1.478   4.656 -0.1711  0.1444  0.2736
 9833W        W29367  10.688  11.931  11.466  0.2818  0.1678  0.0592
 9834W        W29368   9.722   1.689   4.331 -0.0595  0.1084 -0.2861
 9835W        W29369   1.039  12.466  12.697  0.0321  0.0541 -0.0012
 9836W        W29370   5.680   4.438   3.355  0.1005 -0.0067 -0.0206
 9837W        W29371   0.773  13.474   4.730 -0.0063 -0.0544 -0.0452
 9838W        W29372  10.341   4.534   1.519 -0.0656 -0.0068  0.2284
 9839W        W29373  13.929   7.140  13.161  0.0566 -0.4316 -0.0087
 9840W        W29374   3.082  18.387   4.109 -0.1973  0.0831 -0.0302
 9841W        W29375   6.563   4.375  13.261  0.0059 -0.3659 -0.2592
 9842W        W29376   8.263   6.999  11.390 -0.1042 -0.0501  0.0471
 9843W        W29377   1.181   5.341   4.333 -0.2942 -0.0730 -0.0321
 9844W        W29378   5.047   3.065  11.600  0.1285  0.2675 -0.1267
 9845W        W29379   2.497  13.683  12.176  0.1674  0.1530 -0.0209
 9846W        W29380  17.995   8.644   0.575 -0.1942 -0.3329 -0.0228
 9847W        W29381   3.519   3.317  11.691 -0.3073  0.2062  0.2813
 9848W        W29382   3.730  17.717  13.401  0.0587 -0.0866 -0.0509
 9849W        W29383  17.313  14.435  14.383  0.0511 -0.1591 -0.0590
 9850W        W29384  18.124   7.456  14.529  0.0092 -0.1635 -0.0199
 9851W        W29385   7.374   8.243  15.026  0.2827  0.2762  0.1291
 9852W        W29386  14.440  14.639  10.659  0.0743  0.3073 -0.0036
 9853W        W29387  16.291   2.814   1.703  0.0498  0.2387 -0.3174
 9854W        W29388   5.426   4.028   0.746  0.1329 -0.2577 -0.2827
 9855W        W29389  12.905  17.534  11.663 -0.1442 -0.1042  0.3020
 9856W        W29390  16.238  10.791   2.512 -0.0110 -0.0026 -0.0632
 9857W        W29391  17.064  16.354   0.995  0.2405  0.0550  0.2365
 9858W        W29392   1.925  11.186   2.807  0.0350 -0.0144 -0.0267
 9859W        W29393   7.274  16.408  13.389 -0.2763  0.1855 -0.0598
 9860W        W29394   9.946   0.789  14.223 -0.1302  0.0866 -0.0363
 9861W        W29395   7.603  13.046   4.143 -0.0005 -0.3729 -0.0380
 9862W        W29396   6.109   6.248   2.379  0.0166 -0.3794  0.0210
 9863W        W29397   2.012   1.714   2.822 -0.1656 -0.2590  0.1995
 9864W        W29398  18.103   0.097   3.341 -0.1160 -0.0459 -0.0531
 9865W        W29399   5.696   2.648  13.635  0.0920 -0.1671  0.1237
 9866W        W29400   2.550   8.910   1.922  0.3774 -0.1011 -0.1475
 9867W        W29401  14.312  11.572  11.219  0.1249 -0.1130 -0.2397
 9868W        W29402   3.400  12.103  15.274  0.1248 -0.0106 -0.0067
 9869W        W29403   7.881  14.798  12.913  0.1246 -0.1681  0.0223
 9870W        W29404   9.033   1.954   4.559 -0.0528 -0.1956 -0.0493
 9871W        W29405  10.932   2.985   4.303  0.0888 -0.0518 -0.1110
 9872W        W29406   6.015   3.789  12.729 -0.0719 -0.1377 -0.2385
 9873W        W29407  11.434  16.929   2.293 -0.2038  0.0475  0.1324
 9874W        W29408  18.087   0.797  11.533  0.0123 -0.2316  0.0305
 9875W        W29409   2.960   2.995  15.229  0.0555 -0.1271 -0.0461
 9876W        W29410   0.966  11.645  11.555 -0.3503 -0.1640  0.1467
 9877W        W29411  12.478  14.865  15.715  0.0403 -0.2034  0.1610
 9878W        W29412  16.851  17.402   3.699 -0.3041  0.0721 -0.2500
 9879W        W29413  16.269   3.910  10.831 -0.1039  0.0789 -0.0332
 9880W        W29414  11.717  16.406   5.135 -0.0627 -0.2637  0.0343
 9881W        W29415   7.094  13.488  15.185 -0.0440 -0.3538 -0.3244
 9882W        W29416  15.666   1.551  12.210  0.0582 -0.3003  0.0040
 9883W        W29417  11.186  13.011   1.527 -0.3562 -0.2842 -0.2306
 9884W        W29418   3.123  10.841   2.487  0.2799 -0.1197  0.0398
 9885W        W29419   1.637  15.220  14.493 -0.0040  0.3234 -0.2429
 9886W        W29420  16.975   1.505  13.512  0.2593  0.0613  0.1038
 9887W        W29421   9.170  16.176   0.427  0.2308 -0.1158  0.1522
 9888W        W29422   0.417   1.844   0.036 -0.1206 -0.1044 -0.2027
 9889W        W29423   3.176  14.063   1.376  0.4073  0.0572  0.0526
 9890W        W29424  14.964  10.614   0.225 -0.2864 -0.0701  0.1243
 9891W        W29425  13.771   5.260  15.384  0.0899  0.0432 -0.2704
 9892W        W29426   4.839   8.933   3.194 -0.1185 -0.1411 -0.0722
 9893W        W29427  15.477  17.875   2.176 -0.0857 -0.1761  0.1533
 9894W        W29428   8.113   0.570   3.711 -0.3285  0.0108  0.0455
 9895W        W29429  15.919  17.662   0.179 -0.2397 -0.1662 -0.1232
 9896W        W29430   0.029  15.179   1.681  0.2527  0.2291 -0.1372
 9897W        W29431   2.041  17.748   0.991 -0.2863 -0.3515  0.1279
 9898W        W29432  12.207  11.769  13.292 -0.0328  0.1493 -0.0439
 9899W        W29433  15.427   3.513   0.892  0.2623 -0.2232 -0.0458
 9900W        W29434  17.176   6.426  12.142  0.4409  0.1962  0.0505
 9901W        W29435   5.219   0.395  12.133 -0.1408 -0.1113 -0.1920
 9902W        W29436  11.591  15.900   4.398  0.1763 -0.2482  0.0860
 9903W        W29437   3.840  12.680  11.846  0.0272 -0.0144 -0.0171
 9904W        W29438  13.066  17.619   5.308  0.2468  0.0011 -0.1510
 9905W        W29439  12.805  16.841   3.706 -0.0195 -0.2273  0.0447
 9906W        W29440  15.811  17.558  14.129 -0.0336  0.1886  0.1287
 9907W        W29441  14.029   7.825   0.339  0.0443  0.1196 -0.0621
 9908W        W29442   1.618   3.534   0.879  0.0637 -0.0801 -0.1784
 9909W        W29443  16.908  18.096   1.357  0.0262  0.0633 -0.0678
 9910W        W29444   1.805   4.837  11.692  0.3288 -0.1135 -0.1380
 9911W        W29445   4.898  11.106  15.515  0.0302  0.0195  0.0586
 9912W        W29446   5.367   4.093   3.113 -0.0713 -0.1521  0.2018
 9913W        W29447   4.391  10.215   0.592  0.1090 -0.0284 -0.2147
 9914W        W29448  18.375   9.751  12.380  0.1004  0.2003  0.2011
 9915W        W29449  17.998   4.904  11.522 -0.2491 -0.0605  0.1630
 9916W        W29450   2.557  18.331  15.810 -0.1539 -0.0394  0.0778
 9917W        W29451   0.989  10.899   0.778 -0.0536 -0.1124 -0.0442
 9918W        W29452   4.058  15.342   1.693  0.0014  0.0127  0.1079
 9919W        W29453   8.952  17.784   3.277  0.3723 -0.3814 -0.1205
 9920W        W29454  12.364  12.991   3.643 -0.0616  0.0884 -0.0958
 9921W        W29455   5.480  18.004  12.485  0.3458 -0.4162  0.1756
 9922W        W29456   7.918  13.863   3.997 -0.1606  0.1108 -0.1320
 9923W        W29457   3.851   2.984  13.458  0.0221  0.1786  0.2941
 9924W        W29458   2.414   5.010   1.376 -0.1743  0.0602  0.2665
 9925W        W29459   1.779   9.869   4.263  0.1010  0.3521  0.1683
 9926W        W29460   3.797   3.655   4.642 -0.3375 -0.1437  0.2478
 9927W        W29461  12.268  17.021   3.789  0.0881  0.0210 -0.0459
 9928W        W29462  16.360   5.179  11.315 -0.0553 -0.1423 -0.1808
 9929W        W29463  10.589   4.125  12.634  0.0725 -0.1830  0.1466
 9930W        W29464  18.089   8.612   1.100  0.1001  0.0306  0.1215
 9931W        W29465   8.782  16.688   0.838 -0.0226 -0.2048 -0.2728
 9932W        W29466  17.127  10.423  14.050 -0.1529 -0.0956 -0.2395
 9933W        W29467   3.289  11.143  14.917  0.1637  0.0391  0.4774
 9934W        W29468  10.827   6.131  14.431  0.1172 -0.1369  0.3412
 9935W        W29469   0.859   1.895   4.365  0.0979  0.1895  0.1181
 9936W        W29470   8.437  12.831   5.364 -0.4134 -0.1156 -0.1978
 9937W        W29471  14.142   8.616   1.123 -0.2207  0.3141 -0.3477
 9938W        W29472   9.636  10.349  15.621  0.0421  0.0546 -0.0713
 9939W        W29473  10.017   5.481  14.801 -0.2449  0.3468 -0.1041
 9940W        W29474  12.538  14.961  14.304  0.2234 -0.0353  0.0408
 9941W        W29475   8.415   3.456   0.866  0.1789  0.3220 -0.2522
 9942W        W29476   5.689   2.525   4.965 -0.1663  0.3415 -0.2615
 9943W        W29477   4.043   6.294   1.360  0.4082  0.1920  0.0186
 9944W        W29478   2.516  15.438   2.236  0.4828 -0.3289  0.1794
 9945W        W29479  14.333   3.145  13.188 -0.0259  0.1401  0.0748
 9946W        W29480  16.374  17.102  15.438  0.2199 -0.1802  0.0862
 9947W        W29481  14.658  11.138  15.011  0.2334 -0.3372  0.2602
 9948W        W29482   6.028  10.197   3.827 -0.3296 -0.2057 -0.0831
 9949W        W29483   4.394  15.763   0.843 -0.1036  0.2348  0.0629
 9950W        W29484  17.838  13.361  12.726 -0.0102 -0.0409 -0.1701
 9951W        W29485  11.714  17.120   3.657  0.0025 -0.1691  0.3005
 9952W        W29486   1.320   2.209  12.848 -0.4420 -0.1137  0.0733
 9953W        W29487  11.599   3.530   2.312  0.1108  0.1327  0.1932
 9954W        W29488   5.465  12.553  14.235 -0.1205  0.1084  0.0121
 9955W        W29489  15.718   1.100   2.737 -0.2073 -0.3290 -0.2082
 9956W        W29490  11.339  11.052  12.954  0.0422  0.0092 -0.2611
 9957W        W29491   2.702   6.954  14.279  0.1068  0.2299 -0.0941
 9958W        W29492  16.251  17.059  11.922 -0.0676 -0.1241  0.1184
 9959W        W29493   6.276  14.103  13.071 -0.1376  0.0069 -0.0601
 9960W        W29494  12.934   0.270  14.405 -0.1840 -0.0877 -0.1244
 9961W        W29495   6.416  17.251   2.101 -0.1856 -0.0042  0.0729
 9962W        W29496   5.980  10.774   2.122 -0.3455 -0.1469  0.1035
 9963W        W29497  10.943  10.535   4.012 -0.0299  0.0204  0.0376
 9964W        W29498  16.787  18.040   2.255 -0.3365  0.0244 -0.1604
 9965W        W29499   6.552   0.751   0.312 -0.1244  0.1003  0.2252
 9966W        W29500   4.637   9.519  12.446  0.0434 -0.2620  0.0622
 9967W        W29501   3.922   1.227   1.356  0.0244 -0.5513 -0.1751
 9968W        W29502  10.301   1.379   3.138  0.0652 -0.0533  0.0174
 9969W        W29503   1.199  14.099   0.942 -0.1678 -0.0826 -0.1469
 9970W        W29504  16.241   9.599   1.327 -0.2859 -0.0199  0.0544
 9971W        W29505  16.445  12.196   4.102  0.1268  0.0768  0.0457
 9972W        W29506  12.994  13.845   4.411 -0.1098 -0.1993  0.1674
 9973W        W29507  12.740   5.846   1.101 -0.2186  0.0377 -0.1593
 9974W        W29508   4.206   4.791  13.341  0.1223  0.0507  0.0566
 9975W        W29509  10.890   1.974  14.515  0.1529 -0.0473  0.1426
 9976W        W29510  17.472   3.870  11.002 -0.1159  0.0258  0.0502
 9977W        W29511   4.736   1.199   4.382  0.2847  0.0193 -0.0312
 9978W        W29512   3.726  17.280  13.159 -0.1212  0.3679  0.4126
 9979W        W29513  13.607  15.310   1.970  0.1808  0.2196  0.2615
 9980W        W29514   6.197   1.184   1.029  0.3630  0.1743 -0.2210
 9981W        W29515  14.426  11.663   0.403  0.0522  0.0824  0.0217
 9982W        W29516   1.786  10.750   2.474  0.3928 -0.0985  0.0050
 9983W        W29517   4.320   8.568   1.391 -0.1029 -0.2200  0.1688
 9984W        W29518   0.508  16.353  13.315  0.2734  0.3360  0.2641
 9985W        W29519   2.865  13.818   5.716 -0.3462 -0.0278 -0.0315
 9986W        W29520  14.834   2.412  12.654 -0.0150 -0.1846  0.1637
 9987W        W29521  12.170   7.027  13.862  0.0421  0.2631 -0.1318
 9988W        W29522   1.347   6.190   3.822 -0.0410 -0.0816  0.1699
 9989W        W29523   9.459  17.526   0.431  0.3666 -0.1217 -0.0445
 9990W        W29524  13.044  10.156  12.909 -0.1209 -0.2012 -0.2119
 9991W        W29525   7.834  15.917   4.398 -0.1187 -0.1373  0.0602
 9992W        W29526  11.175  15.117  15.294 -0.1124  0.0475 -0.1205
 9993W        W29527   5.513  14.417  15.829  0.2265  0.0576 -0.2837
 9994W        W29528   2.686  13.911   1.945 -0.1185 -0.1929 -0.0602
 9995W        W29529   3.903   7.151  14.195 -0.1648  0.2010 -0.0665
 9996W        W29530   9.108  10.067   0.027 -0.2789  0.3389 -0.5612
 9997W        W29531   8.084  13.490  15.162  0.0265  0.3423 -0.4033
 9998W        W29532   9.506   1.989   1.889 -0.2573  0.2676 -0.0378
 9999W        W29533   4.490   7.794   2.978  0.0698 -0.1008 -0.0146
10000W        W29534  16.166   1.719   3.981 -0.2076 -0.2060  0.2306
10001W        W29535  11.389  17.674   4.893  0.2186 -0.0297  0.0841
10002W        W29536   5.527   2.630  15.150  0.0911 -0.0609 -0.2539
10003W        W29537  18.266   6.214   2.798 -0.0173 -0.2549  0.0838
10004W        W29538   3.351   5.577   2.910 -0.2516  0.0059 -0.1750
10005W        W29539   1.982  14.545  11.886  0.0300  0.0489  0.2569
10006W        W29540   1.193   8.957  11.307  0.0074  0.1585  0.1404
10007W        W29541   4.472   4.725   2.691 -0.0242  0.1274 -0.4687
10008W        W29542  13.572   3.692  15.398 -0.3989 -0.2042 -0.1915
10009W        W29543  15.062   7.822   2.497  0.2027  0.0498  0.0655
10010W        W29544   5.400  13.462  15.537 -0.2168 -0.0222 -0.1212
10011W        W29545  14.897   3.288   0.964  0.3620 -0.0649 -0.1536
10012W        W29546   3.566   6.233  14.116  0.2357 -0.0353  0.2549
10013W        W29547   4.418  10.040   1.892 -0.2784  0.1206  0.0772
10014W        W29548  12.805   2.657  11.753  0.0399 -0.2250  0.0650
10015W        W29549  12.369  13.701  12.609  0.1476 -0.0125  0.1429
10016W        W29550  16.942   7.683   4.207 -0.0534 -0.1068 -0.0075
10017W        W29551   8.227   1.829  10.459 -0.3100  0.0469 -0.0514
10018W        W29552  10.516   3.554   0.444 -0.0567  0.2896  0.0403
10019W        W29553  11.410   3.025  14.339 -0.1290 -0.2111  0.1292
10020W        W29554  10.681   4.588  11.727 -0.2326 -0.1223  0.2203
10021W        W29555   7.424  10.491   3.369  0.2834  0.1499  0.0460
10022W        W29556  11.009   1.331   2.720 -0.4244  0.2457  0.2292
10023W        W29557   9.130  17.979   4.521  0.0183 -0.2355 -0.1685
10024W        W29558  15.220   4.824   3.242  0.1052 -0.0138  0.2798
10025W        W29559   2.183   4.459  11.700 -0.0539  0.0713  0.0719
10026W        W29560  14.969   4.162   5.528 -0.2173  0.1053 -0.0631
10027W        W29561  10.892   1.563  14.255 -0.0966  0.0283  0.1550
10028W        W29562   3.686   1.797  12.737 -0.0273 -0.1983 -0.0652
10029W        W29563   0.847   5.396  14.484 -0.2296  0.1902  0.1439
10030W        W29564   0.871  12.315   2.076  0.0830 -0.0769 -0.0579
10031W        W29565   8.272  13.042   2.967  0.3272  0.0292 -0.1558
10032W        W29566   4.977   6.698   1.434 -0.3402  0.2105 -0.1230
10033W        W29567  17.416   4.748   2.035 -0.1785 -0.4832  0.0979
10034W        W29568   5.647  10.122   2.867  0.0587  0.1591  0.2152
10035W        W29569   8.781   1.190   1.185  0.0495 -0.0531  0.1063
10036W        W29570   1.754   1.261  13.688  0.1110 -0.1016  0.1276
10037W        W29571   6.378   4.676  15.265 -0.2134  0.2461  0.1805
10038W        W29572  15.999  14.554  10.862 -0.1885  0.0887  0.0589
10039W        W29573  10.236   5.626  11.738  0.1267 -0.1799  0.0016
10040W        W29574   1.705   1.681   3.658  0.1891 -0.1372 -0.0706
10041W        W29575   4.072   5.687   1.720 -0.3629 -0.1903 -0.0594
10042W        W29576   0.042  11.472  11.662  0.0896  0.0299  0.3860
10043W        W29577  16.933  17.623   0.636 -0.3642 -0.0321 -0.4172
10044W        W29578   0.755  12.160  11.650 -0.1874 -0.0442  0.2800
10045W        W29579  11.672   8.964  15.767 -0.0424  0.0276  0.1218
10046W        W29580   7.528   1.492   0.780  0.2189 -0.0458  0.0367
10047W        W29581   7.823  16.844   0.472 -0.0131 -0.0816  0.2291
10048W        W29582   9.898  12.206   4.316 -0.3987 -0.2766 -0.0562
10049W        W29583  17.669  14.206   0.100 -0.1549  0.1107 -0.1487
10050W        W29584   0.714  16.827  14.122  0.1681 -0.0527  0.1288
10051W        W29585   3.957   8.600   0.048  0.3743 -0.1962 -0.0699
10052W        W29586  13.767   4.961   3.285  0.1403  0.0351  0.1836
10053W        W29587   9.293  14.891  12.304  0.1928  0.1284 -0.2220
10054W        W29588  14.743  16.263  14.509 -0.0096 -0.0085 -0.0850
10055W        W29589   7.290  18.305  12.460 -0.3587  0.2455 -0.0046
10056W        W29590   6.424  17.301   3.846 -0.1514  0.1629 -0.0661
10057W        W29591   1.131  15.344  15.328 -0.1433 -0.0993  0.0392
10058W        W29592  14.538   8.851   1.953  0.2811  0.0251  0.0814
10059W        W29593   5.108  13.046  12.139  0.1828  0.2404 -0.0228
10060W        W29594  15.356  15.427   4.890 -0.1720  0.0915 -0.0572
10061W        W29595   7.250   7.660   4.024  0.0191 -0.1526 -0.1559
10062W        W29596  11.787   2.307  13.015 -0.1574 -0.0524  0.1183
10063W        W29597   7.464   9.462   0.067 -0.0033  0.1616 -0.1091
10064W        W29598   3.765   4.771   3.924 -0.4039 -0.3594  0.2773
10065W        W29599  18.090   4.443  14.911 -0.1107  0.1291 -0.2252
10066W        W29600   2.782  11.314  11.568  0.0166  0.1811  0.0335
10067W        W29601   9.030  14.330   0.947  0.1068  0.2493 -0.0431
10068W        W29602   7.023  11.000   2.414 -0.2962  0.2873 -0.1243
10069W        W29603   5.523  16.507  15.619  0.0452 -0.3976 -0.3393
10070W        W29604   3.202   0.154   1.134  0.1661  0.0942 -0.1444
10071W        W29605  16.480   5.831  15.622  0.1552 -0.0107  0.0347
10072W        W29606   0.606  15.230  13.813 -0.0354 -0.0012 -0.2244
10073W        W29607   1.090   4.952   3.940 -0.3422 -0.3475 -0.0826
10074W        W29608   5.907  10.583   3.498  0.1019 -0.1587 -0.0896
10075W        W29609  10.551   2.882  13.081 -0.0782 -0.1620  0.0906
10076W        W29610  16.336  13.700  15.200 -0.2989  0.1750 -0.0364
10077W        W29611  16.264  18.317   0.851  0.1608  0.2889  0.0760
10078W        W29612  14.193   4.644  13.025  0.2982  0.0434  0.1103
10079W        W29613  15.978  10.643   4.586  0.0244  0.0117  0.1069
10080W        W29614   0.763   6.758  11.369 -0.2059 -0.0468  0.1491
10081W        W29615   5.275   4.499   4.741 -0.2069 -0.2727  0.1943
10082W        W29616  10.453   6.598   0.740  0.3119 -0.1212 -0.1303
10083W        W29617  11.880  17.946  11.605  0.0319 -0.0533 -0.0163
10084W        W29618  10.211  11.746  15.537 -0.0023 -0.4003  0.0602
10085W        W29619   8.828   6.564  14.866  0.0586  0.4884 -0.1417
10086W        W29620   2.326  17.020  14.956  0.2932  0.1284  0.1916
10087W        W29621   3.021  18.348  13.496  0.4773 -0.3885 -0.3634
10088W        W29622   2.593   7.642   4.530  0.1305  0.5395 -0.3398
10089W        W29623   4.658   7.643  10.619 -0.0610 -0.0493  0.2832
10090W        W29624  15.069  13.597  13.659  0.2583  0.2099 -0.0778
10091W        W29625  10.068   3.586   4.439  0.1902 -0.0827  0.0821
10092W        W29626   4.049   7.495   2.354 -0.0007 -0.0477 -0.1084
10093W        W29627   2.562   8.594  13.954 -0.1590  0.1921  0.2995
10094W        W29628   9.607  14.545  11.365 -0.0528  0.1648 -0.0618
10095W        W29629   5.383   0.711   0.574  0.2580  0.2447  0.1781
10096W        W29630   1.947   5.802  12.820 -0.3434 -0.1152  0.3032
10097W        W29631  16.219   4.083   3.696  0.0807  0.1429 -0.1697
10098W        W29632  11.696  16.247  13.690 -0.1931 -0.0710 -0.0320
10099W        W29633   6.520   2.179  12.557 -0.1669 -0.0879  0.3186
10100W        W29634  12.776  16.266   2.521 -0.5662 -0.3370 -0.3171
10101W        W29635   7.397   4.925   2.008 -0.0999  0.3725 -0.1879
10102W        W29636   1.830   0.065  12.925  0.0952  0.1076 -0.1818
10103W        W29637   1.162   1.253   0.378 -0.0218 -0.0485 -0.0598
10104W        W29638   1.724   2.479   4.148  0.0530  0.1133  0.2033
10105W        W29639  12.019   8.346   3.639  0.0144  0.1127 -0.1359
10106W        W29640  17.802   1.882  14.428 -0.3449  0.0850  0.2319
10107W        W29641  15.642   7.546  15.301 -0.0633 -0.0007  0.0416
10108W        W29642  12.788  11.813  14.242 -0.0558  0.0548 -0.0945
10109W        W29643   6.102   5.699   1.160 -0.0789 -0.2947  0.3663
10110W        W29644   3.780   8.000  12.174 -0.1245 -0.0222  0.3790
10111W        W29645   9.173   6.570  15.222 -0.0786  0.1361 -0.1283
10112W        W29646  12.018  15.194   1.990 -0.1751 -0.1808  0.1027
10113W        W29647  12.064   1.862   3.381  0.2615 -0.1962 -0.0336
10114W        W29648  13.880   4.698   0.948 -0.1989  0.0993  0.3253
10115W        W29649   7.847   2.224   3.920  0.2597 -0.0953  0.1719
10116W        W29650  10.244   6.274   3.622 -0.0002 -0.2086  0.1791
10117W        W29651   8.492   1.710  14.236 -0.1181 -0.0394 -0.1901
10118W        W29652  16.712   8.395   0.192  0.0558  0.1135 -0.2297
10119W        W29653   8.366  15.191   1.304  0.1902  0.3493  0.0180
10120W        W29654   1.706  12.914   0.445  0.3339 -0.2714  0.2375
10121W        W29655   0.118   6.151  13.383 -0.1960  0.1783 -0.1494
10122W        W29656   2.592  12.565   2.832 -0.4552  0.0135 -0.0121
10123W        W29657  13.415   1.754  14.447 -0.0908  0.1849 -0.3340
10124W        W29658  10.920   1.920  11.560 -0.0206 -0.1135 -0.1091
10125W        W29659   5.067  10.889  11.682 -0.4322 -0.0049 -0.2236
10126W        W29660   5.919  14.365  14.921 -0.1838 -0.1737 -0.0179
10127W        W29661  14.893   5.674  13.314 -0.3102 -0.0980 -0.0606
10128W        W29662  12.135   6.263  13.477 -0.0065 -0.2707 -0.0164
10129W        W29663  15.864   1.444   3.214  0.1169  0.0158 -0.2426
10130W        W29664   1.832  11.776   4.160 -0.1492  0.1424 -0.0900
10131W        W29665  12.678  12.040  13.407 -0.0158  0.2403  0.0975
10132W        W29666   5.511   1.351  12.305  0.1036 -0.2562 -0.1750
10133W        W29667  12.271  15.887  15.141  0.2774  0.1669 -0.1039
10134W        W29668   7.110   8.165   3.375 -0.1046  0.2770  0.4422
10135W        W29669   6.560  11.117   4.167  0.4484 -0.0525 -0.0114
10136W        W29670  11.232  12.069  11.827  0.2833 -0.2154  0.1918
10137W        W29671   6.614   1.961   0.029 -0.0341 -0.0438 -0.0517
10138W        W29672   1.300   5.163   4.835 -0.0552 -0.0512  0.1985
10139W        W29673  16.429   5.082   2.902 -0.0229  0.1726  0.1261
10140W        W29674   9.648   4.679   1.108 -0.0385 -0.0506 -0.1355
10141W        W29675   5.781  11.514  12.980  0.0298  0.3696 -0.1830
10142W        W29676  14.259   9.632  13.040  0.2414 -0.0019 -0.1603
10143W        W29677  13.343   1.023   2.402 -0.0839 -0.0845  0.3944
10144W        W29678   6.423   0.809  11.747 -0.3152  0.1486 -0.0528
10145W        W29679   3.652   5.058  15.409 -0.0444  0.0166 -0.1288
10146W        W29680   9.211  17.183   2.366  0.0026  0.3681  0.5005
10147W        W29681  16.944   8.757  12.124 -0.0584  0.2155 -0.0499
10148W        W29682  11.417   1.149   4.307 -0.0875  0.0016 -0.2407
10149W        W29683   5.637  10.518  10.872  0.1183  0.2456 -0.0796
10150W        W29684  17.287   7.884   2.270 -0.0921  0.0085 -0.1168
10151W        W29685   6.947   4.210   4.339  0.1199 -0.2970  0.3603
10152W        W29686  10.107   3.456   0.105 -0.0445  0.1421 -0.0993
10153W        W29687  10.967   0.572  12.148 -0.0883  0.1471 -0.0737
10154W        W29688  12.975   6.337  12.300  0.0028 -0.4669  0.4041
10155W        W29689   9.749  15.158  14.989  0.0876  0.2730 -0.1439
10156W        W29690   0.841  11.593  13.576  0.0933  0.0590 -0.0635
10157W        W29691  14.050  10.102   2.447  0.0353 -0.1056  0.2451
10158W        W29692   4.834   2.475   0.108  0.0342 -0.2061 -0.1799
10159W        W29693   7.892   1.078   4.283 -0.0102  0.1445  0.0480
10160W        W29694   3.277   3.347  15.617 -0.0366 -0.0755  0.1928
10161W        W29695  14.057   9.955   0.514 -0.2227  0.1743 -0.1225
10162W        W29696   9.715  11.940  13.415  0.0996  0.0622 -0.0301
10163W        W29697  10.817   2.595   0.673 -0.1942  0.2045 -0.1673
10164W        W29698  16.060   0.727   0.222 -0.1840 -0.1489 -0.0683
10165W        W29699  17.389   7.640   2.736  0.0522  0.0930 -0.0058
10166W        W29700  17.999   1.752  12.071 -0.4134 -0.0334 -0.1855
10167W        W29701  15.827   7.378   0.344 -0.1762 -0.2952  0.0775
10168W        W29702  13.938   0.903   4.381  0.0418  0.2286 -0.1199
10169W        W29703   6.353   3.053  12.988 -0.2649  0.1101 -0.1088
10170W        W29704   3.917  12.663  12.737  0.0218  0.2361  0.0874
10171W        W29705   9.044   0.403   0.854 -0.1225 -0.0017 -0.0074
10172W        W29706   3.382  13.591  12.072  0.0330 -0.0514 -0.0626
10173W        W29707   7.676  17.305   0.805 -0.1207  0.0752 -0.0993
10174W        W29708  15.294  16.933   0.968  0.2762 -0.2135  0.2640
10175W        W29709  17.968   7.472   0.282 -0.2281  0.0516 -0.1716
10176W        W29710   2.094   2.460  14.360  0.1391  0.0054  0.0924
10177W        W29711   5.911  12.471  10.140 -0.1513  0.2104  0.2012
10178W        W29712  10.596  15.722  13.558 -0.4184 -0.0367 -0.0814
10179W        W29713   2.300   7.593  15.691 -0.1042 -0.3116  0.0449
10180W        W29714   6.807   1.781  12.678  0.3518  0.0071 -0.0679
10181W        W29715  17.179  14.955   3.044 -0.2014  0.2490  0.3118
10182W        W29716   4.977   6.309  12.985  0.2553  0.1709 -0.0545
10183W        W29717   5.538  10.713   0.133  0.1984  0.3333 -0.1296
10184W        W29718  10.199   1.173   1.374 -0.3895  0.1880  0.0257
10185W        W29719  17.184  12.825   0.466  0.0228  0.2703  0.0912
10186W        W29720  12.992   8.656   0.042 -0.0843 -0.1043  0.2286
10187W        W29721   5.728  14.115  11.790  0.0671 -0.1297 -0.0291
10188W        W29722   6.771   7.007   1.569  0.0634  0.0698 -0.1009
10189W        W29723   5.465  13.888  12.418  0.1164 -0.3293 -0.1938
10190W        W29724   1.850  16.496   1.682  0.3385 -0.2951 -0.2634
10191W        W29725  11.800   5.858   1.742  0.0235 -0.0809 -0.2085
10192W        W29726   7.726   5.867   0.450 -0.0908 -0.1792  0.0854
10193W        W29727   9.435   2.294   4.741 -0.2785 -0.0138 -0.0605
10194W        W29728   5.055  10.451  13.625 -0.2579 -0.0688 -0.4415
10195W        W29729   8.437  17.011  11.348  0.2725  0.3026 -0.0430
10196W        W29730   3.380  17.695  11.638 -0.1150  0.0507  0.1256
10197W        W29731   5.341   5.115   0.588  0.3000  0.1698  0.2824
10198W        W29732   6.710  11.250   1.897  0.1704  0.2921  0.2107
10199W        W29733  10.886  11.762   1.166 -0.0723 -0.0447  0.0509
10200W        W29734  13.410  17.548   4.244 -0.1413  0.1027 -0.3151
10201W        W29735   4.265  15.819   0.288  0.2806  0.2986 -0.1512
10202W        W29736  15.345  17.099  15.542  0.2627 -0.3021 -0.2293
10203W        W29737  10.797   7.379   4.011  0.0280  0.2986 -0.0579
10204W        W29738  13.692   0.331  12.810  0.1938 -0.1504  0.1194
10205W        W29739  15.664  12.398   0.973  0.0359 -0.1145 -0.0835
10206W        W29740  13.104  11.295  14.954  0.2054 -0.2438 -0.0393
10207W        W29741  10.163   7.526   1.151 -0.1566  0.0117  0.1496
10208W        W29742   6.889  11.357   4.434 -0.1596 -0.3839  0.1079
10209W        W29743   6.545  17.211  14.889 -0.1627 -0.1431 -0.1482
10210W        W29744  16.356   1.409   2.264 -0.0309 -0.0730 -0.1051
10211W        W29745  16.806  11.597  14.024 -0.0637 -0.0814  0.1432
10212W        W29746  13.561  13.828   0.912 -0.0555 -0.1458 -0.0828
10213W        W29747  17.209  15.791   1.691 -0.0898  0.1107  0.1709
10214W        W29748  14.727  16.625  15.286  0.0066 -0.1300  0.0720
10215W        W29749  17.964  18.311  11.495  0.3355  0.2431 -0.2352
10216W        W29750  12.809   6.745   0.186  0.0471 -0.1720  0.0768
10217W        W29751  17.505   6.069   4.038  0.0516 -0.0738  0.3004
10218W        W29752  11.269   3.222   2.021 -0.0987 -0.2325 -0.0104
10219W        W29753   1.660  12.690   3.758  0.2817 -0.1836  0.0861
10220W        W29754   7.931  10.823   2.032 -0.0448  0.0851  0.0507
10221W        W29755   9.063   6.531   2.199  0.0401  0.2500  0.0327
10222W        W29756   7.068  12.784  14.618 -0.3346 -0.0520 -0.2064
10223W        W29757   8.955   4.084   4.554 -0.1182 -0.2173 -0.3314
10224W        W29758  14.315  16.624  13.001  0.1495 -0.0968  0.0547
10225W        W29759   0.862  13.975  15.169 -0.2178 -0.0963 -0.0108
10226W        W29760   6.213   3.006   2.754 -0.0247  0.3675  0.1285
10227W        W29761  15.070  13.598  11.724  0.0355  0.0136 -0.0728
10228W        W29762   3.277   8.508  10.932 -0.2149 -0.3606 -0.2323
10229W        W29763  12.266   5.472   2.899  0.0120  0.0057 -0.1065
10230W        W29764   1.993  17.049  12.213 -0.1409  0.1082  0.0813
10231W        W29765   2.210   5.650  11.824 -0.0645 -0.1677 -0.0742
10232W        W29766  17.270   2.968   4.109  0.0530  0.0465  0.1917
10233W        W29767  16.218   7.121  11.547 -0.4558  0.1095  0.0171
10234W        W29768  12.393   6.809  14.825  0.0647 -0.0010 -0.3368
10235W        W29769  13.351   3.123  14.019  0.0821  0.1759  0.2031
10236W        W29770   9.229   3.384  14.955 -0.0988 -0.0865 -0.3111
10237W        W29771   0.143   7.959  13.349 -0.3789 -0.1051  0.1823
10238W        W29772  15.835  12.988  13.447  0.4124 -0.1085 -0.2208
10239W        W29773  12.051  14.865  11.261 -0.2031  0.0988 -0.0186
10240W        W29774  11.639   3.771  14.694 -0.0444  0.2497 -0.0356
10241W        W29775  12.485   9.126   4.657 -0.2179 -0.0584  0.1483
10242W        W29776  17.893   4.792  12.825 -0.1376  0.1695  0.0287
10243W        W29777  15.243   9.991  14.474  0.0620  0.1534 -0.0682
10244W        W29778  10.120   0.595   1.518  0.1322  0.4025 -0.1758
10245W        W29779   2.429   3.203   5.090  0.0074 -0.0420 -0.1415
10246W        W29780  11.547  14.803  15.106  0.1445  0.2127 -0.1047
10247W        W29781   7.222   1.174   4.732  0.1814 -0.1777  0.2297
10248W        W29782   5.098   1.661   3.254  0.1139 -0.1826 -0.1658
10249W        W29783   3.857  16.104  12.559 -0.3705 -0.0932  0.0548
10250W        W29784   0.832  11.588  12.915 -0.0076  0.2492 -0.1095
10251W        W29785   5.110  10.735  14.891 -0.0500  0.1750 -0.0196
10252W        W29786   8.610   3.498   4.817  0.1686 -0.0250 -0.0006
10253W        W29787   3.134  17.601   0.099  0.1091  0.1203 -0.0410
10254W        W29788   7.777   5.529  11.994 -0.2398 -0.0877 -0.1957
10255W        W29789   8.301  17.835  14.813  0.0257 -0.1321  0.0396
10256W        W29790  10.575   9.456  13.108  0.0947 -0.0436 -0.0561
10257W        W29791  13.837   6.002  15.592 -0.0014  0.0388  0.2225
10258W        W29792   8.956  14.301   3.453 -0.0677  0.1425  0.1459
10259W        W29793  15.399   5.629  13.135 -0.2168  0.1831  0.1687
10260W        W29794   5.725   5.635  13.322  0.1408  0.1763  0.2945
10261W        W29795  12.317  10.837  13.615  0.0862  0.1037  0.1099
10262W        W29796   8.443  14.245  15.471 -0.3935 -0.0010 -0.0232
10263W        W29797  10.979   0.340   2.338  0.1603 -0.1992 -0.0834
10264W        W29798   8.540  18.048   0.616 -0.2109  0.2697 -0.3733
10265W        W29799   8.167   0.895  14.321  0.0181 -0.1764  0.0683
10266W        W29800   3.063  17.008   0.623  0.2186 -0.1863 -0.0783
10267W        W29801  17.788   5.904   2.333  0.0229 -0.0538  0.2382
10268W        W29802   3.313   4.656   1.103  0.2249 -0.1783 -0.1355
10269W        W29803  13.571  10.439   2.767 -0.0087  0.3880  0.1447
10270W        W29804  13.115  14.778  13.587 -0.0073  0.1868 -0.1937
10271W        W29805   5.407   3.007  12.700 -0.1810  0.3939 -0.0751
10272W        W29806   8.676   9.844   2.508  0.1366 -0.1482 -0.0681
10273W        W29807  12.073   3.868  11.038  0.0188 -0.2050  0.1705
10274W        W29808   1.429  10.108  11.832 -0.1765 -0.1240  0.1233
10275W        W29809   4.601   9.854  14.552 -0.0306 -0.2220  0.0402
10276W        W29810   2.510   0.658  15.413 -0.0217 -0.1967  0.0011
10277W        W29811   8.832   9.381  11.917 -0.0897  0.1579  0.1030
10278W        W29812  13.015  16.015   4.042  0.3404  0.2090  0.2900
10279W        W29813  16.030  17.491   0.961  0.0051 -0.0189  0.1384
10280W        W29814  12.569   3.707   1.946  0.0652  0.3358  0.0241
10281W        W29815  15.854  10.311  15.605  0.0865  0.0344 -0.2102
10282W        W29816  11.277   9.845  15.527  0.2908 -0.0981 -0.0415
10283W        W29817  15.732  17.246   4.322  0.0658 -0.1466 -0.3433
10284W        W29818  18.008  15.561  14.782 -0.0542  0.1312  0.1324
10285W        W29819   4.866   5.931  14.010  0.1628  0.1084  0.0616
10286W        W29820  10.757   4.265   1.535 -0.4077  0.0616 -0.0917
10287W        W29821   9.222   6.928   1.317 -0.3283  0.3925 -0.0599
10288W        W29822   0.407  14.958  13.398  0.0927  0.1088  0.1895
10289W        W29823   3.163  12.783  13.851  0.0205  0.0301  0.1926
10290W        W29824  18.035   9.764   0.526 -0.2477  0.0703  0.1893
10291W        W29825   2.048  13.550   2.798 -0.1972 -0.2146  0.2006
10292W        W29826   5.769   4.483   2.110 -0.0523 -0.4787 -0.3938
10293W        W29827   8.781  10.646  14.316 -0.0943 -0.3247  0.2597
10294W        W29828   2.107   3.305  11.026  0.4772 -0.0690 -0.0555
10295W        W29829   4.828  16.392  12.901  0.1651 -0.0391  0.2576
10296W        W29830  14.419  15.513   1.487 -0.2176  0.4227  0.1473
10297W        W29831   6.557   9.588  15.366  0.1001  0.3530 -0.0143
10298W        W29832  13.805   1.751  11.649  0.0998  0.1498  0.3145
10299W        W29833  13.532   9.658   3.436  0.0035 -0.0352 -0.2394
10300W        W29834  15.766   2.367  13.687  0.2792  0.0037 -0.0905
10301W        W29835  16.533  17.466   2.677  0.0559  0.3093 -0.0410
10302W        W29836  16.771  18.184   4.121 -0.0934 -0.0497  0.3218
10303W        W29837   6.595   6.475   1.069  0.2362  0.0285 -0.1648
10304W        W29838   2.300  14.457   3.628 -0.1409 -0.1543 -0.1483
10305W        W29839   0.559   7.099   2.699 -0.3382  0.2482 -0.0543
10306W        W29840   0.716   9.466   3.778 -0.0295 -0.1094 -0.2455
10307W        W29841  16.264   7.624   5.414  0.1305  0.2103 -0.2094
10308W        W29842  11.140  11.691  14.181  0.2853 -0.3556  0.2589
10309W        W29843   7.234  10.556   2.801 -0.1635 -0.1979  0.2506
10310W        W29844   6.652  10.817   0.532  0.1119  0.2469 -0.3806
10311W        W29845  11.652  16.498  15.255 -0.3028  0.1093 -0.1364
10312W        W29846   6.765   7.809  14.579 -0.1969  0.0897  0.0691
10313W        W29847  10.969   3.262  15.119 -0.0513 -0.0954  0.0857
10314W        W29848  15.080   7.161   3.110 -0.0455 -0.2503  0.0444
10315W        W29849   6.525  13.112  10.984  0.0431  0.1825  0.2431
10316W        W29850  10.939   5.285   3.964 -0.1509 -0.0319 -0.1012
10317W        W29851  13.476  14.862   3.557 -0.1336 -0.0384 -0.0967
10318W        W29852   5.069   5.095   1.047  0.3287  0.2339  0.0787
10319W        W29853   9.254   5.237  14.328 -0.1290 -0.2104 -0.0885
10320W        W29854   6.879  12.952  15.782  0.1531  0.1903 -0.0653
10321W        W29855  16.947  17.360   2.885  0.0997 -0.0650 -0.0637
10322W        W29856  17.984  13.481  15.706 -0.0972  0.0360  0.1586
10323W        W29857  17.650   0.512  13.165  0.0443 -0.1492  0.2529
10324W        W29858   1.104   4.755   2.991  0.1184 -0.3964  0.1334
10325W        W29859  15.270  12.000   2.077 -0.1118  0.2590 -0.3275
10326W        W29860   1.070   3.580  12.226 -0.1555  0.0992 -0.3886
10327W        W29861   1.791   8.716  11.370 -0.0911  0.3118  0.0034
10328W        W29862   9.371  11.454   3.575 -0.1370 -0.3188  0.2497
10329W        W29863   9.801   7.004  11.755 -0.2386 -0.3952  0.1520
10330W        W29864   4.644   3.758   1.173  0.0348  0.1283  0.0489
10331W        W29865  10.468  16.135   3.700 -0.0067 -0.1018  0.1116
10332W        W29866   4.564   2.637   4.225 -0.0497 -0.0677 -0.0207
10333W        W29867   1.893   5.720   1.577  0.4954 -0.1114  0.0284
10334W        W29868  11.023  15.645   4.515  0.1282  0.1718  0.0284
10335W        W29869   4.196  13.066   3.408  0.0621  0.1290 -0.1795
10336W        W29870   5.895   2.900  12.750 -0.0549  0.1399  0.0807
10337W        W29871  15.887   6.443  12.763 -0.1456  0.0139  0.1228
10338W        W29872   4.237  12.343  14.922  0.0407 -0.2041  0.0753
10339W        W29873   8.602   9.773   0.539  0.0026 -0.0198  0.1966
10340W        W29874  14.610   9.501   0.805  0.1593 -0.0088  0.3034
10341W        W29875   0.966  16.420  14.484 -0.0846  0.2142  0.2228
10342W        W29876   2.842   6.570   0.724  0.0887  0.1212  0.1161
10343W        W29877  15.499  15.479   3.485  0.0019  0.0593 -0.1427
10344W        W29878   9.780   5.975  14.023  0.0031 -0.1121  0.0764
10345W        W29879   3.687   4.190   4.013  0.0616  0.0999 -0.2589
10346W        W29880  12.040  12.750   0.924 -0.0909  0.5239 -0.0807
10347W        W29881   3.992   6.064  12.941 -0.0951 -0.1935  0.2082
10348W        W29882  17.508   3.205  12.970 -0.0450 -0.0242 -0.1429
10349W        W29883   9.289  10.242  13.170  0.3115 -0.1186 -0.1146
10350W        W29884   0.191  11.506   2.785  0.1914  0.0809  0.0089
10351W        W29885  16.235   3.004  14.429  0.0758 -0.0977  0.1244
10352W        W29886   2.043  17.608   4.411  0.0193  0.1757  0.0614
10353W        W29887  16.826   4.600   0.445  0.5293  0.3279  0.3367
10354W        W29888  13.936  16.220   3.986  0.3651  0.0809 -0.0450
10355W        W29889   2.067  10.991   3.871 -0.1551  0.0790  0.1002
10356W        W29890   8.982   5.212   1.256 -0.0200 -0.2718  0.0267
10357W        W29891   9.025   2.984  12.231 -0.2350  0.1129  0.1096
10358W        W29892  11.312   2.000   2.384  0.1255  0.2583 -0.2542
10359W        W29893  14.233   7.763  11.360 -0.0159  0.1812 -0.1966
10360W        W29894  14.405  11.980   4.111  0.1173  0.2190  0.0479
10361W        W29895   2.125  16.253   1.332  0.1331  0.2627 -0.1593
10362W        W29896   7.650   9.165   3.279  0.1881  0.0824 -0.2590
10363W        W29897   2.424  18.044   3.397  0.0919  0.0402  0.0299
10364W        W29898  10.538   5.827   0.069  0.1104  0.2048  0.1062
10365W        W29899   8.755   9.299  13.388  0.2646 -0.0032  0.0871
10366W        W29900  11.917   4.729   0.700  0.1843 -0.2802 -0.0549
10367W        W29901   6.754   1.254   1.673  0.1208 -0.1934 -0.1189
10368W        W29902   7.693  12.718  11.653 -0.0688 -0.1966 -0.1453
10369W        W29903   9.621   8.017  13.996  0.0700 -0.0427 -0.2759
10370W        W29904   1.500   6.402   0.652 -0.1563 -0.3453  0.2787
10371W        W29905   0.439   8.394   4.887  0.2370  0.0675  0.0870
10372W        W29906   4.085   7.186  15.108 -0.2205  0.1015 -0.2239
10373W        W29907  13.857   5.601   4.221 -0.0214  0.0307 -0.0044
10374W        W29908   9.096   8.733   0.348  0.1319  0.1401 -0.2207
10375W        W29909  17.399   8.287   3.239 -0.0835  0.1607 -0.2165
10376W        W29910  15.285   8.575   4.552  0.0673  0.4005  0.3165
10377W        W29911  13.162   7.744   2.211  0.0520 -0.0772  0.2675
10378W        W29912   7.475  17.505  14.775  0.0754  0.0346 -0.0832
10379W        W29913   3.110   6.704  11.740  0.1378 -0.1850  0.3191
10380W        W29914   4.418  16.768   2.170 -0.3137 -0.2740 -0.0718
10381W        W29915   2.424   0.883   1.782 -0.2251  0.1140 -0.0267
10382W        W29916  18.137   2.674  14.236 -0.1572  0.1516 -0.1027
10383W        W29917   5.157  15.045   1.781  0.6596  0.0438  0.3209
10384W        W29918   3.231   9.199  12.241  0.0022  0.0554 -0.3099
10385W        W29919   7.308   0.650   3.652 -0.1202 -0.0124  0.2262
10386W        W29920   7.321   2.539   5.627 -0.3777  0.0235 -0.0799
10387W        W29921  13.059   7.653  14.267 -0.0121  0.0631  0.0319
10388W        W29922   5.086   8.322  12.353 -0.0450 -0.1844 -0.2403
10389W        W29923   2.392  11.270   0.095 -0.2421  0.1423 -0.2290
10390W        W29924   5.667   7.617   3.727  0.1875 -0.2213  0.0973
10391W        W29925   2.003   8.536   1.160  0.2404  0.0468 -0.1975
10392W        W29926   0.311   5.350   2.353  0.2078  0.0380  0.0104
10393W        W29927  10.205   5.786  15.508  0.0566 -0.0464  0.1446
10394W        W29928  15.200  10.117  11.473 -0.1872  0.2811  0.2848
10395W        W29929   6.696  10.857   2.849  0.1659 -0.0487  0.1279
10396W        W29930   0.431   9.982   2.420  0.0817 -0.1246  0.1185
10397W        W29931   4.461  15.065  12.312 -0.2664 -0.0631  0.0672
10398W        W29932  13.756  12.297   4.854  0.2989 -0.0300  0.0145
10399W        W29933  17.474  17.303   3.056  0.0633 -0.1905  0.0770
10400W        W29934   4.523   8.764  13.021  0.2782  0.0524  0.0481
10401W        W29935   6.187  16.010  12.178  0.0502  0.0302  0.0975
10402W        W29936  13.204  13.411  14.642 -0.0723  0.0744  0.1223
10403W        W29937  14.150   2.376  15.404 -0.1384 -0.0241 -0.0646
10404W        W29938  18.179  11.071  13.953 -0.1578  0.2643 -0.0732
10405W        W29939  11.882  16.019   0.204  0.1261 -0.3580  0.1350
10406W        W29940  15.766   5.712  15.599  0.0246 -0.1945 -0.0804
10407W        W29941  10.835   4.241   3.891  0.4062 -0.1566  0.2771
10408W        W29942   7.563  14.924   0.129  0.1265  0.0357  0.3105
10409W        W29943  16.713  12.573  11.253  0.5722 -0.4244  0.1335
10410W        W29944  16.514   6.858   1.854 -0.0390 -0.0308  0.0312
10411W        W29945   1.196  16.172  15.445 -0.0334  0.0452  0.3303
10412W        W29946   3.568   4.960  11.577 -0.1069  0.2354  0.2510
10413W        W29947  12.038  10.213  15.392 -0.4085 -0.1294 -0.0297
10414W        W29948   4.042   3.629  14.072  0.1592  0.0028  0.1747
10415W        W29949   8.623  12.689  13.510 -0.4795  0.0591  0.1940
10416W        W29950   6.069  12.563   4.176 -0.3155  0.2513 -0.0975
10417W        W29951  16.349  16.879  11.479 -0.1271 -0.0100 -0.0859
10418W        W29952  12.482   4.686  13.461  0.0543 -0.0515  0.1357
10419W        W29953   2.157   7.322  14.468 -0.0016 -0.2486 -0.0005
10420W        W29954   5.289   7.931  13.186 -0.0510 -0.1856  0.2482
10421W        W29955   2.629   7.200  13.015  0.2448 -0.1723 -0.0049
10422W        W29956  12.948  16.644  15.016 -0.2789  0.1089 -0.2553
10423W        W29957   7.976  10.518   5.583 -0.3507  0.3536 -0.0130
10424W        W29958  10.832   8.908  15.291 -0.0487  0.4357  0.0644
10425W        W29959  11.887   7.583  15.001 -0.0673  0.0068  0.2884
10426W        W29960   6.188  15.332  12.408 -0.0159 -0.1854  0.0991
10427W        W29961  12.776   7.482   0.847  0.0546  0.1703 -0.0797
10428W        W29962   2.241   0.688   0.273  0.1170 -0.0890 -0.0798
10429W        W29963   7.509   6.889  15.592  0.0396  0.0516 -0.0124
10430W        W29964   3.324   3.252   1.506  0.1906  0.1881 -0.1324
10431W        W29965  14.900   9.564  11.486  0.2540 -0.0050  0.0005
10432W        W29966   1.935   7.183  11.834 -0.1491  0.1099  0.0752
10433W        W29967   5.819   7.224  13.683  0.0556 -0.1096 -0.1662
10434W        W29968  15.774  15.470  12.115 -0.1183 -0.0647 -0.2803
10435W        W29969  14.207   4.367   3.594  0.0566 -0.1809 -0.1343
10436W        W29970  15.988   3.534  12.320  0.1095  0.0891  0.0244
10437W        W29971  13.511   4.664   1.256 -0.3910 -0.1378  0.0545
10438W        W29972   9.042  16.773  12.405 -0.2781  0.2709  0.1300
10439W        W29973   6.931   5.779   3.514 -0.0774 -0.2264  0.0177
10440W        W29974   2.917   8.219   3.775  0.0386 -0.3179 -0.0403
10441W        W29975  17.742  14.119  14.339  0.0283 -0.1913 -0.4692
10442W        W29976   4.574   5.193  15.282  0.0019 -0.1648 -0.3273
10443W        W29977   3.525   8.889   0.283 -0.0259  0.1308 -0.3242
10444W        W29978   4.772  12.262   2.803  0.0503  0.3715  0.2092
10445W        W29979  17.070   9.157   3.645 -0.1538  0.1895 -0.0328
10446W        W29980  13.109   4.033   2.265  0.0925  0.0266  0.0879
10447W        W29981  13.687  11.973  12.356  0.1573 -0.1716 -0.0406
10448W        W29982   9.750   5.638   1.251 -0.0427 -0.0625  0.1445
10449W        W29983  14.799   9.146   1.447  0.1170  0.1438 -0.0538
10450W        W29984   1.593  15.812   3.068  0.5617 -0.3024 -0.2962
10451W        W29985   1.922   8.218   2.141  0.2399 -0.1972 -0.1263
10452W        W29986   0.693   1.555   1.264 -0.2405  0.2924  0.0544
10453W        W29987   8.245  11.233   1.049 -0.1061  0.1430  0.1374
10454W        W29988  18.043   3.007  10.817 -0.2858 -0.0110  0.0634
10455W        W29989   1.093  10.209  14.732  0.1806 -0.0901  0.1983
10456W        W29990   4.617   5.873   3.661  0.0013 -0.2172  0.0579
10457W        W29991  16.106   0.372   1.116 -0.2293 -0.1074  0.1700
10458W        W29992   7.525   2.350  13.920  0.0601  0.0135 -0.0179
10459W        W29993   3.770  13.085   4.285 -0.0111 -0.0713  0.0438
10460W        W29994   5.354  10.579   3.354  0.4360 -0.1121 -0.0863
10461W        W29995  18.019   9.878   2.965  0.0419  0.0538  0.0958
10462W        W29996  14.435  18.331   5.603 -0.1030 -0.0269  0.0173
10463W        W29997  16.938  13.540  12.875  0.0788 -0.1452 -0.0720
10464W        W29998  15.596   6.377  10.275  0.1077  0.0391  0.0941
10465W        W29999  12.563   5.057  15.811  0.1328  0.1973 -0.2483
10466W        W30000  11.686   1.565   1.422 -0.3562  0.1180 -0.2825
10467W        W30001  17.971  16.441  14.759 -0.0469 -0.0509 -0.1720
10468W        W30002  17.971  15.806  11.546 -0.2524 -0.1936  0.2255
10469W        W30003   3.307  15.714  12.430  0.0476  0.0706  0.2403
10470W        W30004   8.356   1.844  13.345  0.0389 -0.1794 -0.0029
10471W        W30005  17.059   4.631  13.750 -0.2138  0.1349  0.3098
10472W        W30006  12.240  11.145   3.300  0.1460 -0.1826 -0.0337
10473W        W30007   4.818  12.000   1.168  0.1270 -0.0998 -0.2366
10474W        W30008   9.253  16.231   0.905  0.2443  0.3099  0.0436
10475W        W30009  16.912   2.613   3.019 -0.1484 -0.3497 -0.3618
10476W        W30010   8.198   4.028  11.789  0.0696  0.1677 -0.2752
10477W        W30011  16.058  11.181   3.272  0.1279 -0.1439  0.2804
10478W        W30012  16.385   5.431   0.258  0.2477  0.0567  0.2439
10479W        W30013   5.454   3.365   1.333  0.0774 -0.0769  0.1430
10480W        W30014  15.967  10.765  12.416  0.0746 -0.0749  0.1037
10481W        W30015   0.932   7.645   3.286  0.0348 -0.0712  0.1667
10482W        W30016  17.250  14.853   0.867 -0.2242  0.2900 -0.2420
10483W        W30017   7.500   3.950   4.467 -0.0430  0.0620  0.3680
10484W        W30018   3.807   3.851   0.603 -0.0341  0.2375 -0.1902
10485W        W30019  11.216  11.937   4.255  0.2462 -0.0601  0.3477
10486W        W30020  14.839  12.536   0.579 -0.2341 -0.0500  0.0379
10487W        W30021  16.217  12.086   3.633 -0.0327  0.1978 -0.2460
10488W        W30022  14.602   2.680   3.524 -0.0181  0.0682 -0.0260
10489W        W30023   6.302  12.236  13.715 -0.0378 -0.1319 -0.0817
10490W        W30024   7.021  10.643   0.109 -0.1167  0.0631  0.1805
10491W        W30025  11.224  15.901  14.508 -0.0688  0.2167  0.2304
10492W        W30026  14.449   8.352   1.808 -0.0399  0.0676  0.0243
10493W        W30027   3.941  15.006   0.807  0.2361 -0.1767 -0.0613
10494W        W30028  10.018   4.835   3.694  0.1152 -0.1828  0.1377
10495W        W30029  13.408   7.606  15.114  0.1968  0.1116  0.0234
10496W        W30030   7.637  15.623   0.264  0.0859 -0.0152  0.3207
10497W        W30031   4.913  16.254   4.198  0.2401  0.1655  0.2183
10498W        W30032  10.220   7.932   1.394  0.1922 -0.2805  0.1942
10499W        W30033   1.416  18.265  13.129  0.2409  0.0500 -0.2266
10500W        W30034   9.457   8.073  14.507 -0.0212  0.0952  0.0797
10501W        W30035  16.456  15.211  15.364  0.1674  0.0303 -0.1454
10502W        W30036   3.962  11.853   3.833  0.1476  0.1725  0.3798
10503W        W30037  18.148  10.769   2.693  0.0282 -0.0029 -0.0040
10504W        W30038   5.868   6.176  12.866  0.0357 -0.1410  0.1487
10505W        W30039  18.257  13.786   1.295  0.0370 -0.0667  0.3571
10506W        W30040  16.522  10.509  11.695  0.0467 -0.1105 -0.2610
10507W        W30041  14.346  16.451  14.176 -0.2060 -0.1244 -0.1843
10508W        W30042  16.812   7.369   1.039  0.2267 -0.1247 -0.1619
10509W        W30043  11.428  17.636  13.679  0.0785  0.0540  0.0403
10510W        W30044   1.445   0.306  14.842 -0.0247 -0.0110  0.0747
10511W        W30045  17.972  17.315  13.974 -0.1698  0.2085  0.1255
10512W        W30046  18.145   0.304   2.599  0.0791 -0.4608  0.2229
10513W        W30047  17.682   4.857  15.457 -0.1413 -0.1432 -0.0738
10514W        W30048   9.050  18.233  15.528 -0.1645  0.2565 -0.1756
10515W        W30049   7.053  14.328  15.446 -0.0136 -0.2584 -0.2166
10516W        W30050   4.111  10.689  14.594  0.0158  0.1758 -0.0178
10517W        W30051   4.111  17.982   2.049 -0.2408  0.2487 -0.0545
10518W        W30052  14.732  17.116   3.269  0.2953  0.0711 -0.1010
10519W        W30053  15.771  12.838   1.836 -0.0997 -0.2312 -0.0042
10520W        W30054   3.543  13.410   2.954 -0.2208 -0.1499  0.0261
10521W        W30055   7.777  14.183  14.980 -0.0908 -0.0326 -0.0758
10522W        W30056   7.884   9.906  12.697 -0.0526  0.0196 -0.0409
10523W        W30057   7.818   8.535   0.170 -0.0988  0.0345  0.2299
10524W        W30058   0.107  10.377   2.561 -0.1083  0.0999 -0.1113
10525W        W30059   9.303  15.380  12.066  0.1474  0.1354 -0.2716
10526W        W30060   4.646   4.348   1.452  0.1602  0.0879 -0.0012
10527W        W30061  12.321   2.781  15.661 -0.3212 -0.2759  0.3380
10528W        W30062  16.690   6.137  12.094  0.0529 -0.0897  0.1046
10529W        W30063   9.546   1.837   0.956 -0.0308  0.0833 -0.1417
10530W        W30064   2.407  11.295   1.161 -0.1282  0.1230 -0.1840
10531W        W30065  12.795   2.644   4.175 -0.0721 -0.3210  0.5232
10532W        W30066   1.691  11.770  13.183  0.0629 -0.0653  0.0975
10533W        W30067   6.968  16.857  15.474 -0.3010  0.2847  0.1108
10534W        W30068  15.859   9.687   0.461 -0.3796 -0.1102  0.2843
10535W        W30069   5.236   7.409  14.455 -0.0192  0.0472 -0.1921
10536W        W30070   1.052   2.672  12.092  0.1952 -0.0969 -0.4236
10537W        W30071  15.956   8.594   3.797 -0.0996 -0.0117  0.1706
10538W        W30072   2.378   8.232   0.656  0.0149  0.2403 -0.3323
10539W        W30073  12.357  15.883   0.140 -0.1592 -0.1977  0.1963
10540W        W30074  12.234   0.107   2.126  0.2276 -0.0202  0.0260
10541W        W30075  17.472  11.125   1.954 -0.0364 -0.3992 -0.0848
10542W        W30076   3.907   3.953  15.594 -0.1579 -0.0298 -0.0312
10543W        W30077   2.387  13.572   4.970 -0.0127  0.0642  0.0573
10544W        W30078   3.151  11.077  14.202 -0.0225 -0.1941  0.2511
10545W        W30079  15.276  13.494   4.319 -0.3102 -0.2203  0.2626
10546W        W30080  10.192   3.796  15.137  0.1068 -0.3723  0.0237
10547W        W30081   7.243  15.953   0.150 -0.2222  0.1167  0.1181
10548W        W30082  12.787  12.466  13.154  0.1290 -0.0750  0.1508
10549W        W30083   3.078   5.748   0.712  0.0962  0.3314 -0.3005
10550W        W30084  10.726   1.179   2.322  0.4421  0.2769 -0.1639
10551W        W30085  13.850   5.480  11.065  0.2899  0.1075 -0.0073
10552W        W30086  10.149   5.733   0.850 -0.1665 -0.0959 -0.2543
10553W        W30087  11.389  17.854   2.264  0.0937  0.1941  0.1502
10554W        W30088   3.533  10.137  11.863  0.2130  0.3210  0.0018
10555W        W30089   9.698   3.355   3.772 -0.1040 -0.0235  0.1282
10556W        W30090  13.729  13.324  14.421 -0.2264 -0.3718 -0.0206
10557W        W30091   5.275  15.199  13.893  0.1361 -0.0468 -0.3504
10558W        W30092  16.669  13.052  13.801 -0.0788  0.0879 -0.2463
10559W        W30093  16.174   8.558  12.761 -0.0812 -0.0806  0.1392
10560W        W30094   7.461  12.843   0.999 -0.0515  0.1656  0.1990
10561W        W30095   0.347   2.831   1.089 -0.1518  0.0250  0.1013
10562W        W30096  15.613   8.371   4.223 -0.1457 -0.0162  0.0170
10563W        W30097   1.128   4.795  12.595 -0.1486  0.1700 -0.1215
10564W        W30098  10.215   6.929  14.900 -0.0907  0.4898 -0.2261
10565W        W30099   7.088  16.610  11.892 -0.2622 -0.0374  0.3652
10566W        W30100   0.746   7.251  13.725 -0.3634 -0.0896  0.0306
10567W        W30101  15.767  15.924   4.238 -0.1395  0.0226 -0.0826
10568W        W30102   7.122  10.112   3.068  0.0736 -0.2058 -0.3421
10569W        W30103  16.816   2.015  11.690 -0.0602  0.1289  0.0959
10570W        W30104   9.798   3.832   1.529 -0.0399  0.0361  0.0237
10571W        W30105   7.166   2.768   3.056  0.0104  0.0365  0.1186
10572W        W30106   1.603  10.448  14.801  0.1183  0.0221  0.0120
10573W        W30107  13.550   7.950   4.402  0.0801 -0.1623  0.0434
10574W        W30108   9.639  14.796  15.710  0.1768 -0.1737  0.2468
10575W        W30109   9.555   3.521   4.712 -0.0993  0.0262 -0.1854
10576W        W30110   5.572   4.710  15.727  0.0238  0.0340  0.0591
10577W        W30111   1.690   7.536   3.613 -0.0512 -0.2305 -0.0004
10578W        W30112   7.810  10.193   4.175  0.1591  0.0259  0.3723
10579W        W30113   5.575   4.908  14.806  0.1477 -0.0316 -0.2199
10580W        W30114  14.896  11.326  13.972 -0.0295 -0.0221 -0.0119
10581W        W30115  11.168   8.988  14.911 -0.0679  0.2721 -0.1015
10582W        W30116  10.931  14.011  12.675  0.0200  0.0425  0.1560
10583W        W30117   5.204   5.849  14.390 -0.1196  0.1930  0.1374
10584W        W30118   5.568  15.187   3.357 -0.0183  0.1044 -0.0942
10585W        W30119  10.791   0.969  12.438  0.1125 -0.3253  0.2313
10586W        W30120   6.291   9.952   0.871 -0.0495  0.0207  0.2059
10587W        W30121  18.213  13.410   2.491  0.1292  0.3610  0.0244
10588W        W30122  15.655  17.632  11.461 -0.1298 -0.2912  0.1278
10589W        W30123  13.442   4.402   2.289 -0.1720 -0.0815 -0.0097
10590W        W30124   3.355  14.368  13.399 -0.2297 -0.1554 -0.1213
10591W        W30125  12.323   6.034   2.781 -0.0327  0.2489  0.0499
10592W        W30126   9.440   4.743  13.240  0.0071 -0.2070  0.0618
10593W        W30127  12.561   0.777  15.812 -0.3341 -0.1930 -0.1393
10594W        W30128   8.544  18.088   3.672  0.1598  0.0592  0.1477
10595W        W30129  11.913   5.470  13.240  0.3027  0.2355 -0.0592
10596W        W30130   3.575   7.559   2.661 -0.1658  0.0690 -0.0346
10597W        W30131   5.267   6.743  12.529 -0.1248 -0.1387 -0.3836
10598W        W30132  12.778  18.150  15.646 -0.1913 -0.1978 -0.0070
10599W        W30133  14.162   8.977   3.823  0.0943 -0.0550  0.0180
10600W        W30134   1.343  14.991   3.580  0.0063 -0.1043 -0.0776
10601W        W30135   9.885  14.563   3.202  0.3429  0.0758 -0.2244
10602W        W30136   8.222  10.158  12.888 -0.2267  0.0642  0.1365
10603W        W30137   7.044  13.829   4.086 -0.2877  0.4537  0.1211
10604W        W30138   5.161   9.319  13.548  0.1012  0.1146  0.0552
10605W        W30139  15.582  10.822   0.830  0.4985 -0.1208 -0.1007
10606W        W30140   2.797  14.736  15.165  0.0028 -0.1692  0.0747
10607W        W30141  12.680   6.601  15.549 -0.1552 -0.2381  0.0816
10608W        W30142   9.176  18.137  13.325 -0.0701  0.1163 -0.0361
10609W        W30143   9.053   4.291  10.949  0.1329  0.1997  0.2148
10610W        W30144  16.805   3.716   0.459  0.0124  0.2371  0.2362
10611W        W30145   5.998   9.476  15.522  0.2620 -0.0329 -0.0894
10612W        W30146  17.741   6.667  15.175 -0.0793 -0.4049  0.2206
10613W        W30147   9.435   1.357  15.819  0.3356 -0.2463 -0.0646
10614W        W30148   5.883  17.161   0.432 -0.2736  0.1600 -0.2027
10615W        W30149   1.700  14.726  14.750  0.0986 -0.0988  0.0818
10616W        W30150   3.237  12.088   3.126  0.3186  0.2262  0.0419
10617W        W30151   6.278   2.609  12.102 -0.0984  0.0288  0.1425
10618W        W30152  14.943   6.666  14.779 -0.2136 -0.2955  0.0272
10619W        W30153  13.736   5.676   0.680  0.0191  0.0157 -0.2583
10620W        W30154   2.084  14.199  12.365 -0.0294 -0.3400 -0.3978
10621W        W30155  14.153   7.822   1.146  0.1906  0.0122  0.0014
10622W        W30156   0.715  15.392  13.370  0.0404 -0.0744 -0.0659
10623W        W30157  10.054   2.664   5.327  0.2010 -0.2286 -0.0914
10624W        W30158   8.319   7.105  12.685  0.1662 -0.1540  0.0055
10625W        W30159  10.724  17.920  15.185  0.0509  0.0055  0.0505
10626W        W30160  12.528   4.514   0.606  0.3674  0.1722 -0.1589
10627W        W30161  14.451  11.361  13.298 -0.0415 -0.0486 -0.0066
10628W        W30162   6.172   9.547  14.004 -0.1574 -0.3565  0.0189
10629W        W30163   8.890  10.738   3.908  0.0417 -0.4333  0.2945
10630W        W30164   5.220  12.342   2.604  0.1236 -0.2903  0.1543
10631W        W30165  13.311   4.877  14.784  0.0864 -0.1988 -0.3005
10632W        W30166   9.572   7.263  15.663 -0.0297  0.1060  0.0642
10633W        W30167   5.392  14.488  14.850 -0.0472  0.0869 -0.3276
10634W        W30168  11.674  13.174   0.245 -0.1541 -0.1657 -0.1676
10635W        W30169  16.952  15.000   0.468  0.0136  0.1790  0.1437
10636W        W30170   0.798  10.310   2.785  0.2204 -0.1338 -0.3212
10637W        W30171  15.809   5.674   0.765  0.3043  0.2561  0.0093
10638W        W30172   5.423   8.294  14.756  0.1722 -0.0259 -0.0273
10639W        W30173   2.076   3.555  11.417 -0.1472  0.2138 -0.1070
10640W        W30174  16.441   7.657  12.507 -0.1001 -0.2574 -0.0922
10641W        W30175  17.548   8.575   2.554 -0.0245 -0.0242  0.1646
10642W        W30176  17.694   8.053   3.593 -0.0865  0.2205 -0.1503
10643W        W30177  16.513  15.600  14.391 -0.2062  0.1332  0.2777
10644W        W30178  10.319   2.786   3.150  0.5676  0.0657  0.1967
10645W        W30179  12.349  18.103   4.480 -0.1384 -0.3510  0.1869
10646W        W30180   5.389   0.607   3.889 -0.1583  0.2772 -0.1781
10647W        W30181  14.399   2.028  12.428 -0.2807 -0.0123  0.0287
10648W        W30182  17.713  11.238  11.956  0.3921 -0.3234 -0.0984
10649W        W30183   4.560   0.769  13.795 -0.0036  0.1553 -0.2140
10650W        W30184   4.551  16.247   2.954  0.0604  0.4432  0.3554
10651W        W30185   7.054   7.482  11.718  0.0617 -0.1131 -0.2044
10652W        W30186  13.783   5.352   5.153 -0.0534 -0.0132 -0.1381
10653W        W30187  13.830  10.102  11.413  0.2250 -0.0073 -0.2565
10654W        W30188   6.421   7.518   3.476  0.0438  0.2350  0.1331
10655W        W30189   2.480   4.372   0.276  0.2428  0.1429 -0.2363
10656W        W30190   9.092  10.605   4.398 -0.1008  0.0554  0.2860
10657W        W30191  10.965   1.026   3.132 -0.2847 -0.1608 -0.0190
10658W        W30192  15.131   8.606  11.439  0.0380 -0.0215 -0.2158
10659W        W30193  18.320  15.029  14.828 -0.0750 -0.1045 -0.1548
10660W        W30194  14.124   7.577  14.917 -0.0741  0.5023 -0.1420
10661W        W30195  16.184  14.426  11.370 -0.1359 -0.0452 -0.1873
10662W        W30196   2.720   9.942   3.085  0.3474  0.2090 -0.1555
10663W        W30197  13.010   7.873  15.226 -0.0336 -0.0272 -0.1599
10664W        W30198  16.559   4.283  14.926 -0.0077 -0.1161  0.0872
10665W        W30199  16.200  15.657   1.586 -0.1541  0.0495 -0.0015
10666W        W30200  18.362   6.011   3.564  0.1299  0.0957 -0.1029
10667W        W30201   4.165   6.609  11.561  0.0472  0.1132  0.1204
10668W        W30202   7.298   3.635  12.697  0.0959 -0.0842 -0.2124
10669W        W30203  14.625  15.301   2.168  0.2488  0.2552 -0.1105
10670W        W30204   5.571  15.149   1.984  0.1552  0.0357 -0.0985
10671W        W30205  12.549  16.469  12.284  0.0519  0.1727 -0.3220
10672W        W30206  10.358  14.177   3.111 -0.1253 -0.0327 -0.2399
10673W        W30207  17.185  11.093   2.873 -0.2567 -0.3308  0.0457
10674W        W30208   3.130   0.575  14.056 -0.1891  0.1238  0.2169
10675W        W30209   5.050  13.488   1.696  0.0807  0.3559 -0.1720
10676W        W30210   2.565  17.555  11.168 -0.1161  0.2035 -0.4273
10677W        W30211   3.834  11.361  12.595  0.0894 -0.0454 -0.0700
10678W        W30212   4.668   7.357  12.173  0.0486  0.2361 -0.0253
10679W        W30213   8.717  17.637   0.971 -0.1368 -0.2632  0.3147
10680W        W30214   5.400  16.229  13.300 -0.3272  0.0370 -0.0310
10681W        W30215   3.658   5.944   2.635 -0.2962 -0.0858 -0.3556
10682W        W30216   5.942  11.037   3.233  0.2343  0.1206  0.2184
10683W        W30217   4.716  17.153   2.007  0.4259 -0.2293 -0.0441
10684W        W30218   0.949  11.982  11.107  0.4668  0.0341 -0.0318
10685W        W30219   2.497  15.858   3.569  0.1086 -0.0259  0.0913
10686W        W30220   2.384   2.955  11.252  0.1966  0.2017  0.1611
10687W        W30221   7.527   4.943  15.323 -0.3414  0.1385  0.2886
10688W        W30222   2.754   6.602  14.951  0.0866 -0.2792  0.1292
10689W        W30223  12.134  14.622  13.183  0.1126 -0.0217  0.0744
10690W        W30224   6.989   8.596  13.746  0.1328  0.2232  0.1703
10691W        W30225  12.096   2.403  11.126  0.2134  0.3916  0.0519
10692W        W30226   1.956  10.821  14.884 -0.1652 -0.2112 -0.0750
10693W        W30227   5.194   5.018   1.675 -0.2382 -0.0664  0.1041
10694W        W30228   2.879   5.764  14.986  0.0524 -0.3375  0.0977
10695W        W30229   4.911  14.625  14.594  0.1244  0.0543  0.2752
10696W        W30230   3.024   2.652   4.342  0.1514 -0.2700 -0.0698
10697W        W30231   7.838  18.056   3.281 -0.0878 -0.0966  0.2108
10698W        W30232   0.795   1.392   2.270  0.0054 -0.0493 -0.3060
10699W        W30233  18.043   3.050  13.079 -0.2479 -0.0198  0.0065
10700W        W30234   5.242  17.852  13.706  0.4683  0.3643 -0.0612
10701W        W30235  12.343   1.321   2.292 -0.0684  0.2822 -0.0257
10702W        W30236   5.886   1.095   0.511  0.0354 -0.1274 -0.0526
10703W        W30237  16.215  15.925  14.666 -0.0899  0.0628 -0.0069
10704W        W30238  14.649   4.156  15.759  0.0052 -0.4801 -0.0894
10705W        W30239   9.026   0.636   2.463 -0.4491 -0.0958 -0.2572
10706W        W30240   7.062   3.287  15.024 -0.0143  0.1380  0.1841
10707W        W30241  13.792  11.254  11.565  0.0669  0.1773 -0.0264
10708W        W30242  10.013   3.616  13.203 -0.0645 -0.0408  0.2271
10709W        W30243   9.456   1.260  15.344  0.0759  0.2258 -0.1086
10710W        W30244  10.376   2.713  11.728 -0.1521  0.1244 -0.1416
10711W        W30245   4.589  10.860   2.910 -0.1230  0.2053 -0.0844
10712W        W30246  11.297   6.771  11.921 -0.1166 -0.1928 -0.0702
10713W        W30247   6.432   4.668  14.447  0.1538 -0.0828  0.0927
10714W        W30248   6.493   1.494   0.859  0.0648  0.1018  0.0734
10715W        W30249   3.091   9.860  11.934  0.1465 -0.1286  0.3236
10716W        W30250  14.650  15.383   0.200  0.1173  0.2464 -0.2072
10717W        W30251   6.304   4.046   0.742  0.0008 -0.1385 -0.0085
10718W        W30252  15.122  16.356   4.552  0.2810  0.0763  0.0653
10719W        W30253   7.719   0.723   3.917  0.0346  0.1605  0.1754
10720W        W30254  16.438   4.483  11.926 -0.1007  0.0437  0.0394
10721W        W30255   1.285   5.441   2.299 -0.0220  0.2242  0.1138
10722W        W30256   1.303   8.530  11.529  0.1983  0.0573 -0.2876
10723W        W30257  17.894  12.709   0.976  0.3240  0.2100 -0.2851
10724W        W30258   6.230  11.049  13.812 -0.0894  0.1905 -0.0670
10725W        W30259  13.377   6.959  11.313 -0.1685  0.0064  0.3903
10726W        W30260   1.738   1.391   4.010 -0.0114  0.2575 -0.0477
10727W        W30261   8.733  12.009   3.820  0.1334  0.1815 -0.4721
10728W        W30262  16.666  12.638   1.158 -0.0769 -0.2146 -0.1547
10729W        W30263   3.925   1.645   1.712 -0.1846  0.1332  0.1690
10730W        W30264   0.466  14.941   3.473  0.0052 -0.0400 -0.2616
10731W        W30265   4.919   2.843  12.485 -0.3081  0.2157  0.1996
10732W        W30266   0.384   7.643   2.949  0.1239 -0.2214  0.1911
10733W        W30267   9.781  10.745   1.583 -0.0534 -0.2364 -0.0243
10734W        W30268   8.740  18.074   1.196  0.2180  0.0835  0.1002
10735W        W30269  12.643   2.561   2.351 -0.0676  0.0363 -0.1761
10736W        W30270   8.917   1.194   4.328 -0.0591  0.3243  0.1682
10737W        W30271   2.799  17.331   0.870  0.0421  0.0954  0.0582
10738W        W30272   4.172   9.254  13.774 -0.0585 -0.2863  0.2899
10739W        W30273   0.758   1.091  12.045  0.3497  0.1676  0.1641
10740W        W30274  18.043   8.153   0.886  0.3406 -0.1320 -0.0984
10741W        W30275  18.172   6.499  14.491  0.0454  0.1928  0.1041
10742W        W30276   4.196  13.010   4.439 -0.2313  0.0186  0.1404
10743W        W30277   8.237  16.295   0.905  0.1718  0.1062  0.1509
10744W        W30278   0.708  14.732   0.614 -0.1933  0.2154 -0.0864
10745W        W30279   5.616   8.228  12.456  0.0252  0.3140  0.0305
10746W        W30280   8.812   2.743  11.494 -0.1874 -0.0454  0.0095
10747W        W30281   3.214  14.817  14.834  0.0640 -0.3268  0.2929
10748W        W30282   9.933  17.974   3.364 -0.0066 -0.1600 -0.0487
10749W        W30283  10.859  10.339   2.258 -0.1398  0.2111 -0.1301
10750W        W30284  15.283   1.188  12.192 -0.0934 -0.0575 -0.2468
10751W        W30285  18.045  12.388  11.550  0.0859 -0.2908 -0.3222
10752W        W30286  12.457  15.777  13.047  0.2737 -0.1152  0.0201
10753W        W30287   9.272  16.071  14.991 -0.0195 -0.0884 -0.1307
10754W        W30288   7.343  11.070  13.110  0.2854  0.0462 -0.0649
10755W        W30289   7.559  15.465  13.714  0.3907 -0.1403 -0.1985
10756W        W30290   3.504  16.551  14.994 -0.2151  0.0850 -0.0132
10757W        W30291   2.302   2.983  15.764 -0.5612 -0.0610  0.0650
10758W        W30292   8.728  15.400  14.712  0.2519 -0.0508  0.0342
10759W        W30293  18.336  17.085  12.098  0.0319  0.1585  0.1399
10760W        W30294   8.402   6.781   5.097 -0.0692 -0.1444  0.0027
10761W        W30295   3.120   5.936  15.463  0.0703 -0.0151  0.2607
10762W        W30296  16.111   2.004   0.624  0.0806 -0.0783  0.1531
10763W        W30297   2.267   6.979  11.492 -0.0676 -0.0931 -0.0048
10764W        W30298   3.478  17.854   0.398  0.0900  0.1197  0.2775
10765W        W30299   6.418   5.419   1.428  0.1224 -0.1745 -0.1174
10766W        W30300  14.016   9.078   0.896  0.0808 -0.3983 -0.0274
10767W        W30301   3.954   2.588   3.098  0.0981 -0.1372  0.1349
10768W        W30302  14.065  11.499   0.753 -0.1824 -0.0449 -0.0141
10769W        W30303   1.869  15.484   1.394 -0.3798 -0.0960  0.2201
10770W        W30304  10.120   5.265  12.029  0.0907  0.1412  0.2223
10771W        W30305   4.284   5.179  11.578  0.0450  0.2304  0.1561
10772W        W30306   8.859  16.551  12.000 -0.1648 -0.0318 -0.1461
10773W        W30307   1.455   0.571   0.978 -0.0598 -0.1609 -0.1859
10774W        W30308  14.740   3.769  12.324  0.0273  0.1077 -0.0449
10775W        W30309   2.117  18.250   2.960  0.1202 -0.0053  0.4010
10776W        W30310  13.618  11.546  15.006 -0.0910  0.1998 -0.0101
10777W        W30311  12.440   0.356   0.778 -0.0205 -0.1508 -0.4318
10778W        W30312   4.926  11.701  14.041 -0.2802  0.1502  0.2016
10779W        W30313   4.606   9.491   1.929 -0.2260  0.2746  0.0191
10780W        W30314  15.922   0.693   2.442 -0.0791  0.0921  0.1074
10781W        W30315   9.726   4.437  12.913 -0.2516 -0.3258  0.0590
10782W        W30316   4.829   0.870  14.910  0.4718  0.2217 -0.1025
10783W        W30317   2.897   3.297   3.458 -0.0776  0.1086 -0.0078
10784W        W30318   6.920   9.252  13.914 -0.2198  0.1177  0.0098
10785W        W30319   4.852   9.426  14.345  0.0593 -0.0332  0.2603
10786W        W30320  17.566   5.060  14.427  0.0295 -0.1980 -0.4145
10787W        W30321  17.601  10.076  12.579  0.2152 -0.0854  0.1141
10788W        W30322  14.822  12.599   2.924 -0.0233 -0.1034  0.1551
10789W        W30323   9.740  12.730  12.561  0.3660 -0.2013  0.1026
10790W        W30324  16.342  16.049  12.104  0.2826  0.1708  0.0220
10791W        W30325   0.589   5.798   2.344  0.0326  0.0640  0.1205
10792W        W30326   3.488   9.929  12.854  0.1585 -0.0024 -0.0539
10793W        W30327   1.137  15.133   4.638 -0.0900  0.1026  0.0128
10794W        W30328  13.284  11.570  10.791  0.2415 -0.0965  0.1874
10795W        W30329   9.357  18.087  12.047 -0.4618 -0.0858  0.0847
10796W        W30330   9.984  17.259  13.327 -0.3550 -0.0581 -0.1122
10797W        W30331   5.029   1.491  14.049  0.0111  0.0399 -0.1906
10798W        W30332  11.982  14.689   4.398 -0.0606 -0.2185 -0.0282
10799W        W30333   3.055   1.293  11.724  0.2371 -0.2412  0.0477
10800W        W30334  17.873  15.264   1.828 -0.0158 -0.1466 -0.4717
10801W        W30335   8.549   1.205  14.157 -0.1756 -0.2377  0.2191
10802W        W30336   0.006  16.073  13.320 -0.0278  0.2644 -0.0009
10803W        W30337   1.306   2.637   0.149 -0.0810  0.0640 -0.2311
10804W        W30338   7.458  17.324  13.473 -0.3427 -0.1944 -0.0198
10805W        W30339  10.213   8.233  12.445  0.1770  0.0624 -0.0962
10806W        W30340   3.851  17.441   3.424 -0.3353  0.3020 -0.0539
10807W        W30341   3.916   2.160  15.411 -0.1196 -0.0427  0.2183
10808W        W30342  14.724   6.441  13.990  0.1426  0.0779  0.1388
10809W        W30343  14.200   4.041   0.118  0.2484  0.0074 -0.1917
10810W        W30344   1.626   0.057  11.579 -0.2780  0.0973  0.1079
10811W        W30345  14.804   3.238  12.225 -0.1441  0.1389  0.1572
10812W        W30346   5.502   1.873  12.101 -0.1765 -0.0424 -0.0035
10813W        W30347  11.008   3.952   0.521 -0.0377 -0.3083  0.0655
10814W        W30348  10.692  11.087   1.901  0.2744  0.2135 -0.1093
10815W        W30349   9.121  12.108  12.868 -0.0137 -0.2599 -0.0659
10816W        W30350  17.996  11.042   0.475  0.1001  0.1369 -0.4865
10817W        W30351   9.774   0.567  11.773 -0.1439  0.0735 -0.0298
10818W        W30352   6.964  11.279   3.393 -0.1328 -0.2909  0.4618
10819W        W30353   8.971  11.393   1.201 -0.1130 -0.1195  0.1735
10820W        W30354  15.746   9.038   3.551  0.0804 -0.2235 -0.1469
10821W        W30355  12.321   9.952   0.641 -0.0729  0.0963  0.0443
10822W        W30356   9.623   5.523  14.105 -0.1947  0.2208 -0.3792
10823W        W30357  13.133   2.610   2.412  0.0997 -0.0745 -0.0036
10824W        W30358  16.385  17.233   3.567 -0.1568  0.0968 -0.0230
10825W        W30359  11.204   8.049   2.224  0.0990 -0.0042 -0.1830
10826W        W30360  11.089   1.807   3.666  0.0385 -0.0442  0.1949
10827W        W30361   1.130   7.948  13.411 -0.0326  0.0292 -0.1264
10828W        W30362   7.023   1.590   3.378  0.0366  0.0243 -0.1947
10829W        W30363  15.483   7.579  12.155 -0.0039 -0.1080  0.1487
10830W        W30364  13.442   8.687  15.008  0.2138  0.3027 -0.0634
10831W        W30365  10.236  15.561   4.274 -0.0088 -0.1459  0.2573
10832W        W30366   8.364   4.151  14.661 -0.0745 -0.0480  0.2332
10833W        W30367  13.258   7.320   3.416 -0.2503  0.0825 -0.2180
10834W        W30368   8.946  11.144   4.319  0.3156  0.3570  0.4197
10835W        W30369  11.516   5.611  14.660 -0.0274 -0.4183 -0.0337
10836W        W30370   5.498  14.341  13.448 -0.0890  0.2970 -0.0066
10837W        W30371   7.954  17.575  12.086 -0.1367 -0.0791 -0.0725
10838W        W30372   8.730  11.629   3.498  0.0004  0.1956 -0.0689
10839W        W30373   4.567  18.344   1.368  0.1211 -0.0960  0.0049
10840W        W30374   6.918   1.130   2.115  0.1639  0.0866 -0.2173
10841W        W30375  14.069   3.473   3.001  0.2640 -0.1289 -0.0335
10842W        W30376  12.670  10.965  15.165 -0.1655  0.1718  0.1653
10843W        W30377   8.805  17.437  13.960  0.0392 -0.0336 -0.2127
10844W        W30378   2.516  10.177  12.606  0.3332 -0.0519 -0.2043
10845W        W30379  14.772  12.307   4.973  0.1302 -0.1341 -0.0225
10846W        W30380  12.065  18.234  12.600  0.0733 -0.3479 -0.0526
10847W        W30381   9.665   1.835   0.384 -0.0573 -0.1015  0.1578
10848W        W30382  13.680  12.880  12.257  0.2364 -0.0803  0.1259
10849W        W30383  15.523   9.964  12.257 -0.1142 -0.2062 -0.0444
10850W        W30384   6.697  17.743   0.814  0.2759 -0.3320 -0.1533
10851W        W30385   9.092  11.411  12.739 -0.1781  0.1396  0.0589
10852W        W30386  16.685  15.407   5.698  0.0135  0.3155  0.4649
10853W        W30387   4.599  16.675  14.973  0.3350 -0.2911  0.0180
10854W        W30388   0.400   3.154  11.318  0.1575  0.0422  0.0398
10855W        W30389   4.598  16.117  13.240  0.2955 -0.2527 -0.0192
10856W        W30390   8.189   6.737  13.755 -0.4670  0.0812 -0.2807
10857W        W30391   0.857   2.015   4.862 -0.1145  0.2268 -0.2769
10858W        W30392   6.641  14.063   0.544  0.1893 -0.2405 -0.0383
10859W        W30393  11.888   1.583  12.474  0.1998 -0.0118  0.0708
10860W        W30394   5.494   7.141   2.233  0.0803 -0.2252  0.1300
10861W        W30395  16.130   3.972  11.370  0.1590  0.1484 -0.0164
10862W        W30396   1.177   4.351  13.781 -0.2480 -0.0355  0.2470
10863W        W30397  10.043   0.952  11.189 -0.2110 -0.0140  0.4992
10864W        W30398   6.564   6.584  12.528 -0.2537 -0.2427 -0.2511
10865W        W30399   2.258  12.822  13.641 -0.0310  0.0240  0.0441
10866W        W30400  10.966   4.657  12.156  0.0298 -0.1057 -0.0316
10867W        W30401   9.848   7.550  15.212  0.0155 -0.0080  0.0617
10868W        W30402  12.186   8.550  13.597  0.2279 -0.0126  0.1202
10869W        W30403   8.505   5.994  12.492 -0.3500  0.1144  0.0123
10870W        W30404   3.118   8.890  11.773  0.0098 -0.1491 -0.1921
10871W        W30405   1.605  10.802   5.426  0.1943  0.0458 -0.1444
10872W        W30406  17.003   5.269  11.320 -0.0519  0.1492 -0.0228
10873W        W30407  11.560  13.033  11.499 -0.4517 -0.0190 -0.1450
10874W        W30408   5.681   2.071  12.527  0.3049 -0.5235  0.1907
10875W        W30409  16.641   8.584   4.213  0.0264  0.1370  0.1756
10876W        W30410  16.704  12.819  12.311  0.0599 -0.0167  0.0769
10877W        W30411   0.277  12.313  12.935  0.0161  0.0273 -0.0700
10878W        W30412   7.558  14.607   5.165 -0.0799 -0.0266  0.0693
10879W        W30413  10.225  15.149   3.942  0.2317  0.0209 -0.1796
10880W        W30414  13.549   2.196  15.300  0.3100  0.0711 -0.0573
10881W        W30415  13.244  13.558   1.897  0.0868  0.0589 -0.0504
10882W        W30416   3.516  13.340  11.530 -0.3533 -0.1864 -0.1720
10883W        W30417   6.184   4.441   1.578 -0.3606 -0.0145  0.4081
10884W        W30418   5.858  15.896   3.038  0.4444 -0.4158 -0.0541
10885W        W30419  10.453   4.749  13.165  0.0250  0.3485 -0.0780
10886W        W30420  12.307   8.573   2.715  0.0605 -0.0646  0.2125
10887W        W30421   5.259   1.164  11.627  0.0239 -0.1751  0.0629
10888W        W30422   2.510   5.462  13.411 -0.0129 -0.0169 -0.1518
10889W        W30423   0.245   9.625   2.102 -0.2394 -0.1089  0.4874
10890W        W30424   7.877  13.915   2.291 -0.2759 -0.2680  0.2308
10891W        W30425   9.543   8.507   1.608  0.1102  0.0798 -0.2638
10892W        W30426   2.464   5.893   0.371  0.0488  0.2068  0.2749
10893W        W30427   6.426   4.562   0.946 -0.0283  0.1668  0.1363
10894W        W30428   3.627   1.023  12.914 -0.0856 -0.2390  0.2115
10895W        W30429  10.454  14.987   2.558  0.0623  0.0290  0.3615
10896W        W30430   9.625  10.646  13.063 -0.0169  0.2126  0.3381
10897W        W30431  13.939   6.889  11.251 -0.1292 -0.1772  0.3329
10898W        W30432  18.401   7.754   4.295 -0.1328 -0.0071 -0.0090
10899W        W30433   7.365  15.950  13.684 -0.1304  0.1290  0.2604
10900W        W30434   4.729   6.175   1.036 -0.0041  0.0068 -0.0543
10901W        W30435   9.366  17.643   4.179 -0.1374  0.0356 -0.0708
10902W        W30436  13.768  17.702   4.562 -0.2001 -0.0522  0.1998
10903W        W30437  15.426   9.037   0.879  0.3574 -0.1408  0.0620
10904W        W30438  12.861  12.424  15.244 -0.2514  0.2026  0.0826
10905W        W30439  11.644   0.905   5.042  0.0276 -0.0402 -0.1413
10906W        W30440   5.414  10.829  13.438 -0.0161 -0.1130 -0.1748
10907W        W30441  12.080   2.969   3.714  0.0654 -0.1949 -0.1403
10908W        W30442  10.392   3.309  14.387  0.1413  0.0019  0.1081
10909W        W30443  16.696  16.848  11.874  0.1408  0.2197  0.0727
10910W        W30444  18.100   6.061  12.998 -0.1304 -0.3926 -0.1062
10911W        W30445   0.919   4.577  11.172 -0.1789 -0.0289 -0.3301
10912W        W30446  16.525  10.015  12.444 -0.0342  0.1759 -0.2600
10913W        W30447   7.259   1.918   0.373  0.0662  0.2084  0.0006
10914W        W30448   1.115   3.593  12.904  0.0235 -0.0890 -0.0108
10915W        W30449   1.961   7.778  13.845  0.1810  0.1599 -0.1441
10916W        W30450  11.592  11.056   3.166 -0.0358  0.1119  0.0852
10917W        W30451   0.910   7.724  13.023  0.1543  0.0746  0.0664
10918W        W30452   0.464   8.084   1.938 -0.1088  0.0392  0.0543
10919W        W30453   0.396  14.163  14.467  0.2509 -0.2862 -0.2016
10920W        W30454   3.830   0.775  14.248 -0.2039 -0.0954 -0.2599
10921W        W30455   7.307   0.362   4.317  0.0019 -0.2264 -0.0025
10922W        W30456  10.269  10.119  15.056 -0.2826  0.0176 -0.2058
10923W        W30457   8.386   5.630   1.568 -0.0962 -0.3964  0.0351
10924W        W30458   3.247   0.194  13.067 -0.0431 -0.0368 -0.0478
10925W        W30459  14.347  17.122  13.270 -0.0419 -0.0302  0.1217
10926W        W30460   7.976  10.531  13.032 -0.4201  0.1750  0.1045
10927W        W30461  11.423   4.887  12.306 -0.1160  0.0158  0.0036
10928W        W30462  12.369   2.440   4.103  0.1758 -0.5032  0.0871
10929W        W30463   8.679   8.301  12.800  0.0067  0.1466 -0.0472
10930W        W30464   0.080   5.631  11.279  0.2263  0.2004 -0.1400
10931W        W30465  14.244  12.062   0.114  0.0812  0.0352 -0.0911
10932W        W30466  17.485  11.293   4.359 -0.2278 -0.2646 -0.1798
10933W        W30467   4.092  11.121  13.798 -0.3276  0.2067  0.0502
10934W        W30468  15.304   1.655   1.278 -0.2121  0.1671 -0.0042
10935W        W30469   2.797  13.127  13.804  0.0017 -0.2950 -0.4135
10936W        W30470  11.473  15.547   4.721  0.2376 -0.0478  0.0785
10937W        W30471  11.099   0.317   1.885 -0.0406 -0.1684 -0.2810
10938W        W30472   6.282   7.353  13.358  0.0876 -0.1850  0.2576
10939W        W30473   1.429  15.687   1.303 -0.2746  0.0680  0.1946
10940W        W30474   4.413  12.391  14.472  0.4136 -0.0233  0.0988
10941W        W30475  12.260   6.354  13.939  0.1213  0.0082 -0.1852
10942W        W30476  16.985  17.806  15.146 -0.0847 -0.2414  0.0015
10943W        W30477  16.627   1.804   1.711 -0.1854  0.2988 -0.2215
10944W        W30478   3.116  10.298  13.136  0.2574 -0.1789  0.3670
10945W        W30479  10.964   5.035   0.540  0.1372  0.0146  0.2579
10946W        W30480  10.799  13.214   1.841  0.1134  0.0241 -0.1999
10947W        W30481  12.050   3.680  14.210  0.2007  0.0409  0.1505
10948W        W30482  12.385  11.970  15.655 -0.0082  0.1674  0.1046
10949W        W30483  12.724   1.612   1.492  0.2443 -0.0119 -0.3121
10950W        W30484  11.086  15.551  13.583 -0.1287  0.1761  0.1336
10951W        W30485   2.600   7.838   2.489 -0.3370  0.0358 -0.2139
10952W        W30486  16.730   8.118   4.320 -0.1876 -0.1563  0.0152
10953W        W30487   5.159   9.204   0.181  0.1091  0.0925  0.3361
10954W        W30488   4.478   8.443  11.306 -0.2920  0.3422  0.0060
10955W        W30489   9.659   6.144   4.406 -0.2691 -0.4488  0.1001
10956W        W30490  15.402   4.747  15.398  0.2855  0.0162  0.1572
10957W        W30491  14.122   0.695   0.023 -0.0882  0.0545 -0.4628
10958W        W30492   1.412   0.340  15.833  0.1194  0.1099 -0.3655
10959W        W30493  12.001  11.172  12.673 -0.1066 -0.3423  0.1002
10960W        W30494  14.330  12.458  13.712  0.1038  0.0804  0.2064
10961W        W30495   5.375   4.211   3.681  0.2573  0.1288  0.1649
10962W        W30496   8.505   3.929  12.905 -0.4072 -0.1693  0.0443
10963W        W30497   8.200  17.215  11.788  0.1542 -0.0368  0.1168
10964W        W30498  11.494   1.317  15.035  0.0258 -0.0222 -0.2331
10965W        W30499   1.340   6.529   1.872 -0.0576 -0.0214 -0.1438
10966W        W30500   1.274  16.725   0.815 -0.1128  0.2505  0.1495
10967W        W30501  17.573  17.970  13.536 -0.1397 -0.0595  0.0963
10968W        W30502  11.605   3.620   1.335 -0.2276  0.1640 -0.1820
10969W        W30503  16.186   8.587  13.320  0.5288 -0.1594  0.0394
10970W        W30504   0.171   1.746  13.768 -0.0477 -0.1261 -0.0382
10971W        W30505   3.163   9.267  15.366  0.0371 -0.0142  0.0239
10972W        W30506   0.279  10.786  15.564  0.0827 -0.2367  0.3386
10973W        W30507  11.984   0.712  14.282  0.1625  0.0059  0.0613
10974W        W30508  16.318  10.134   1.086 -0.1440 -0.3373  0.2526
10975W        W30509  10.724  11.701  12.396  0.1176  0.0168 -0.1341
10976W        W30510  14.094  15.916   2.567 -0.0435  0.2381 -0.0365
10977W        W30511  15.934   3.797   0.899  0.0578 -0.0559 -0.2507
10978W        W30512   3.646   0.962   2.798 -0.0649 -0.0770 -0.1096
10979W        W30513  14.084   7.312   1.314  0.1846  0.2394 -0.2561
10980W        W30514   8.781   3.108   4.568 -0.0768 -0.0103  0.1881
10981W        W30515  17.685   5.254  11.561  0.4118  0.0358 -0.0347
10982W        W30516  13.828  14.083  10.550  0.2884  0.0500 -0.0527
10983W        W30517   1.616   2.390  15.189 -0.0977 -0.0035  0.1487
10984W        W30518  14.250   2.009   2.868  0.0609  0.2235  0.1953
10985W        W30519   2.376   1.305   2.059 -0.0927 -0.1225 -0.1621
10986W        W30520  12.253   9.171  11.230  0.1482 -0.1734  0.1211
10987W        W30521  10.300   2.164   3.736 -0.3175 -0.3244  0.1588
10988W        W30522  10.141  12.887  14.600  0.0776 -0.2472  0.0835
10989W        W30523   0.428  11.491  13.199  0.1733  0.0529  0.3211
10990W        W30524   9.698  17.148   0.652  0.1560 -0.0259 -0.0474
10991W        W30525  10.711   8.427  13.102 -0.2972  0.0631 -0.1195
10992W        W30526  12.771   0.001  12.600  0.0680 -0.1001  0.0288
10993W        W30527   9.343  10.257  11.655 -0.1794  0.1095 -0.0266
10994W        W30528   4.917   1.053  12.089  0.2045 -0.1565 -0.2292
10995W        W30529  10.721  14.751   1.340  0.0363  0.0126  0.1557
10996W        W30530   8.608  11.425  12.197 -0.2508  0.0779  0.0469
10997W        W30531  17.917   5.094   3.993 -0.1354 -0.0330  0.2618
10998W        W30532  14.186   3.362   0.346 -0.1168 -0.0083  0.1847
10999W        W30533  15.037  17.853   1.992 -0.3784 -0.1099 -0.1710
11000W        W30534  11.455   6.701   3.942  0.1341 -0.1312  0.0074
11001W        W30535  13.535   3.347  12.719  0.0204  0.0791 -0.0848
11002W        W30536  14.099   4.669   4.552 -0.0012  0.0742  0.0046
11003W        W30537  16.053   0.260  12.742  0.1848 -0.1653 -0.1756
11004W        W30538  12.529   8.440  14.857  0.0874 -0.0621 -0.2066
11005W        W30539  17.129  11.310  10.733  0.0881  0.1773 -0.0387
11006W        W30540  18.290  15.989  14.759 -0.0711  0.0824  0.1221
11007W        W30541   1.253   2.704   1.621  0.1035 -0.0295 -0.0397
11008W        W30542  11.183  16.876  15.516 -0.0973 -0.2891  0.0135
11009W        W30543  14.690  14.245  11.893  0.1237 -0.4747 -0.0732
11010W        W30544   6.116   1.857  14.298 -0.1624  0.0392 -0.2518
11011W        W30545   0.222  16.694  13.533  0.2604  0.1966  0.0106
11012W        W30546  10.629  13.700   1.813 -0.5314  0.2263  0.0837
11013W        W30547   0.094   8.388   2.252 -0.1941  0.1266  0.2437
11014W        W30548   2.541  15.208  14.174  0.0721 -0.0332  0.1044
11015W        W30549   4.449   0.517  14.991 -0.1152  0.0478 -0.0199
11016W        W30550   3.742   1.771  12.280 -0.1002  0.0819  0.0573
11017W        W30551  14.921   0.999  12.566  0.0273  0.1731 -0.2109
11018W        W30552   2.156   9.062  11.253  0.2119  0.0316  0.0514
11019W        W30553   8.669  10.467   2.605  0.0186  0.0788  0.0025
11020W        W30554  16.540   5.848  13.953  0.2125  0.0395 -0.1479
11021W        W30555  12.229   6.368  11.918 -0.1030 -0.2005  0.0076
11022W        W30556  12.235   0.479   1.742 -0.3116 -0.1549 -0.1180
11023W        W30557  10.589   9.945  11.781 -0.0712 -0.0738  0.1840
11024W        W30558   8.039  17.344  13.111 -0.1125  0.0817 -0.0463
11025W        W30559  17.711  12.815  15.518 -0.1684  0.0419 -0.1202
11026W        W30560   4.819   5.592   1.187 -0.1966 -0.0140  0.2278
11027W        W30561   0.334   0.965   2.954 -0.1410  0.1408  0.1832
11028W        W30562   5.103  13.853  15.699  0.5311  0.2300  0.2259
11029W        W30563  12.363  14.702   4.921 -0.0861  0.0574 -0.0700
11030W        W30564   3.389   8.509   0.681  0.2384 -0.0551  0.0616
11031W        W30565   6.319   4.050   3.864  0.0226  0.1608 -0.2158
11032W        W30566  12.868  12.625  11.321 -0.0553  0.0178  0.3544
11033W        W30567   5.750  15.576   3.615  0.4425  0.1781 -0.0096
11034W        W30568   9.419   6.853   0.716  0.0714 -0.2546 -0.2129
11035W        W30569   7.667   4.947   2.594  0.1984  0.3004  0.0307
11036W        W30570   8.781   5.638   4.638  0.2352  0.0551 -0.1667
11037W        W30571   9.091   7.759  15.828 -0.0316  0.0042  0.2546
11038W        W30572  12.392   2.861   2.676  0.1331 -0.1751  0.0508
11039W        W30573   0.351  15.693  12.092 -0.0301 -0.0578  0.2572
11040W        W30574   4.750   8.462   4.205  0.0599  0.0192  0.0430
11041W        W30575  14.663   5.212  13.602  0.1877 -0.1086  0.0088
11042W        W30576   7.111   7.413  14.391  0.0243  0.4290 -0.3032
11043W        W30577  15.192   6.243  15.001  0.0485 -0.0070  0.1700
11044W        W30578  14.306  15.117   5.327 -0.1334 -0.0570 -0.1506
11045W        W30579   4.610  13.816   1.541 -0.1876  0.0046 -0.1042
11046W        W30580  14.638   3.004   2.453  0.1250 -0.1953  0.1831
11047W        W30581   8.293   7.670  12.152 -0.0686 -0.2588  0.0579
11048W        W30582   3.066   8.302  12.507 -0.1423  0.2712 -0.0216
11049W        W30583   6.956   4.764  13.141  0.1453  0.3112 -0.0602
11050W        W30584  13.777  13.308  11.331  0.1738  0.0253  0.0950
11051W        W30585   4.312   3.125   2.913  0.0661  0.1238 -0.0408
11052W        W30586   1.454  12.628  13.055 -0.1946  0.0453 -0.0571
11053W        W30587  10.505   2.685   2.532 -0.0394 -0.1082 -0.2320
11054W        W30588   4.011   1.359   4.976 -0.2086 -0.0063  0.1302
11055W        W30589   2.366   0.174   3.412 -0.3052  0.2681  0.0084
11056W        W30590   7.884   1.656  14.288  0.7239  0.4201 -0.1788
11057W        W30591  13.081  17.739  15.547  0.3119  0.1409 -0.5827
11058W        W30592  13.354  16.763   2.178 -0.1515 -0.1184 -0.3682
11059W        W30593   1.316  15.472   3.369 -0.0669  0.0432  0.3095
11060W        W30594   0.153  18.128   2.133  0.1508 -0.1029  0.0141
11061W        W30595   3.899   2.045   3.635 -0.2497  0.0536  0.0189
11062W        W30596   5.441   4.451   5.215  0.2128  0.1132 -0.0713
11063W        W30597   5.744   1.971  11.691 -0.2852 -0.0960 -0.0139
11064W        W30598  14.935   1.930  12.580 -0.1699 -0.0003 -0.1299
11065W        W30599   3.244   9.650  14.863  0.0447  0.3247 -0.1740
11066W        W30600  16.968   9.592   3.973  0.3295  0.1881  0.0033
11067W        W30601  14.898   5.003   0.922 -0.1024  0.2244  0.3587
11068W        W30602  14.129  17.674   3.507  0.0475 -0.0398 -0.3666
11069W        W30603   1.557  13.848  12.197  0.1181 -0.1972  0.1324
11070W        W30604  13.955   9.685   3.799 -0.1835  0.2894 -0.1287
11071W        W30605   1.875   3.926  11.809  0.3608  0.1148 -0.1253
11072W        W30606   2.337  12.075   4.299 -0.1271 -0.3215 -0.1207
11073W        W30607  16.859   9.907   0.230 -0.2951  0.0931 -0.1555
11074W        W30608   6.551   8.859   5.018  0.0711 -0.1317  0.3510
11075W        W30609   4.927  10.641   4.634 -0.2808 -0.3364  0.0324
11076W        W30610   0.586   9.489  13.010  0.0076  0.2401 -0.1777
11077W        W30611  16.928   9.696   3.498 -0.0168  0.3104 -0.1909
11078W        W30612  12.950   0.728   2.563  0.0803  0.0707  0.0077
11079W        W30613   4.545   4.641  11.568  0.2697  0.1251 -0.1977
11080W        W30614  10.775  16.692   1.208  0.2963 -0.2588  0.3782
11081W        W30615   0.004   1.720  14.328 -0.0678 -0.0475  0.0230
11082W        W30616   0.488   8.712   1.975  0.3533 -0.0966 -0.1246
11083W        W30617  11.016   3.302  13.635  0.0758  0.2815  0.1826
11084W        W30618   0.684  15.457   3.988  0.0293 -0.0236  0.1136
11085W        W30619   3.298  12.249  14.222 -0.0877  0.0119 -0.2165
11086W        W30620   9.539   5.814   0.346  0.0226  0.1041  0.0671
11087W        W30621  13.235   9.355   2.591  0.0223  0.1733 -0.2570
11088W        W30622  14.888   0.740  15.190  0.2594 -0.0788 -0.0638
11089W        W30623  11.468  11.582   1.569 -0.0182  0.1427 -0.0811
11090W        W30624  13.518  14.042  15.164  0.2400  0.3589 -0.0713
11091W        W30625   2.163  13.522   4.377 -0.1494 -0.1013 -0.2425
11092W        W30626   8.133   7.556   2.350  0.1088  0.0564  0.0709
11093W        W30627   8.827   3.498  13.859 -0.1296 -0.0089  0.0805
11094W        W30628   7.262   8.533  14.616 -0.0452 -0.1048 -0.1286
11095W        W30629  18.226  13.650   0.762  0.0211  0.0282  0.3216
11096W        W30630   4.011  13.958  14.824 -0.0031  0.2030  0.3538
11097W        W30631   8.898  12.418   4.273 -0.1498  0.0498 -0.2951
11098W        W30632   1.613   6.067  14.397 -0.0433 -0.0875 -0.1469
11099W        W30633  11.382   9.502  11.233  0.0675 -0.0697  0.3564
11100W        W30634   2.008   9.377  12.993  0.0598 -0.1840  0.1394
11101W        W30635  17.466   9.642   1.680  0.2191  0.0658 -0.0646
11102W        W30636  12.221  13.453   2.109 -0.0712  0.1056  0.0673
11103W        W30637   7.582  17.710  14.351  0.1071 -0.1760 -0.0798
11104W        W30638  16.077   0.280   0.603  0.1160 -0.0351  0.2196
11105W        W30639  15.300  12.203   1.335  0.0587 -0.1813 -0.0495
11106W        W30640  14.655   9.499   1.882 -0.1282  0.2385 -0.2262
11107W        W30641  11.647  16.352  11.363  0.1176  0.1587 -0.1327
11108W        W30642   5.776  13.794   3.042  0.5310 -0.1947  0.4739
11109W        W30643  13.748  10.047   4.668  0.0917 -0.2039  0.4361
11110W        W30644  11.710  18.012   0.979 -0.1632  0.0523  0.1355
11111W        W30645   6.180   2.055  14.917 -0.2430 -0.0955 -0.2952
11112W        W30646   6.461  15.895  13.321  0.0979 -0.1176  0.0064
11113W        W30647  15.047   9.738   0.636  0.3364 -0.2602 -0.1137
11114W        W30648  12.217   8.452   3.201 -0.1304 -0.0796 -0.0631
11115W        W30649  14.272   3.107  11.577  0.1771 -0.2001  0.0131
11116W        W30650  17.513  14.587   2.898  0.1620 -0.0676  0.0277
11117W        W30651  13.145   2.660  14.275  0.1739 -0.1328  0.1759
11118W        W30652  17.003   6.114   1.405 -0.0781 -0.0541  0.1628
11119W        W30653   4.662  12.280  11.268 -0.0326  0.1628  0.3723
11120W        W30654   2.511   8.349  14.421 -0.0279 -0.0550 -0.4437
11121W        W30655   9.376  18.149   4.157  0.0258  0.0853 -0.0397
11122W        W30656   9.243  13.412  12.247 -0.1617 -0.0379  0.3173
11123W        W30657  17.571   2.632   2.540  0.0013  0.1311 -0.4061
11124W        W30658  18.086  12.025   1.538  0.0213 -0.1468 -0.1704
11125W        W30659  16.837   8.367   0.773 -0.0936 -0.0170  0.0861
11126W        W30660   8.055   1.424  13.332 -0.1035 -0.3820  0.0730
11127W        W30661  13.167   4.601   4.831  0.0989  0.0781  0.0995
11128W        W30662  12.813  10.654  13.798  0.0357 -0.1421  0.0696
11129W        W30663  10.989  12.604   1.830 -0.1561  0.0846 -0.1227
11130W        W30664   8.574  16.152  13.351 -0.1781 -0.1526  0.1511
11131W        W30665  12.358  12.268   3.371 -0.0393 -0.1496  0.0950
11132W        W30666   1.859   1.080  11.281 -0.0580 -0.1780 -0.0629
11133W        W30667  14.176  12.929   1.073  0.2997  0.0712  0.0735
11134W        W30668  12.567   3.702  13.780 -0.0346 -0.0901  0.2576
11135W        W30669   8.046   9.193  12.126  0.0192  0.2389 -0.0540
11136W        W30670  16.803   3.636   2.089  0.0731 -0.0303 -0.0029
11137W        W30671  14.140  13.637  13.091 -0.2738 -0.1328 -0.0511
11138W        W30672  16.211   7.256  13.582  0.0351  0.0127  0.0323
11139W        W30673  17.471   6.988  12.881  0.1258  0.1667 -0.1080
11140W        W30674  14.706   4.142   2.683 -0.0960  0.0776  0.2369
11141W        W30675   2.748   1.514  11.345  0.1627  0.2198  0.0437
11142W        W30676   8.909  13.257   2.038  0.0709  0.1609 -0.1768
11143W        W30677  15.420   3.635   4.739 -0.0156 -0.1718 -0.2064
11144W        W30678   9.332   4.512  14.848  0.3296 -0.3658 -0.2599
11145W        W30679   3.832   3.058   0.430  0.0362  0.1366  0.1506
11146W        W30680   0.808   9.258   2.547  0.0239 -0.3963 -0.0947
11147W        W30681   2.758   0.627  14.349 -0.2956 -0.0343 -0.0077
11148W        W30682  15.096   8.920  14.540 -0.2393  0.0186  0.0755
11149W        W30683  10.528  12.724  12.314 -0.0447  0.2119  0.5627
11150W        W30684   8.961  16.146  11.361  0.2861 -0.1231  0.2896
11151W        W30685   2.040  17.950  13.692  0.2221  0.0864  0.4663
11152W        W30686   1.324   2.546   3.030  0.1509  0.3272 -0.2321
11153W        W30687   7.167  16.810  12.661 -0.1792  0.1247  0.1347
11154W        W30688   3.377  13.798   2.659 -0.2292 -0.0491  0.1058
11155W        W30689   8.038   3.545  14.149 -0.1486  0.1576  0.0886
11156W        W30690  18.386   8.786   4.128  0.0819 -0.1837 -0.1152
11157W        W30691   7.164   6.844   3.150  0.1082  0.1212 -0.1093
11158W        W30692   6.789   3.731  12.781  0.0509  0.0676 -0.2568
11159W        W30693  16.976  12.980  14.506 -0.1634  0.0707  0.1429
11160W        W30694  17.775  13.380   4.389  0.1044  0.1197 -0.0349
11161W        W30695  16.938   6.107   4.143  0.1066 -0.0174  0.1053
11162W        W30696  17.017   9.767   2.882  0.3495 -0.1418  0.1251
11163W        W30697  17.735  15.462  10.600 -0.1079 -0.2551  0.1829
11164W        W30698   3.004   9.700   3.450 -0.0876  0.0447 -0.0146
11165W        W30699  11.715  17.413  12.192 -0.1592  0.0279 -0.1243
11166W        W30700   6.046   9.025   3.594  0.0204 -0.0711  0.0650
11167W        W30701  11.361   4.512   2.080  0.1437 -0.2613 -0.1034
11168W        W30702   8.037   5.161  14.536  0.2144 -0.2361 -0.3564
11169W        W30703  17.870  12.894   4.371  0.0198  0.0635 -0.0539
11170W        W30704  17.762  16.547  13.920 -0.2610  0.0641  0.2999
11171W        W30705  11.766   1.172  12.668  0.1584  0.0530  0.3178
11172W        W30706  15.008   8.599   2.223  0.3225 -0.1238  0.0624
11173W        W30707  15.975  11.422   0.314  0.2061 -0.0303  0.0630
11174W        W30708   2.772  11.905   4.537 -0.1172  0.1433 -0.2408
11175W        W30709   8.019   3.729   9.956 -0.2141 -0.1208  0.0918
11176W        W30710   0.707  13.193   3.287 -0.5034 -0.1842 -0.1766
11177W        W30711   2.762  13.601  14.635  0.0528 -0.0786  0.1769
11178W        W30712   0.515  13.605   1.857 -0.1408 -0.1706 -0.0593
11179W        W30713  11.075  11.574  11.608 -0.1202  0.1491  0.1162
11180W        W30714   6.664   9.843  14.071  0.0739  0.3096  0.2501
11181W        W30715  17.849   9.656  12.458  0.0195 -0.0744 -0.2036
11182W        W30716  16.080  12.781   1.126  0.1671 -0.1667 -0.3031
11183W        W30717   7.509  15.078  12.721 -0.1379  0.1853 -0.3795
11184W        W30718   7.936  13.107   0.918  0.4652 -0.1620 -0.0856
11185W        W30719   2.712   5.865  14.330  0.1466  0.0093 -0.0546
11186W        W30720   6.838   1.617   0.335  0.0913 -0.1675  0.4087
11187W        W30721  12.094   2.717  12.946  0.4099  0.0380  0.1141
11188W        W30722   3.557   5.263  14.047 -0.0829  0.1746  0.0165
11189W        W30723   9.163   9.569   2.362  0.0607 -0.0782  0.0206
11190W        W30724   1.517   0.946   2.412 -0.0633  0.0432 -0.2667
11191W        W30725   5.416   9.561  12.271  0.1660  0.0185  0.1595
11192W        W30726   9.300   0.426  11.710 -0.0121 -0.1699  0.4602
11193W        W30727  16.584   8.837  14.758 -0.1521 -0.1740  0.0422
11194W        W30728   2.833  12.613  12.939  0.0522  0.1137 -0.1899
11195W        W30729   3.665  15.440  14.973 -0.0197 -0.1182  0.1364
11196W        W30730   7.686   3.663   4.115  0.0639 -0.1198  0.1617
11197W        W30731  13.953  10.461  13.147 -0.3049 -0.1133  0.1194
11198W        W30732   5.390   4.367   1.111  0.0146 -0.1180 -0.0162
11199W        W30733  17.325   2.881  13.868  0.1466  0.1849 -0.1368
11200W        W30734   5.259   9.774   1.096  0.3861 -0.2418  0.1743
11201W        W30735   3.534   4.417  12.186 -0.2980 -0.1120 -0.0577
11202W        W30736  16.525   8.464   3.622  0.1882 -0.1449  0.2612
11203W        W30737   8.293   1.043   3.818  0.1766  0.1098  0.2299
11204W        W30738  12.712   8.431  12.251 -0.0513  0.1540 -0.0519
11205W        W30739   1.286  14.806  14.523  0.4149  0.0393 -0.0382
11206W        W30740   6.554   2.913  10.831  0.0227 -0.0851  0.1304
11207W        W30741  16.928   0.972  12.656 -0.0057  0.2300  0.0541
11208W        W30742   8.651  11.455  15.835 -0.0845 -0.0318  0.0820
11209W        W30743   8.923   9.187  12.504 -0.0538 -0.0871 -0.0148
11210W        W30744  11.039   4.380  14.199  0.4098  0.0504 -0.0105
11211W        W30745   6.470   8.187   4.560  0.2135 -0.2019  0.0628
11212W        W30746  12.281   5.738   0.038 -0.2059 -0.1035 -0.3953
11213W        W30747   9.895   7.031   0.648 -0.2449 -0.1363 -0.0438
11214W        W30748   2.544   8.057  13.904  0.1196 -0.0220  0.2106
11215W        W30749   6.447   8.056  11.429 -0.0394  0.2179  0.3310
11216W        W30750   3.600   6.848   3.428  0.0663 -0.2151  0.3748
11217W        W30751   6.284   1.076   2.798 -0.1629  0.1525  0.0399
11218W        W30752   2.823   6.209   4.427 -0.1324  0.1087 -0.0395
11219W        W30753   8.622   4.572  14.910 -0.0464 -0.0272 -0.5289
11220W        W30754  18.326  15.368   0.499 -0.0604  0.0170  0.2712
11221W        W30755  16.839   5.147  13.723 -0.0783  0.0361 -0.1531
11222W        W30756  10.831  12.230   2.689 -0.1799 -0.1384  0.0837
11223W        W30757  15.159   9.464   4.333 -0.0086  0.0251 -0.0190
11224W        W30758  10.177   0.527   2.009  0.3083 -0.0585 -0.0541
11225W        W30759   3.542  18.153  13.172  0.2544  0.0347  0.2431
11226W        W30760   1.914   1.817   0.982 -0.1174 -0.0083  0.3283
11227W        W30761   9.966  16.136   3.570  0.0950  0.1390  0.0321
11228W        W30762   8.147  12.672  13.384  0.3167 -0.0667  0.0597
11229W        W30763  13.409   5.664   4.387 -0.3082 -0.1731 -0.0579
11230W        W30764   8.385   3.326   4.083  0.1509  0.2335  0.1695
11231W        W30765  17.071  15.297  13.986 -0.1903 -0.0800 -0.0277
11232W        W30766  17.068  11.748  15.729 -0.4523  0.1842  0.0580
11233W        W30767   6.899  12.703   0.363  0.1852  0.1343 -0.2405
11234W        W30768  13.667   8.895   1.938  0.1416 -0.2780  0.0582
11235W        W30769   2.067  15.460  15.242 -0.0560  0.0555 -0.2201
11236W        W30770  16.451  16.212  13.462 -0.2108  0.2871 -0.3496
11237W        W30771  11.508  12.407  12.106 -0.1413 -0.0698  0.0130
11238W        W30772   5.608   1.629   2.447 -0.0619  0.1912  0.0709
11239W        W30773   1.155  16.603   2.365 -0.0143 -0.0289 -0.0626
11240W        W30774  16.728  11.442  12.245 -0.0311 -0.1016 -0.2110
11241W        W30775   1.528   0.608   1.449  0.2504 -0.1361 -0.0759
11242W        W30776   5.089   2.463   3.466  0.1679 -0.2431 -0.1398
11243W        W30777   3.691   8.018  12.929 -0.1326 -0.0786 -0.1769
11244W        W30778  13.188   3.904  11.788  0.0342 -0.0330 -0.0522
11245W        W30779   1.124   7.104  15.078 -0.1858 -0.1134 -0.2226
11246W        W30780   6.496  17.916   3.662 -0.0769 -0.0857  0.0308
11247W        W30781   3.482   4.585   4.313  0.1560  0.0813  0.2423
11248W        W30782   7.702  17.964  11.652 -0.0662  0.1895  0.3289
11249W        W30783   9.424   9.452   0.814 -0.3044  0.1199 -0.1641
11250W        W30784  11.850  18.006  13.764 -0.4593 -0.3509 -0.1318
11251W        W30785  14.114  17.234  14.827 -0.0860 -0.1079 -0.3308
11252W        W30786  11.202   6.732   2.442 -0.0921  0.1752  0.4509
11253W        W30787   8.466   7.599  13.871 -0.2017 -0.0578  0.0301
11254W        W30788  12.711   7.194  14.062 -0.1321  0.1564 -0.3072
11255W        W30789  17.684  16.946   2.713  0.1439  0.0170  0.0962
11256W        W30790  14.506   6.304  10.603  0.2694  0.0297 -0.0013
11257W        W30791   8.678  11.134  12.972  0.1597 -0.4139 -0.1625
11258W        W30792  15.797  10.974   0.436  0.3062  0.2226  0.1237
11259W        W30793  11.871  10.996   4.999 -0.0673  0.0231 -0.1135
11260W        W30794   7.840  17.847  14.994  0.1971  0.1006  0.0066
11261W        W30795   3.451  15.071  13.993 -0.0011  0.1986 -0.3537
11262W        W30796   9.095  11.172  12.223 -0.0155  0.2752  0.2706
11263W        W30797  14.173   4.108  13.157 -0.1410 -0.1706 -0.0487
11264W        W30798   5.430  15.702   3.228 -0.2529 -0.0228 -0.1508
11265W        W30799   3.569   7.878  14.610  0.0814  0.0817  0.0317
11266W        W30800   6.101  12.214   2.711  0.0606  0.1949 -0.2448
11267W        W30801  10.147   8.238  13.826 -0.0256 -0.0353  0.2557
11268W        W30802  13.979   8.111  12.140 -0.5224 -0.0627 -0.2720
11269W        W30803   5.298   7.823   4.157 -0.2805  0.1922  0.0481
11270W        W30804   2.555   5.091  15.514 -0.0590  0.1391 -0.4015
11271W        W30805   5.157   1.509  12.003 -0.3220 -0.5255  0.0443
11272W        W30806  13.818  16.593  11.676  0.0330  0.0250  0.3589
11273W        W30807  18.204   7.686   1.640 -0.2192  0.1312  0.0565
11274W        W30808   4.733   6.663   0.935 -0.1907  0.1715 -0.4007
11275W        W30809   0.571   8.129  13.748  0.2946 -0.0544 -0.0177
11276W        W30810  10.657   3.214   3.800 -0.2145 -0.0209  0.0294
11277W        W30811  17.851   1.374  13.550  0.1115  0.0414  0.1061
11278W        W30812  12.856   9.133  14.423 -0.1443 -0.1927  0.3508
11279W        W30813   0.240  18.196   3.218  0.1974  0.0900 -0.1561
11280W        W30814   3.613  11.063  11.537  0.0942  0.0745  0.1023
11281W        W30815  17.884   0.755   1.091 -0.1977  0.0000 -0.2088
11282W        W30816   8.712  18.274   4.361  0.1315  0.2577 -0.3015
11283W        W30817   7.349   1.674   2.088 -0.0520 -0.3445  0.1658
11284W        W30818  12.580  17.700   0.642  0.0550  0.1785 -0.1766
11285W        W30819   7.336   4.646   2.903 -0.0326  0.0827 -0.1866
11286W        W30820  15.028   1.785   2.376  0.0918  0.0283  0.1244
11287W        W30821   1.349   1.334   4.475 -0.0524  0.3410 -0.0394
11288W        W30822  15.851   8.958  11.939  0.0042 -0.0921 -0.1085
11289W        W30823  13.091  14.777   3.211  0.0578 -0.0619  0.2880
11290W        W30824  18.145   0.702   5.451 -0.1423  0.2011  0.0009
11291W        W30825   9.307  12.730   4.234  0.0876  0.2999  0.2916
11292W        W30826   3.985   0.249   2.613 -0.0848 -0.2324 -0.0234
11293W        W30827   6.831  17.054   3.663  0.0047  0.0502  0.2894
11294W        W30828  16.100   1.248   4.094  0.1469 -0.0647  0.0355
11295W        W30829  14.066  12.227  13.322  0.2215  0.2002 -0.0078
11296W        W30830   3.301  16.600   0.832 -0.0627 -0.0472 -0.0628
11297W        W30831   8.860   6.957  12.544 -0.0846 -0.0437  0.0814
11298W        W30832   9.194  10.277  15.275  0.1345  0.0331  0.2856
11299W        W30833  12.120   0.308  14.490 -0.1651 -0.0832 -0.1046
11300W        W30834   7.462  11.924   3.308  0.2924 -0.0989  0.0863
11301W        W30835  17.294   7.478  10.975  0.2140  0.3835 -0.1101
11302W        W30836   0.755  11.072   4.899  0.1460 -0.0402  0.4464
11303W        W30837   0.529   6.458  13.320 -0.1598 -0.1764  0.1594
11304W        W30838  12.994  15.473  12.006  0.0649  0.0111 -0.2752
11305W        W30839   4.383  17.524   4.412 -0.0821  0.1584 -0.1383
11306W        W30840  11.622  10.702   0.455  0.0084 -0.0604  0.0914
11307W        W30841  11.270  17.849   3.395  0.2213  0.1039  0.3961
11308W        W30842   5.049  17.395  13.823 -0.0837 -0.0664  0.1528
11309W        W30843  16.460   0.801  11.376  0.0405  0.2142  0.0483
11310W        W30844  11.075  15.564   4.019  0.0686 -0.0154  0.2446
11311W        W30845  14.957   3.369  11.245 -0.4175 -0.2725 -0.0779
11312W        W30846   2.525   7.272  14.016  0.0088  0.0524  0.2141
11313W        W30847   4.736   0.121  14.832  0.0948  0.1055  0.3133
11314W        W30848   1.476  14.560   4.265 -0.4890 -0.2009 -0.1199
11315W        W30849  17.101   0.274   4.257  0.0957 -0.2261  0.1338
11316W        W30850  18.237   4.225   0.550 -0.0143 -0.0441 -0.0058
11317W        W30851   5.398   0.838   2.050 -0.1552 -0.0714  0.1744
11318W        W30852   9.386   4.313  11.791 -0.1860  0.1844  0.0422
11319W        W30853  11.748   2.377   3.260 -0.1282 -0.1559  0.0711
11320W        W30854  18.265   2.013  11.247  0.1280 -0.0777 -0.1367
11321W        W30855  13.894  14.927   0.912  0.0895  0.2459  0.2222
11322W        W30856   5.557  16.072   3.539  0.0035  0.0775  0.0871
11323W        W30857   1.372   9.280  15.570 -0.0806  0.0266 -0.1452
11324W        W30858   7.758  13.269   2.292 -0.1107 -0.0329  0.2479
11325W        W30859   0.326   6.711  14.199 -0.1091  0.0318 -0.0687
11326W        W30860   6.020   9.862   4.160 -0.0220  0.3386  0.2784
11327W        W30861   6.411  16.244   3.359  0.1623  0.0839 -0.1991
11328W        W30862   7.052   1.612  14.148  0.2806 -0.1784 -0.2218
11329W        W30863   6.305   1.726  12.789 -0.1350 -0.0392 -0.1937
11330W        W30864   3.979   1.717  11.708  0.0509 -0.2024 -0.0765
11331W        W30865   7.960  10.095  15.584  0.1553  0.0039  0.1053
11332W        W30866  12.996   4.549   2.532  0.1449  0.2541 -0.1348
11333W        W30867   5.961  10.467   4.855 -0.0264  0.1875  0.0435
11334W        W30868   5.956  13.189   1.931  0.1729  0.1517  0.0007
11335W        W30869   6.003   3.264   4.823 -0.1868  0.2555 -0.2283
11336W        W30870  16.048   4.340  12.745  0.5298 -0.2005 -0.2644
11337W        W30871   8.533   3.134  13.188 -0.1899  0.2495  0.1213
11338W        W30872   5.564   0.770  14.944 -0.0484  0.0917  0.1638
11339W        W30873  17.817  15.215   0.248 -0.0686  0.0034  0.3124
11340W        W30874   5.692  15.901  13.507 -0.1243 -0.0341  0.0493
11341W        W30875  10.074  10.467   4.213  0.0244  0.1091 -0.0950
11342W        W30876   0.251  13.737  14.744  0.0762 -0.0978 -0.1950
11343W        W30877   6.503  10.054  14.566  0.0550 -0.1171 -0.2908
11344W        W30878  11.191  11.256   2.938  0.0660  0.4200 -0.2160
11345W        W30879   3.483   0.101   4.481 -0.1864 -0.2304 -0.0036
11346W        W30880   6.166  16.525  13.011  0.0433 -0.0075 -0.1848
11347W        W30881  10.587   7.352  12.099 -0.1603 -0.2716 -0.2341
11348W        W30882  12.456  11.128   1.616  0.0686  0.1152  0.0405
11349W        W30883   6.923  16.096  14.262  0.0321  0.1869  0.3728
11350W        W30884   1.760  15.687  14.724  0.0838  0.0976 -0.2028
11351W        W30885   5.161   4.033   4.552  0.1208 -0.0122  0.4022
11352W        W30886  12.856  10.304   1.634  0.0847  0.1204  0.2576
11353W        W30887   1.749   0.147   4.410  0.2786  0.0805 -0.1751
11354W        W30888  18.272  13.674   3.560 -0.0462 -0.0105  0.1341
11355W        W30889   3.652   6.903   3.904  0.0354  0.2859  0.0531
11356W        W30890  16.754  17.883  14.664 -0.0713 -0.0824 -0.2615
11357W        W30891  15.384   7.904  14.286  0.0376  0.1770  0.0194
11358W        W30892   6.678   3.430   0.389 -0.0634 -0.0095 -0.2045
11359W        W30893  16.465   3.458   2.435 -0.0027 -0.0242 -0.0241
11360W        W30894  15.845  14.145  12.501 -0.2181 -0.2499 -0.0456
11361W        W30895   5.513   9.038  14.821 -0.0850  0.0616  0.2182
11362W        W30896  11.996  10.516  13.367  0.2104 -0.0831  0.4495
11363W        W30897   1.630  14.845  10.579 -0.0722 -0.0489 -0.0713
11364W        W30898  10.000   8.103  14.351 -0.0577 -0.0686  0.1457
11365W        W30899   0.410   4.051   3.733  0.0017  0.0295 -0.2219
11366W        W30900   2.298   0.786   2.752 -0.1484 -0.1614 -0.0356
11367W        W30901   1.153  11.932   0.074 -0.1516 -0.1664 -0.3201
11368W        W30902   1.658  15.275   2.890 -0.3038  0.2011 -0.0522
11369W        W30903  13.479   5.216   2.591 -0.1989  0.3549  0.0100
11370W        W30904   0.723  10.431  13.842  0.0022  0.2669 -0.0672
11371W        W30905   5.559  12.914  11.263  0.3149  0.0686 -0.0610
11372W        W30906   2.718  14.273  12.443  0.1641 -0.0513  0.2059
11373W        W30907   1.710   0.822  14.950  0.1326  0.0599  0.0397
11374W        W30908   9.109  10.154   2.442  0.0972  0.0510  0.1913
11375W        W30909  13.567   4.467   0.671  0.1803  0.1156  0.0342
11376W        W30910   7.089  15.371  14.893  0.0709  0.0220 -0.1317
11377W        W30911   8.554  16.805   4.817 -0.0274  0.0237  0.3249
11378W        W30912  17.976  14.643  15.029  0.0174  0.1887  0.3325
11379W        W30913   1.885  14.691  12.765 -0.2506 -0.0431  0.1281
11380W        W30914  16.288   4.138   0.893  0.0037 -0.1085  0.1693
11381W        W30915   4.444   1.758   4.054 -0.0405  0.1507 -0.0368
11382W        W30916  14.078  15.340  11.467 -0.0883  0.0582 -0.0479
11383W        W30917  12.995   7.297  13.266  0.0371 -0.0868 -0.0204
11384W        W30918   9.876   7.965   2.313  0.2399  0.2939 -0.0405
11385W        W30919   3.611   0.377   4.905  0.0492  0.2111 -0.0098
11386W        W30920  17.422  13.344  13.563  0.0787 -0.2379 -0.0880
11387W        W30921   1.948   3.157   1.880  0.1667  0.2688  0.2552
11388W        W30922  11.166  10.601  12.543  0.2699  0.0740 -0.3645
11389W        W30923   2.478  14.234   2.316  0.1869 -0.1527  0.0629
11390W        W30924  14.228  16.849   4.279  0.0589  0.0277  0.2550
11391W        W30925   8.615  11.994  14.167  0.1392  0.0226  0.2634
11392W        W30926  10.236   3.078   2.677  0.0528  0.0448 -0.0402
11393W        W30927  14.511   4.708  14.422 -0.1268  0.0024  0.2138
11394W        W30928   8.268  14.284   0.289  0.1281  0.0938 -0.1988
11395W        W30929  13.658  11.777   0.774 -0.2435 -0.1895  0.2524
11396W        W30930   0.193  13.746   3.926  0.2215 -0.2282 -0.1252
11397W        W30931   4.923   1.955  11.858 -0.1707  0.2711 -0.1402
11398W        W30932   1.257  18.385  15.250  0.0571  0.2876  0.2279
11399W        W30933  13.861  12.772   1.447 -0.1682 -0.2351  0.2650
11400W        W30934  13.024   9.457   1.152  0.3369 -0.2052 -0.4468
11401W        W30935   7.011   4.400   5.564 -0.1065  0.2372  0.1358
11402W        W30936  11.782  15.119   4.624  0.0751  0.1180 -0.1562
11403W        W30937   0.687   2.409   1.161  0.0159  0.1764  0.0111
11404W        W30938   6.078   0.733   0.046  0.0320  0.1975 -0.2332
11405W        W30939   5.491  15.656  13.982 -0.1779  0.1693  0.1653
11406W        W30940  11.211  14.947   1.361 -0.0141 -0.3368 -0.1010
11407W        W30941   9.068  16.551   3.665 -0.0897  0.0930 -0.0780
11408W        W30942  14.434   4.621  13.503  0.1944 -0.1452  0.4074
11409W        W30943  12.959   6.855  13.634 -0.0329  0.1042 -0.4636
11410W        W30944   0.870  10.206   2.223 -0.2469 -0.0682 -0.1747
11411W        W30945   9.492  15.696  12.443 -0.2160  0.3018 -0.1536
11412W        W30946  16.781  13.266  13.262 -0.0100  0.2581  0.0075
11413W        W30947  16.562   0.031   2.385  0.0276 -0.0164 -0.1061
11414W        W30948   0.576  17.033   1.852 -0.2708  0.2754  0.2354
11415W        W30949   0.756  15.424   1.122  0.3109  0.0725  0.1079
11416W        W30950  13.264   5.285  15.121 -0.0433  0.2222 -0.2230
11417W        W30951   0.940   5.625   1.961 -0.0643 -0.0803 -0.0150
11418W        W30952   4.425  17.097   4.076 -0.0898  0.1543 -0.0871
11419W        W30953  12.628  17.124   2.133  0.1383 -0.1483  0.1019
11420W        W30954   9.996   3.138   4.122  0.1176  0.3861  0.2457
11421W        W30955  15.493  18.375  12.020  0.0794 -0.2299 -0.3269
11422W        W30956  10.608   5.615  13.644 -0.1395  0.0319  0.1213
11423W        W30957  13.269  15.841   1.803 -0.2554 -0.3226 -0.0518
11424W        W30958   3.921  13.747   0.215 -0.4125 -0.1105  0.0831
11425W        W30959   7.148   5.426   0.091 -0.1169  0.3232 -0.1587
11426W        W30960   0.483   5.847  11.210 -0.3733 -0.1846 -0.0519
11427W        W30961   9.075  15.405  13.924 -0.2957 -0.2327 -0.2179
11428W        W30962   6.015  14.502  13.286 -0.1518 -0.1831  0.1403
11429W        W30963   4.076   9.907  10.192  0.0915 -0.1864  0.0679
11430W        W30964  17.841  14.777   3.769 -0.1332 -0.1716  0.1990
11431W        W30965  14.542  10.192  10.686  0.1410 -0.0587 -0.1933
11432W        W30966  17.672  13.017  12.335  0.0138  0.1283  0.0064
11433W        W30967  15.481  12.392  14.242 -0.2447  0.0957  0.3771
11434W        W30968   5.776   8.036   4.037 -0.0622  0.0100 -0.0862
11435W        W30969   7.406  17.990   1.119 -0.2766 -0.0174  0.2511
11436W        W30970   1.859   4.144  14.967 -0.0510  0.0376 -0.1447
11437W        W30971  17.239   9.506  13.262  0.0008 -0.1849 -0.2334
11438W        W30972   0.511  16.885  15.492  0.0213  0.0217 -0.0374
11439W        W30973   7.722   0.632   1.069 -0.0668 -0.0583  0.0518
11440W        W30974   4.964  15.820   3.674 -0.1215  0.0049 -0.1963
11441W        W30975   5.186  14.086  14.635  0.3400 -0.0152 -0.0730
11442W        W30976  16.435  11.833  12.426  0.1657 -0.0450  0.0963
11443W        W30977   2.131  11.902   3.801 -0.0924 -0.1649 -0.3356
11444W        W30978  14.983  17.620  12.974  0.0051 -0.2836  0.0649
11445W        W30979  10.398  11.351   3.251  0.2176 -0.0034 -0.0665
11446W        W30980  14.633  10.925   2.754  0.0451 -0.1146 -0.2075
11447W        W30981  11.615  16.706   2.731  0.0992 -0.2147  0.0058
11448W        W30982  15.814  12.722  12.989  0.1603  0.0720  0.0260
11449W        W30983  15.740   8.284  11.136 -0.1025 -0.0312  0.1635
11450W        W30984  13.678  17.960  12.196  0.3202 -0.0260  0.3861
11451W        W30985   2.478   4.220  15.660 -0.2333  0.2126  0.2851
11452W        W30986   5.603   8.770   1.201 -0.0244 -0.2118  0.2294
11453W        W30987   8.328  10.827   2.794  0.2404 -0.0144 -0.1848
11454W        W30988   5.585   0.717  12.953  0.1388 -0.1366 -0.0682
11455W        W30989  11.110   9.327  15.649 -0.3420 -0.0901 -0.1754
11456W        W30990   4.947  14.259   1.195 -0.1211  0.0650 -0.1372
11457W        W30991   7.927   4.485   0.228  0.0719 -0.1396  0.1767
11458W        W30992  11.561  17.547  14.490  0.1809  0.0467  0.0339
11459W        W30993   3.051  13.146   1.626  0.1400  0.0970 -0.3213
11460W        W30994  17.779  17.331   2.152  0.0437  0.1753  0.0084
11461W        W30995   7.750   9.537  12.428 -0.0148  0.0740  0.2511
11462W        W30996   2.124   5.431   1.202  0.1034 -0.1810 -0.0722
11463W        W30997   7.371  10.494  10.773 -0.0341  0.1453  0.1269
11464W        W30998   8.852  12.903   1.288  0.1181  0.0516  0.1190
11465W        W30999   6.006   4.218   2.997  0.0683 -0.3761 -0.3433
11466W        W31000  10.965  15.763  11.562  0.0758 -0.0494 -0.0853
11467W        W31001  10.936  18.232  15.544 -0.1563 -0.0069 -0.0312
11468W        W31002  14.653   4.166   1.061 -0.0509  0.0325 -0.2119
11469W        W31003   6.082   8.098  13.917  0.1146  0.3064 -0.0381
11470W        W31004  11.889   8.819   0.370  0.2356  0.1272 -0.1277
11471W        W31005   4.600   4.691  15.511 -0.0259 -0.0863 -0.2083
11472W        W31006   2.642  11.643   4.091 -0.2075  0.1828  0.1204
11473W        W31007  12.069   5.655  15.284  0.0334  0.0206  0.0553
11474W        W31008   0.946  18.349  15.717  0.0553 -0.0129  0.2859
11475W        W31009  15.422  14.826   0.587 -0.3521  0.0997  0.1568
11476W        W31010  13.656  14.754  11.905  0.0445  0.1815  0.1725
11477W        W31011  15.356  10.923   3.908 -0.0830  0.2882 -0.0561
11478W        W31012   1.175  14.618   0.107 -0.1174 -0.1064 -0.1053
11479W        W31013  16.924  13.699  14.343 -0.0447  0.1104  0.0364
11480W        W31014  14.604   3.508   2.349 -0.1047 -0.1202  0.0808
11481W        W31015   7.010   4.982   1.388  0.5033  0.0499  0.1871
11482W        W31016   2.315   9.021  12.748  0.2056 -0.0438  0.1046
11483W        W31017   1.026   0.795  15.339  0.2493 -0.0096  0.0459
11484W        W31018   1.369  17.267  11.181  0.0962  0.1107  0.0693
11485W        W31019   0.226   7.865  12.458  0.0003  0.1934  0.1228
11486W        W31020   0.838   6.880  14.171 -0.1246 -0.0975 -0.0304
11487W        W31021   9.308   7.267  12.134 -0.2842  0.0375  0.1135
11488W        W31022  13.179   8.037   2.973  0.0307 -0.0176  0.3463
11489W        W31023   8.806  12.495   0.906  0.1417 -0.1560 -0.2147
11490W        W31024  10.248  10.935  12.116 -0.1800  0.0720 -0.1014
11491W        W31025   6.431  14.901  12.531 -0.1914  0.0534  0.1119
11492W        W31026   0.903   8.959  11.781 -0.0345  0.2634 -0.0083
11493W        W31027  11.448   2.795   2.769 -0.0498 -0.2251  0.3140
11494W        W31028  10.477   6.115   4.076  0.1718  0.0195  0.2415
11495W        W31029   5.128  18.052   2.932 -0.1205  0.2007 -0.0244
11496W        W31030   3.232   5.531   4.796  0.2502 -0.1593 -0.1764
11497W        W31031  12.509   2.112  11.773  0.0026  0.0991  0.0107
11498W        W31032   7.258  13.003  11.603 -0.1537  0.0104 -0.0400
11499W        W31033   3.232  13.062   3.133  0.2507  0.3510  0.3919
11500W        W31034  13.691  17.078   1.968  0.1320  0.3387 -0.0296
11501W        W31035  11.860   6.695   1.230  0.0010  0.0810 -0.0775
11502W        W31036   7.963  11.776  11.436 -0.1014 -0.1048 -0.1281
11503W        W31037  12.993  16.291  12.406 -0.1452 -0.1215  0.0875
11504W        W31038   1.436   1.529   1.557 -0.0202  0.3832  0.0844
11505W        W31039  15.836  12.271  15.343 -0.2528 -0.3865  0.0732
11506W        W31040  16.257   1.421   1.775  0.1748  0.0141 -0.0437
11507W        W31041   0.799   8.527  12.919 -0.0034  0.2837  0.2725
11508W        W31042   6.097  10.881   0.786 -0.0295  0.0989 -0.0585
11509W        W31043  16.804  16.727   1.553  0.2559  0.3027 -0.2599
11510W        W31044   4.535   3.632  13.801  0.2035  0.0923 -0.1607
11511W        W31045   2.694  16.716  15.142  0.3561 -0.0127  0.0647
11512W        W31046   7.469  10.003   0.775 -0.0066 -0.4465 -0.0405
11513W        W31047  14.333   9.848   4.114 -0.4403 -0.2390 -0.0133
11514W        W31048   7.462   7.734   4.892 -0.1531  0.0772 -0.0819
11515W        W31049  13.142  15.438   4.532 -0.2972 -0.0708 -0.1005
11516W        W31050   6.005   2.177  13.924  0.0376  0.1237 -0.0538
11517W        W31051   4.429   3.342   0.937 -0.0649  0.3186 -0.2332
11518W        W31052  14.567  15.087   1.713  0.0338  0.3182 -0.1818
11519W        W31053   9.542   3.481   5.240  0.0920  0.0607  0.0969
11520W        W31054  17.324  11.525  13.374  0.1676  0.1741  0.2168
11521W        W31055   3.386   6.752   2.432 -0.2595 -0.1473  0.0722
11522W        W31056  10.069  15.731   0.894  0.1989 -0.1810 -0.0348
11523W        W31057  12.462  12.627   0.562  0.2637  0.1197 -0.0707
11524W        W31058   4.569   5.282  14.419  0.0672  0.0593 -0.2786
11525W        W31059   1.806  12.936  10.178  0.0159 -0.1202 -0.3884
11526W        W31060  16.598  12.246   4.623  0.0599 -0.2568 -0.0808
11527W        W31061   1.864  10.456  15.240 -0.0331  0.1190 -0.2050
11528W        W31062  14.945   3.037  14.358 -0.4013  0.0212 -0.0153
11529W        W31063  10.354   4.559  13.709 -0.0162  0.0506 -0.1107
11530W        W31064   1.270   7.759   2.943 -0.0879  0.1421  0.0613
11531W        W31065   5.975   8.039   3.033 -0.2490 -0.0336  0.3362
11532W        W31066  11.179  17.837   1.813 -0.1101  0.0308  0.1172
11533W        W31067  11.295  11.925  13.634  0.1177 -0.0801  0.0899
11534W        W31068   0.776   6.783   0.568 -0.1002 -0.0831  0.0256
11535W        W31069   1.514  11.575  12.321 -0.3582 -0.2261  0.0434
11536W        W31070  17.245   0.073   0.120 -0.2678  0.3757 -0.0239
11537W        W31071   0.831  17.677  11.803 -0.1159 -0.0674  0.0144
11538W        W31072   6.903  14.440  14.963  0.0764 -0.3776 -0.2124
11539W        W31073   2.435   9.050   3.944  0.2058  0.0669 -0.2164
11540W        W31074  10.825   9.614   0.412  0.0554 -0.1548 -0.2355
11541W        W31075   4.229  12.904   0.197 -0.1396 -0.0305 -0.1208
11542W        W31076  12.611  15.053   4.691  0.0795 -0.1041  0.2161
11543W        W31077  12.830  15.769   2.150  0.0734 -0.1815  0.0727
11544W        W31078  15.197   1.969  11.660  0.0246 -0.2615  0.1678
11545W        W31079  15.725   5.649  12.276 -0.0943  0.0720  0.4316
11546W        W31080   4.777   2.636   2.517  0.1851 -0.0210  0.1057
11547W        W31081   1.077   2.253  11.527  0.4321  0.0467  0.0175
11548W        W31082  17.736   2.529  15.542  0.0965 -0.0488  0.1316
11549W        W31083  10.286   5.918  14.991 -0.0937 -0.0315  0.0933
11550W        W31084   6.401  14.060   4.942 -0.2585 -0.0371  0.0625
11551W        W31085  16.520  13.895  14.119  0.0190  0.1052 -0.0517
11552W        W31086  16.142   0.677  12.029  0.2216  0.0089  0.0921
11553W        W31087   1.384  17.781   3.233  0.0002  0.0291  0.0303
11554W        W31088   2.996   0.447  12.635 -0.2034  0.0132 -0.0993
11555W        W31089   9.783   3.525   6.000 -0.0532 -0.2050 -0.1702
11556W        W31090   5.032  16.189   2.743 -0.0385 -0.0080 -0.2734
11557W        W31091   9.493   6.803  13.944 -0.0210 -0.1085  0.1279
11558W        W31092  14.020  14.862  15.212 -0.1910  0.1026  0.2403
11559W        W31093   4.597  12.842   1.096 -0.0189  0.3714 -0.0339
11560W        W31094  18.129   4.714   0.689 -0.1807 -0.2778  0.0117
11561W        W31095  11.755   4.673  12.677  0.2270  0.0739 -0.0501
11562W        W31096  13.706  16.425   1.915 -0.0651 -0.1712  0.1500
11563W        W31097  16.700   1.673   4.154  0.1162  0.1952 -0.3702
11564W        W31098   3.894  13.859   2.827  0.1068 -0.2614  0.2356
11565W        W31099  13.179  17.332   2.119  0.3595  0.0851 -0.0243
11566W        W31100  15.648   1.772   5.106 -0.0640 -0.0326  0.1399
11567W        W31101   2.537  16.372   0.449  0.0420  0.0985  0.0645
11568W        W31102  11.434   2.442  15.127 -0.0152 -0.2227  0.0909
11569W        W31103   2.301  14.590   2.570 -0.0335 -0.3670 -0.1282
11570W        W31104   4.481  10.216  12.266 -0.1956  0.3931  0.2516
11571W        W31105   8.389   4.980  11.505  0.1794  0.1890 -0.0073
11572W        W31106  12.177   2.998   0.627  0.0609 -0.1620  0.1142
11573W        W31107  10.549   0.991  12.901 -0.3372 -0.0047  0.4590
11574W        W31108  11.934  13.924   4.064  0.0494 -0.0828 -0.2077
11575W        W31109   7.043   2.476  15.431  0.2003 -0.4334  0.2078
11576W        W31110   6.069   3.040   1.821  0.1279 -0.0618 -0.1218
11577W        W31111  14.733  13.039   3.165 -0.1114 -0.0154  0.0855
11578W        W31112   7.872  13.694  11.125 -0.1766 -0.1080  0.1977
11579W        W31113  13.586   0.093   3.406 -0.3462  0.0219  0.0609
11580W        W31114  12.501  13.920   2.419  0.0432 -0.0461 -0.2222
11581W        W31115   2.071   0.531   3.227 -0.1843  0.0770  0.2346
11582W        W31116  15.683  12.979  11.713 -0.2196  0.2707 -0.2024
11583W        W31117   2.433   3.486   3.331 -0.0201  0.0960 -0.1645
11584W        W31118   2.347   9.520  13.822 -0.0477  0.2218  0.3388
11585W        W31119   3.127   3.894  14.401 -0.0522  0.1089 -0.1742
11586W        W31120   1.078  10.854   1.299 -0.0328  0.2237  0.0148
11587W        W31121   0.648   0.504   3.117  0.0424 -0.1903  0.2866
11588W        W31122   8.842  10.224  13.986 -0.2044 -0.1043 -0.1694
11589W        W31123  15.709   6.509  13.233  0.4370  0.0336  0.0139
11590W        W31124   6.007  17.853   0.906 -0.2031  0.1293  0.3197
11591W        W31125  11.948  10.964  13.134 -0.2973  0.1035 -0.0945
11592W        W31126   4.865  16.952  14.080  0.2492 -0.1527  0.1587
11593W        W31127  11.990   1.324   5.501  0.2934 -0.1597  0.1619
11594W        W31128   0.177   1.420   2.057 -0.1417 -0.0399 -0.0520
11595W        W31129  11.538   8.517  12.735  0.0141  0.1499 -0.2524
11596W        W31130  12.521  15.550   4.763  0.2672 -0.0424  0.0695
11597W        W31131   6.955  11.814  12.042  0.0556  0.0672 -0.2177
11598W        W31132  16.691   0.862   2.075  0.0276 -0.2146  0.1718
11599W        W31133   5.235   5.982  10.734 -0.0555  0.2802  0.1758
11600W        W31134   9.702  13.006   3.364  0.0346 -0.0099  0.1459
11601W        W31135   4.552  11.548  15.586 -0.1906 -0.2285 -0.0282
11602W        W31136  10.895  17.988  11.719 -0.0410 -0.1330  0.1615
11603W        W31137  13.181  12.993  12.490  0.2396  0.1487 -0.2941
11604W        W31138   6.628   4.159   1.206  0.1917  0.1990  0.1502
11605W        W31139   7.210  10.124   2.591  0.0025 -0.0161  0.2487
11606W        W31140  13.333  12.115  11.483 -0.1094 -0.2189 -0.0643
11607W        W31141   1.431   3.666  11.806  0.1596  0.3483 -0.2385
11608W        W31142  14.920   3.402  12.704 -0.3936 -0.1242 -0.1691
11609W        W31143  17.938  14.142  11.485  0.2107  0.2644  0.1804
11610W        W31144   8.726   8.091   0.445  0.1912 -0.1917 -0.0257
11611W        W31145   3.621   0.121  12.611  0.1529  0.5045  0.4509
11612W        W31146  11.500   8.528  14.948  0.2337 -0.1101  0.2375
11613W        W31147  14.605  13.448   0.251  0.0761  0.2290 -0.0033
11614W        W31148  11.879   5.796   4.084  0.0766 -0.1479  0.1401
11615W        W31149   2.266  15.421  14.567 -0.0437 -0.1085  0.1822
11616W        W31150  16.057   8.409   0.946  0.3152 -0.1484 -0.0786
11617W        W31151   0.998  14.558   0.993 -0.0221 -0.0106 -0.1425
11618W        W31152   0.798  10.750   2.534 -0.0438  0.0304 -0.2581
11619W        W31153   9.699  10.395  13.494 -0.0086  0.1492 -0.2584
11620W        W31154   7.843   3.706  13.535  0.3110 -0.3713  0.3168
11621W        W31155  14.151  12.531  12.360 -0.2071  0.0241  0.5431
11622W        W31156   5.827  13.228  14.387 -0.0759 -0.5712  0.1989
11623W        W31157  18.196  15.010  13.318 -0.1810  0.1051 -0.1144
11624W        W31158   2.559   4.462  11.364 -0.1644 -0.1180  0.1182
11625W        W31159  17.263  10.794   2.433 -0.1922 -0.0192  0.1324
11626W        W31160   4.440   5.528  11.866  0.0218  0.0490 -0.1765
11627W        W31161  16.335   2.195  12.347 -0.1391 -0.0369  0.2341
11628W        W31162  15.893   9.531  13.755 -0.0437 -0.0784 -0.0533
11629W        W31163   6.856  16.569   3.327  0.2354  0.0803  0.0471
11630W        W31164  12.751  10.533  14.759  0.0076 -0.4309  0.0547
11631W        W31165  13.101  15.157  14.919 -0.0295  0.0311 -0.0640
11632W        W31166  12.100  14.578   0.397  0.1050 -0.1081 -0.0773
11633W        W31167   2.437   5.959  13.377  0.2018  0.1003 -0.3861
11634W        W31168   8.893   5.417   3.616  0.1189 -0.0274 -0.1240
11635W        W31169   5.653  13.436  14.841  0.2045 -0.3173  0.1658
11636W        W31170  17.700  15.689   4.780 -0.1757  0.3457  0.1656
11637W        W31171  16.966   8.385  11.416 -0.0641 -0.1524 -0.2485
11638W        W31172   3.380  14.453   1.040 -0.0022  0.2063 -0.0597
11639W        W31173  11.960  18.358  14.163  0.1656 -0.1233  0.1382
11640W        W31174   3.627   0.003  11.287 -0.1915  0.2167  0.0533
11641W        W31175   7.254  10.858   4.212  0.3611  0.2061  0.2583
11642W        W31176   3.809   2.657   0.817  0.0035 -0.1751  0.0098
11643W        W31177   0.879   7.916  12.385 -0.1004  0.2088  0.0310
11644W        W31178   9.722  16.269   5.338  0.0253 -0.3515 -0.0442
11645W        W31179  13.495   7.208   4.718 -0.0149 -0.0546  0.0391
11646W        W31180   8.556   4.838   1.430  0.1432  0.3996  0.0153
11647W        W31181   2.010   2.177  13.813 -0.0813  0.0956 -0.0114
11648W        W31182   6.296  16.086  15.448  0.0256  0.0209  0.0536
11649W        W31183   8.992  17.745   0.562 -0.0103 -0.4577 -0.1725
11650W        W31184   2.033   1.523  13.317 -0.0484  0.0627 -0.1423
11651W        W31185  10.542   4.584   4.101  0.1803 -0.1184 -0.0584
11652W        W31186   0.029  17.360  11.337  0.2748 -0.0532  0.1189
11653W        W31187   3.197  12.190   4.400 -0.3401 -0.0059  0.2613
11654W        W31188  18.063  13.301   0.422 -0.2936 -0.0633  0.2356
11655W        W31189  11.284  10.919  14.536  0.0767 -0.0109  0.0243
11656W        W31190  17.561   4.181   1.688 -0.1662  0.0532 -0.0460
11657W        W31191  12.295  12.594   0.010  0.2409  0.1552  0.1052
11658W        W31192  17.427   6.707   2.973 -0.1086 -0.2397  0.0980
11659W        W31193  12.727   1.167  14.370 -0.0436  0.3670  0.2279
11660W        W31194   5.735   8.526   0.740  0.0551  0.1072  0.0029
11661W        W31195  18.153   8.218   1.404  0.2027  0.1352 -0.1582
11662W        W31196  14.832   5.448  12.323  0.0522 -0.0178  0.0824
11663W        W31197  10.956  15.962  15.326 -0.3146  0.1477  0.1267
11664W        W31198  17.567   1.109  11.747 -0.1856  0.1919 -0.0913
11665W        W31199   9.344  16.329   4.476  0.0073  0.0727  0.0003
11666W        W31200   4.593   8.439   1.841  0.0042  0.3863 -0.2013
11667W        W31201  11.753   8.595   0.824  0.0655 -0.2120 -0.2763
11668W        W31202   3.354   0.251   0.107 -0.1769 -0.0692  0.1680
11669W        W31203   7.437  16.217   4.196 -0.0062  0.1924 -0.3773
11670W        W31204  13.851  10.752   0.207  0.1125  0.0257 -0.3679
11671W        W31205   6.344   0.986   3.767  0.1425  0.2207 -0.0874
11672W        W31206  17.235   2.419   3.367 -0.0888  0.1982  0.1668
11673W        W31207   1.614  13.957  10.973 -0.1313  0.0101  0.1393
11674W        W31208   6.929  11.002  15.531 -0.0972 -0.0148 -0.1967
11675W        W31209  11.803   6.403  13.105 -0.2912  0.0034  0.0632
11676W        W31210  12.908   9.914  15.468  0.1955  0.0946  0.0647
11677W        W31211  12.087   5.836   3.243 -0.0826 -0.0693 -0.0264
11678W        W31212   5.436   9.095  11.381 -0.0793 -0.0918  0.0962
11679W        W31213  10.644   9.210  14.790  0.2498  0.1984 -0.1292
11680W        W31214  11.939  10.928   2.829 -0.0713  0.0141 -0.2039
11681W        W31215   4.954   0.107  12.460  0.0676 -0.2782  0.1949
11682W        W31216   7.898  12.020  12.456  0.3662  0.5608  0.0907
11683W        W31217   9.451   3.609   1.764 -0.0579  0.0466  0.0626
11684W        W31218   9.588  10.142   2.618 -0.0003  0.1254 -0.2122
11685W        W31219  16.658  14.162   1.200  0.0253  0.1990 -0.0445
11686W        W31220  10.873   5.133   2.562 -0.3717 -0.0572  0.0565
11687W        W31221  10.076  15.962   4.497  0.0604 -0.2290  0.0075
11688W        W31222   8.842   7.632   3.940 -0.0423  0.0396 -0.2431
11689W        W31223   1.234   3.267  11.414  0.1261 -0.3689 -0.0659
11690W        W31224   1.986  17.169   4.177  0.2355 -0.2751 -0.0113
11691W        W31225   1.921  15.848  14.263 -0.0630 -0.1108  0.1576
11692W        W31226  17.473   5.168   2.996 -0.2134  0.0935  0.2002
11693W        W31227   8.258  14.581   4.079  0.1494  0.0688 -0.0491
11694W        W31228  18.196   3.832  11.888 -0.2742 -0.1712 -0.0642
11695W        W31229  15.217  10.002   1.893  0.0428 -0.1621 -0.0782
11696W        W31230   0.870  13.821  11.951  0.1385 -0.1004 -0.0871
11697W        W31231   2.918  16.254  15.836 -0.2228 -0.3077 -0.1698
11698W        W31232   6.708  18.089  11.626 -0.1880 -0.0802 -0.1930
11699W        W31233  15.927   0.304  11.562  0.1861  0.0608  0.0767
11700W        W31234   0.242  12.514   0.586 -0.2109  0.0381 -0.3081
11701W        W31235   6.745   7.404   0.336 -0.0553  0.0474 -0.0516
11702W        W31236  15.282   0.717   4.336  0.3277  0.0347  0.1808
11703W        W31237   0.025  13.198   0.034  0.0642  0.0959  0.1780
11704W        W31238  12.906   5.607  11.730 -0.0876  0.2647  0.3264
11705W        W31239   4.333   0.728   1.089  0.0080  0.1502  0.3685
11706W        W31240   6.254  15.029   2.472  0.4214  0.0078  0.1014
11707W        W31241  18.180  12.144   1.052 -0.2399 -0.0536 -0.0874
11708W        W31242  15.785   5.262   3.138 -0.0597 -0.0212 -0.0582
11709W        W31243  11.777   3.376  12.474 -0.0435 -0.2817  0.0157
11710W        W31244   3.997  18.397   4.445 -0.2364  0.1537 -0.1906
11711W        W31245  17.452  16.166   1.929 -0.0499  0.1035  0.0727
11712W        W31246  14.445   1.935   1.105 -0.0972  0.0279  0.0875
11713W        W31247  12.620  10.336   2.786 -0.0001  0.0398  0.1013
11714W        W31248   3.565   3.331  13.805 -0.0529 -0.1168  0.0029
11715W        W31249   3.857  15.164  12.833 -0.0797 -0.2741  0.0566
11716W        W31250   9.087  10.315  12.588  0.1938 -0.0346 -0.0071
11717W        W31251   0.745   9.568  14.044  0.2020  0.1447  0.2259
11718W        W31252   6.958   2.544   3.893 -0.0446 -0.0388  0.3378
11719W        W31253  10.982   5.630   3.465  0.1527 -0.1126  0.0079
11720W        W31254   6.345  12.371  14.539 -0.2739  0.0945 -0.3195
11721W        W31255  17.941  17.907  13.944  0.1908 -0.1740 -0.1193
11722W        W31256  17.582   6.668  11.978  0.2694  0.2212 -0.1273
11723W        W31257   6.667   3.496  15.315  0.1928 -0.1130 -0.1597
11724W        W31258  12.771   0.512  12.101  0.0065  0.0226  0.0530
11725W        W31259   7.020   3.048  11.760  0.0129 -0.1452  0.1064
11726W        W31260   5.505  11.534  14.849  0.0696 -0.0781 -0.0879
11727W        W31261  17.704  11.338  12.530  0.1485  0.1576 -0.0787
11728W        W31262   6.055   6.201   1.878  0.1176  0.2743  0.0564
11729W        W31263  12.675   6.106   4.210 -0.0889  0.0018 -0.0793
11730W        W31264   0.069   2.200   3.827  0.1045 -0.1840 -0.1331
11731W        W31265  16.809  12.568  12.824  0.0686  0.0563  0.1606
11732W        W31266  13.936   5.244   2.417 -0.1722  0.0801  0.2591
11733W        W31267   8.963   1.799  14.214 -0.1607  0.2857  0.3785
11734W        W31268   7.132  11.955  14.269 -0.2441 -0.0673 -0.1542
11735W        W31269   6.342  16.977  13.128 -0.1285 -0.0569 -0.2314
11736W        W31270   9.777   5.685  11.319 -0.1935  0.0545 -0.3034
11737W        W31271   8.329   4.387   2.902  0.1214  0.1011  0.1199
11738W        W31272  15.533  13.528  11.909  0.0465 -0.1529 -0.0871
11739W        W31273  14.301  15.267  13.809  0.1004  0.3811 -0.1836
11740W        W31274  10.807  16.122  13.839 -0.1689 -0.0923 -0.2292
11741W        W31275   0.817   6.358   4.146 -0.1184  0.3048  0.0186
11742W        W31276   2.027   0.747  13.690  0.2257 -0.0645  0.1122
11743W        W31277  12.860   2.293  12.095 -0.0281 -0.1138  0.1350
11744W        W31278  12.028  15.267  12.365 -0.2031  0.0533  0.2820
11745W        W31279  15.110   9.300  11.894  0.2388 -0.1610 -0.2964
11746W        W31280  17.325   7.360   4.229  0.1561  0.1934 -0.0105
11747W        W31281   5.008  10.039   0.272  0.0681 -0.2124 -0.2099
11748W        W31282   3.892   8.935   4.000 -0.0481  0.1558 -0.0292
11749W        W31283   6.991   1.040   3.368 -0.3562 -0.0301  0.0801
11750W        W31284   5.287  17.554   1.452 -0.1025  0.1579 -0.0184
11751W        W31285   1.390  18.396   2.701 -0.0087 -0.1810 -0.1669
11752W        W31286  15.570  10.425  10.814 -0.2134  0.0039  0.0473
11753W        W31287  15.728   8.506  14.834 -0.0186 -0.1702 -0.1365
11754W        W31288  17.023   0.321  11.888  0.2491  0.2638 -0.2843
11755W        W31289   1.024   5.047   1.108 -0.1071 -0.2693  0.1361
11756W        W31290  10.657  16.588   4.674  0.0257 -0.0212  0.2348
11757W        W31291  17.764   7.640  10.282  0.2588  0.0644  0.4124
11758W        W31292   0.079   1.947  12.924 -0.1176  0.0963  0.1777
11759W        W31293   6.368   3.920   5.229 -0.5113 -0.0664  0.1494
11760W        W31294   1.158   5.645  15.524  0.1638  0.4568  0.1135
11761W        W31295  13.635   0.614   2.559 -0.0095  0.0039  0.4972
11762W        W31296  12.837  12.793   1.321  0.6327  0.1774 -0.0758
11763W        W31297   5.680   0.652   4.354  0.0399 -0.0628  0.1086
11764W        W31298   7.902  10.515  12.016 -0.4130 -0.1578  0.0616
11765W        W31299   8.346  13.106  14.396 -0.1970 -0.2337 -0.1097
11766W        W31300  10.834  17.238   4.835 -0.1808  0.2645  0.1865
11767W        W31301  15.302  10.413   4.701  0.1438  0.1654  0.2971
11768W        W31302   7.911   0.017  14.228 -0.1135  0.2886  0.0641
11769W        W31303   8.956   7.752  12.793  0.0940 -0.0422  0.3774
11770W        W31304   8.291   1.583   3.768  0.0360  0.4046  0.0224
11771W        W31305  12.086   1.341   6.027 -0.2017  0.0695  0.2769
11772W        W31306  12.159  10.229   3.749  0.2127 -0.2097  0.1192
11773W        W31307   3.085  15.340  13.362  0.1322  0.3149  0.0272
11774W        W31308   3.425   9.192   2.240  0.1843  0.0997 -0.2073
11775W        W31309  13.298  15.802  12.757 -0.1044  0.0783 -0.2214
11776W        W31310   6.403  17.953  13.783  0.0682  0.0267  0.1829
11777W        W31311  12.462  10.436  15.592  0.2326 -0.0209  0.1114
11778W        W31312  16.590  13.518   2.181  0.2254 -0.0696 -0.1459
11779W        W31313   8.719  15.597  14.241 -0.2180 -0.3827  0.0548
11780W        W31314   0.945   3.281   1.647  0.0514 -0.2474 -0.0691
11781W        W31315   4.661   5.794  11.536  0.1417  0.1446 -0.0157
11782W        W31316   9.173   3.896   1.519  0.2225  0.1285  0.0436
11783W        W31317   4.035  17.332  13.592 -0.0413  0.0287 -0.0911
11784W        W31318   8.792  17.298   1.819  0.1965 -0.1044  0.1372
11785W        W31319   7.243   0.515   1.003  0.0569  0.0230  0.1203
11786W        W31320  14.269   3.661   5.336 -0.0131  0.0605 -0.3306
11787W        W31321   4.900  11.384   0.100 -0.0364 -0.1872  0.0743
11788W        W31322  15.323  14.162  11.155  0.2120 -0.2536 -0.3470
11789W        W31323   2.443   2.828  15.238 -0.1850  0.0100  0.0409
11790W        W31324  14.938   8.010   3.786 -0.0970 -0.0135 -0.2176
11791W        W31325  15.882  12.668  14.993  0.1765  0.0515  0.1790
11792W        W31326  13.112   8.795  12.472 -0.0296  0.0765  0.2583
11793W        W31327  18.173   3.508   4.602  0.1310  0.2303  0.1724
11794W        W31328   3.134   9.995   2.257  0.2511  0.0145  0.2346
11795W        W31329   2.120   8.443   3.062  0.0471 -0.2081 -0.2221
11796W        W31330   4.331  17.886   1.467  0.6257 -0.0122  0.1175
11797W        W31331  13.730   1.242   2.601  0.1343  0.1027 -0.1491
11798W        W31332   2.642  10.293  15.102  0.0722 -0.2753  0.0012
11799W        W31333  13.326   4.027  14.654  0.2001  0.2499  0.3380
11800W        W31334   1.960   5.197   1.786 -0.0048 -0.0604  0.1625
11801W        W31335   3.941   5.048   4.275 -0.0821 -0.2217 -0.1756
11802W        W31336   5.381  11.691   0.036 -0.0605 -0.1074  0.0330
11803W        W31337   4.309   7.884   1.118  0.0275  0.3116  0.0923
11804W        W31338  16.673  15.833   4.615  0.0260  0.0841 -0.0913
11805W        W31339   8.249   0.278   1.736 -0.1772 -0.0780 -0.0098
11806W        W31340  14.108  13.083   2.483 -0.1813  0.1398  0.0266
11807W        W31341  11.432   0.806   3.938 -0.0148 -0.0220  0.2916
11808W        W31342  16.319   9.319   2.638  0.1217 -0.0688  0.2678
11809W        W31343  17.174  14.426  12.126  0.1077 -0.0956 -0.0906
11810W        W31344  15.199   9.396  15.606  0.1000 -0.1554 -0.0942
11811W        W31345  10.369  14.477   0.395  0.1096  0.0977  0.0887
11812W        W31346  13.441  11.777  15.530 -0.2956 -0.0579 -0.0267
11813W        W31347  13.478   0.582   1.831  0.0919  0.1158 -0.2508
11814W        W31348   0.063   0.200   3.012  0.0646  0.1121  0.0537
11815W        W31349  11.560   2.434   2.154 -0.1202  0.1638  0.3586
11816W        W31350  12.645   8.179  15.305 -0.1238 -0.0812 -0.0977
11817W        W31351   3.568   1.468   2.487  0.3281 -0.0571  0.0628
11818W        W31352  15.482  14.255  15.614 -0.2482  0.0360 -0.3255
11819W        W31353   3.590  11.878   4.295  0.0358 -0.3351  0.0955
11820W        W31354   2.251   3.160   4.316 -0.0683  0.1714  0.0832
11821W        W31355   0.955   8.275   4.096 -0.1794 -0.1854 -0.1413
11822W        W31356  13.733   7.722   0.764 -0.2063 -0.0208 -0.2024
11823W        W31357  11.933  11.209  14.471  0.3305  0.1677  0.2642
11824W        W31358   1.201   5.906   2.944 -0.0301 -0.2462  0.1000
11825W        W31359   1.293   0.229   1.729 -0.1973 -0.0163 -0.0852
11826W        W31360  12.463  12.518   1.178 -0.0197  0.0428  0.4400
11827W        W31361   2.459  13.907  14.154  0.0764  0.0739  0.0063
11828W        W31362   2.914  12.808   4.288  0.1238 -0.0633 -0.0619
11829W        W31363   2.231  10.503   2.366 -0.0406 -0.3923  0.1185
11830W        W31364   3.267  10.378   1.000 -0.0345 -0.0589  0.1345
11831W        W31365   8.605   9.852  11.996 -0.1465 -0.0559  0.1267
11832W        W31366   9.309  17.476  11.216 -0.1392 -0.1015  0.1424
11833W        W31367  11.952   6.295   2.590 -0.1408  0.0913  0.1480
11834W        W31368   3.207   0.627  14.607  0.2438 -0.2908  0.1452
11835W        W31369   8.017  10.441  14.763 -0.1319 -0.0945  0.1800
11836W        W31370   0.803   4.994  11.460  0.2067 -0.0276 -0.0122
11837W        W31371   5.627  10.523   1.553 -0.0226 -0.1273  0.0723
11838W        W31372   3.272   4.176  11.615 -0.1807  0.1618  0.2535
11839W        W31373   5.057   4.543  13.486 -0.0899 -0.1923 -0.0850
11840W        W31374   4.079   3.992   4.302 -0.2705  0.0393  0.0629
11841W        W31375   2.561  12.484   0.477 -0.1022 -0.1978 -0.1025
11842W        W31376  13.643  15.833   2.725 -0.3376 -0.1065 -0.0283
11843W        W31377  10.478  16.657   1.696  0.2726 -0.1620  0.1726
11844W        W31378   5.226   6.793  14.047 -0.0231 -0.1377 -0.2730
11845W        W31379  16.348  10.776  12.068  0.1438  0.1026  0.2616
11846W        W31380   7.343   2.359   4.510 -0.0426  0.0857 -0.0107
11847W        W31381  15.266   1.361  13.463 -0.0671 -0.2060  0.0824
11848W        W31382  15.340   0.671  10.611  0.0428 -0.0141 -0.0259
11849W        W31383   5.076  16.869  14.901  0.1542 -0.0151  0.1685
11850W        W31384   5.458   4.977  11.518 -0.1066  0.2202  0.5543
11851W        W31385  11.235  14.933  11.885  0.1225  0.0191  0.1394
11852W        W31386  17.710   3.650   4.411  0.1731 -0.0421 -0.0837
11853W        W31387  17.557  15.399  14.121  0.0548  0.1350  0.1923
11854W        W31388   9.986   5.074   2.398  0.1169 -0.0491 -0.0004
11855W        W31389  15.006   9.722   1.492 -0.0654 -0.0846 -0.3047
11856W        W31390  12.845   1.557   0.992  0.1522 -0.0363 -0.1992
11857W        W31391  11.237  13.065   2.034  0.0186 -0.1520  0.1103
11858W        W31392   5.405   1.841  13.615 -0.0902 -0.3764 -0.3435
11859W        W31393  11.194   1.523   1.564 -0.2733  0.1467  0.1164
11860W        W31394  17.212   8.869   0.036  0.1117  0.2028 -0.1505
11861W        W31395   5.884   0.293  15.643 -0.0708 -0.0679  0.0439
11862W        W31396   0.748  15.455  15.050 -0.0901  0.2946 -0.4221
11863W        W31397   8.158  11.498  15.788  0.2149  0.1094  0.0901
11864W        W31398   0.418   6.827   3.384  0.4625 -0.1564 -0.0016
11865W        W31399  18.368  11.691   1.827  0.0134 -0.1547  0.2474
11866W        W31400  15.227   8.350   2.616  0.1022  0.0962  0.4158
11867W        W31401   5.168  10.276   2.988  0.1757 -0.2369 -0.2788
11868W        W31402  16.083  14.963  13.818 -0.3457 -0.2419 -0.0051
11869W        W31403   7.575  10.649  14.837 -0.0414  0.1411 -0.0014
11870W        W31404   6.201  10.169   3.322 -0.1678 -0.0437 -0.0227
11871W        W31405   7.846   3.014  11.019 -0.2368 -0.2645 -0.0847
11872W        W31406   9.661  13.115   0.453  0.2297  0.1500 -0.0293
11873W        W31407   5.793   5.318  12.458  0.0468  0.0805  0.1587
11874W        W31408  17.638   8.125  13.586 -0.0810  0.0654  0.0312
11875W        W31409   7.171  14.412  14.522 -0.1155  0.2204 -0.1802
11876W        W31410   1.900  11.537  12.674  0.1272 -0.1927 -0.1263
11877W        W31411  11.153  15.576   2.404 -0.2385  0.2204  0.2614
11878W        W31412  14.713   7.224  11.717  0.2602  0.1901  0.0348
11879W        W31413  17.967  16.274   0.303 -0.1099  0.3500 -0.1122
11880W        W31414   6.162  10.861   1.337 -0.2937  0.1895 -0.1295
11881W        W31415   7.104  14.177   0.650 -0.0447 -0.2691 -0.1539
11882W        W31416  15.934   7.286   2.715 -0.0869 -0.1067 -0.0804
11883W        W31417  13.868  14.161   4.972 -0.0062  0.0240 -0.2729
11884W        W31418  11.916  15.324   1.351  0.1422  0.0015  0.0416
11885W        W31419  11.012   5.307  13.710 -0.2939  0.1117 -0.1129
11886W        W31420  17.131   1.344   4.156  0.1386  0.2950  0.0387
11887W        W31421   3.757  13.803  11.721 -0.1199 -0.0318 -0.0030
11888W        W31422   1.710   7.604   2.598 -0.4414 -0.1509 -0.0808
11889W        W31423  15.785  13.981  11.976  0.0303  0.1337  0.2347
11890W        W31424   0.586  11.243  12.245 -0.4665  0.2609  0.3775
11891W        W31425   0.739   5.616  12.104 -0.1426  0.3950  0.1935
11892W        W31426   5.169   8.722  14.668  0.1324  0.2983 -0.0880
11893W        W31427   6.067  13.551   1.509  0.1241 -0.1708  0.0448
11894W        W31428  17.848  11.532  13.185  0.0367 -0.0098 -0.0078
11895W        W31429   8.576   1.695  15.477 -0.1299  0.1347  0.0917
11896W        W31430  11.744  17.277   4.654 -0.0677 -0.0069 -0.0842
11897W        W31431  15.428   2.093  12.986  0.0634  0.2125 -0.1460
11898W        W31432  14.259  15.685  12.387 -0.1280 -0.0666  0.2924
11899W        W31433  16.456  10.935  14.504 -0.0107 -0.2110  0.2743
11900W        W31434   8.863  17.604  12.542  0.2631 -0.1924  0.1801
11901W        W31435   4.480  16.331  11.129 -0.1150 -0.1726 -0.1224
11902W        W31436   9.574  18.310  15.719  0.4308 -0.1710 -0.3783
11903W        W31437   3.412   0.458   1.404 -0.0934  0.2226 -0.1658
11904W        W31438   9.252   7.774  14.201  0.2354  0.0920 -0.0163
11905W        W31439   8.838   8.588  15.284 -0.1454 -0.0834  0.1386
11906W        W31440  10.438   4.250  15.332 -0.1527 -0.0084 -0.2306
11907W        W31441  15.271   8.830   2.785 -0.1619  0.0181  0.2625
11908W        W31442  18.131   5.936  15.148  0.0982  0.0630 -0.4261
11909W        W31443   6.850   2.092  11.505  0.1627  0.1974  0.2748
11910W        W31444   0.511  11.025   4.082  0.2300 -0.0294  0.1358
11911W        W31445  14.721   5.943   4.511  0.0186  0.0259  0.0954
11912W        W31446   0.078   0.799  15.222  0.2260 -0.0956  0.2150
11913W        W31447  17.486   3.168  14.641  0.1769 -0.0603 -0.2486
11914W        W31448   8.568  16.574  13.093 -0.4744 -0.0955  0.1451
11915W        W31449   1.074   1.812  11.299 -0.0124 -0.0296  0.2623
11916W        W31450   5.490   4.028  15.337 -0.1047  0.0625 -0.2629
11917W        W31451  14.841   4.902   0.424  0.1371  0.0969 -0.3918
11918W        W31452   2.723   6.300   4.901  0.1507 -0.0509 -0.0945
11919W        W31453  17.036   3.670  15.428  0.1434  0.0034  0.0827
11920W        W31454  17.531   6.092  12.775 -0.0432 -0.0692  0.0303
11921W        W31455   5.190  17.390   0.607 -0.1787  0.0343  0.0187
11922W        W31456   9.153  15.342  14.430  0.0767 -0.2155 -0.2231
11923W        W31457   9.986  16.765  14.981  0.0992  0.0161  0.3465
11924W        W31458   0.063  10.236   2.111 -0.0785  0.1873 -0.0363
11925W        W31459  11.881  14.430  11.854  0.2164 -0.5151 -0.3095
11926W        W31460   3.080   7.148   1.264 -0.1225 -0.4816 -0.0172
11927W        W31461  15.166   9.098   3.607 -0.1501 -0.1430  0.0583
11928W        W31462   6.366  12.413  11.528  0.0450  0.3180 -0.3079
11929W        W31463  13.652  18.067  14.031 -0.5620  0.4526 -0.3550
11930W        W31464   9.283  10.234  13.699  0.0962  0.0439  0.0430
11931W        W31465   6.438  14.548  12.933 -0.1317  0.0008 -0.3784
11932W        W31466  12.219  13.437   0.424 -0.1552 -0.2774  0.0289
11933W        W31467  12.322  16.150   0.976  0.0293  0.2415  0.0569
11934W        W31468   8.492  12.093   2.555 -0.0363  0.0744  0.0004
11935W        W31469  11.204   0.516   6.184  0.4199 -0.2356  0.1638
11936W        W31470  14.167   4.721   2.479  0.2127  0.2564  0.0768
11937W        W31471  17.908  15.732   0.412  0.0899  0.0819 -0.0752
11938W        W31472   4.822  12.894   3.735 -0.1199 -0.1728 -0.2248
11939W        W31473   7.018   9.502   3.581  0.5141  0.2639  0.0375
11940W        W31474   1.431   1.299   3.532  0.2836  0.2308 -0.1656
11941W        W31475   1.603   6.028   0.213 -0.3807 -0.0044  0.0865
11942W        W31476   4.909   4.185   1.017 -0.3727 -0.0719 -0.1976
11943W        W31477   5.955   2.392  11.503 -0.2366 -0.0322 -0.1308
11944W        W31478  13.957  16.058   0.240  0.1302  0.0816 -0.1467
11945W        W31479   9.377   2.467   0.352 -0.1416  0.1150  0.1540
11946W        W31480   6.150   7.867  11.087  0.0829  0.0691  0.1009
11947W        W31481  18.239  16.321   3.500 -0.2190  0.0654  0.0240
11948W        W31482   5.271   7.118   4.211 -0.2143 -0.0491  0.0759
11949W        W31483  15.576  10.784   4.839 -0.0608 -0.2048 -0.0498
11950W        W31484   4.553  13.615   4.355 -0.0411  0.0508 -0.1191
11951W        W31485   3.839  12.006  11.398  0.1456  0.1091 -0.0482
11952W        W31486   4.371   2.059   4.903  0.0700  0.0250 -0.2281
11953W        W31487  10.985   9.257  12.405 -0.1192  0.1692  0.1570
11954W        W31488   2.600   0.292   3.889 -0.1992 -0.0267  0.1106
11955W        W31489  11.341  17.199   0.865 -0.1431 -0.1098  0.0707
11956W        W31490   2.773  12.142  13.148  0.1797  0.1065 -0.1352
11957W        W31491   6.002   5.889  11.600 -0.1917  0.1462 -0.2256
11958W        W31492  14.852  11.855   0.609  0.0729  0.1400  0.0807
11959W        W31493  10.162   1.084   0.444  0.1969 -0.0027 -0.1230
11960W        W31494  11.156  12.412   4.164  0.3521  0.0788 -0.0823
11961W        W31495  15.882  18.178  11.782 -0.0208 -0.0106  0.0557
11962W        W31496  12.671   8.267   4.279  0.2227  0.0691  0.0480
11963W        W31497   8.785  17.194  14.399 -0.2124  0.0751 -0.0449
11964W        W31498   1.581   3.015   0.819  0.1425  0.3110  0.1173
11965W        W31499   9.258   2.492  15.670  0.2164  0.1178 -0.0089
11966W        W31500   9.902  10.705   2.117 -0.0197  0.1793  0.2860
11967W        W31501   4.297  10.651  13.819 -0.1352  0.2573 -0.0633
11968W        W31502  14.592  13.991   1.578 -0.2565  0.0274  0.2216
11969W        W31503   8.033  17.250  11.307 -0.1762  0.1504 -0.1253
11970W        W31504   3.998  17.131   4.418  0.0295 -0.0280 -0.3143
11971W        W31505  14.247   7.654  13.462 -0.0124  0.1402 -0.1779
11972W        W31506   6.361  12.821  12.436  0.0584  0.0804 -0.2924
11973W        W31507   2.143   5.408  13.092  0.0117  0.1919 -0.1937
11974W        W31508  17.868   7.662   4.411 -0.0091 -0.3459  0.1961
11975W        W31509  10.278   7.820  14.090 -0.2650  0.0836  0.4044
11976W        W31510   9.995  15.162   4.385  0.0295 -0.1167 -0.0505
11977W        W31511  11.032  13.872   3.729  0.1280 -0.0270 -0.3389
11978W        W31512  17.229   1.992  12.406  0.0276  0.3138  0.0919
11979W        W31513  16.163  11.433  15.314  0.0664 -0.0860 -0.2800
11980W        W31514  13.783  17.907   0.800 -0.0435  0.0231  0.2598
11981W        W31515   9.768  15.222  15.496 -0.0927 -0.1419 -0.1092
11982W        W31516   7.346   9.820   3.381  0.1900  0.0272 -0.3185
11983W        W31517  11.316  15.263   4.329  0.1214 -0.0759  0.0336
11984W        W31518  15.935   8.201  13.035 -0.4635  0.0727  0.1527
11985W        W31519   8.481   2.759  12.394 -0.0680  0.0294  0.2595
11986W        W31520   5.879  16.288   0.124  0.0523 -0.0568  0.1114
11987W        W31521  14.862  11.381   1.606  0.1439  0.0408 -0.0301
11988W        W31522   4.599   1.582   3.343  0.1439 -0.1427  0.1891
11989W        W31523   8.653   9.525   3.656 -0.0831  0.0215  0.0647
11990W        W31524   3.682   3.825  13.100  0.0199 -0.3211  0.1616
11991W        W31525  15.872   2.879  11.966  0.1840 -0.1139  0.0635
11992W        W31526  17.090  12.740  14.022  0.4202  0.0563 -0.1313
11993W        W31527   3.691  15.706   0.362 -0.1006 -0.0530 -0.0818
11994W        W31528  17.646   5.682   1.814  0.1588 -0.0385 -0.0588
11995W        W31529   6.714   6.835   2.265  0.2996 -0.1258 -0.1048
11996W        W31530  17.139   3.520   1.130  0.1024 -0.0278 -0.3857
11997W        W31531  12.304   5.442   3.437 -0.0863 -0.1607 -0.0948
11998W        W31532   1.813   0.790  12.253 -0.3531  0.1824  0.3119
11999W        W31533  16.354  17.122  12.951  0.1235  0.2389  0.0420
12000W        W31534  10.769  17.074   1.548  0.0412 -0.1711 -0.0241
12001W        W31535   4.407   5.864   1.239  0.2228  0.0757  0.0506
12002W        W31536   9.233   1.405   2.029 -0.0830 -0.2370 -0.0105
12003W        W31537   9.909  12.087   3.117 -0.1180 -0.0149  0.0240
12004W        W31538  14.896   0.930   2.639 -0.4024  0.0766  0.1880
12005W        W31539   4.981   2.954   3.628 -0.0550 -0.3744  0.0435
12006W        W31540  15.853  17.784   4.122 -0.1576  0.0534  0.0463
12007W        W31541   7.079  17.170   1.521  0.0520 -0.5047 -0.0002
12008W        W31542   1.955   9.532  11.271 -0.0561  0.2573  0.1633
12009W        W31543  11.959   7.243  11.445 -0.0122  0.0774 -0.1510
12010W        W31544   1.494  16.048   0.120 -0.0182 -0.0404  0.0945
12011W        W31545   2.049   1.595  14.407  0.0003  0.0227 -0.0128
12012W        W31546   7.675  11.567  12.387 -0.1175 -0.0917  0.0790
12013W        W31547  12.721   1.030   3.020  0.3491 -0.0827  0.1187
12014W        W31548  14.548   3.166   3.561  0.2014 -0.2875 -0.3155
12015W        W31549  12.921   9.282  15.288  0.1671  0.1008 -0.1482
12016W        W31550   3.074  10.421  11.050  0.2792  0.0790  0.2267
12017W        W31551   1.360   8.703   0.230 -0.1407  0.1241 -0.3594
12018W        W31552   3.125  14.841  13.535 -0.1336 -0.3854 -0.1686
12019W        W31553   9.311  13.888  12.268  0.0993 -0.2522 -0.1106
12020W        W31554  13.291   9.034   4.319  0.0798  0.3083 -0.0041
12021W        W31555  14.267  16.193   0.656  0.2702 -0.3492  0.3144
12022W        W31556   9.147   0.800   5.215 -0.2931 -0.0131  0.2567
12023W        W31557  11.765   1.100  15.445  0.0974  0.0065  0.2068
12024W        W31558  11.681   6.031  15.152 -0.0515 -0.1659  0.1461
12025W        W31559   8.452   5.239  13.705 -0.0849 -0.4246 -0.2343
12026W        W31560   2.115   5.285   4.073 -0.1999 -0.1829 -0.2858
12027W        W31561  10.653   6.407   2.755  0.0935  0.0882 -0.1764
12028W        W31562   8.246  15.739  13.496 -0.2092  0.0480 -0.2570
12029W        W31563   7.109  11.017   4.725  0.0464 -0.1137 -0.1698
12030W        W31564   4.437   5.688  13.386 -0.0910 -0.1457  0.0732
12031W        W31565  18.357   5.867  12.546 -0.2759  0.0428 -0.2169
12032W        W31566   7.087   1.122  15.245 -0.0136 -0.0753 -0.0332
12033W        W31567  11.158   7.760   1.630 -0.3660  0.0603  0.3374
12034W        W31568   6.555   1.033  15.311 -0.1914  0.1132  0.2321
12035W        W31569  12.496   4.997  14.271  0.2396 -0.1417  0.0410
12036W        W31570   4.159  15.827  13.945  0.3775  0.1110 -0.2752
12037W        W31571   6.257   3.462  11.749  0.1127  0.1169 -0.2621
12038W        W31572  12.417   0.424  14.066 -0.2521 -0.0130  0.0917
12039W        W31573   2.003  17.032  13.866 -0.1483 -0.2350  0.2139
12040W        W31574   7.913   6.836   0.370 -0.2094  0.0809  0.1403
12041W        W31575   9.691   6.031  14.671 -0.0570 -0.0492 -0.0436
12042W        W31576  16.089  12.717   2.251  0.3705  0.1250 -0.1383
12043W        W31577   7.318  12.784  12.858 -0.1590 -0.1196 -0.0547
12044W        W31578  15.163  16.826  12.042  0.0646  0.0684  0.1203
12045W        W31579  16.037   8.618   3.289  0.0118 -0.0979 -0.1824
12046W        W31580   8.813   2.425   3.009 -0.1004 -0.2487  0.3018
12047W        W31581  14.971   8.369   1.002 -0.2476 -0.3211 -0.0591
12048W        W31582  12.475  15.436   2.368  0.0461  0.1026 -0.2087
12049W        W31583   7.910  15.511   6.070 -0.2519  0.0756 -0.1451
12050W        W31584  16.053  12.969  12.557  0.2951 -0.0411  0.1200
12051W        W31585   3.508  16.235   5.080  0.0583  0.0205 -0.3174
12052W        W31586  15.999   2.984   2.579 -0.2169 -0.2118 -0.2655
12053W        W31587   7.398   4.336   0.895 -0.0050 -0.1807 -0.4725
12054W        W31588  10.747  16.024  14.300 -0.2079  0.1798 -0.1617
12055W        W31589  10.951   5.108  12.342  0.1254  0.2633 -0.1925
12056W        W31590   6.118  16.552   5.113  0.0608  0.2582 -0.0357
12057W        W31591   5.583   5.680  12.805  0.0483  0.0348  0.0082
12058W        W31592  18.055  10.793  11.901 -0.0501  0.1563 -0.1939
12059W        W31593  15.085   3.205   2.430 -0.1628 -0.0500 -0.0689
12060W        W31594  17.072   8.720  13.028 -0.0541  0.0546  0.0684
12061W        W31595  11.529   3.365  15.089 -0.1935 -0.0784  0.1544
12062W        W31596   7.788   8.198   3.026 -0.3046  0.1254 -0.4086
12063W        W31597   0.479   9.348  14.386 -0.1035 -0.0096 -0.2869
12064W        W31598   2.524  15.979   2.226 -0.2435  0.0076  0.2106
12065W        W31599   3.100  12.655  12.493  0.2742 -0.2499 -0.0278
12066W        W31600   3.742  15.540   2.180 -0.0168  0.3273  0.0043
12067W        W31601   6.758  12.057  14.599  0.1460  0.3106 -0.0288
12068W        W31602  13.839   0.570  15.190  0.2793 -0.0984  0.2818
12069W        W31603  12.753  15.384   3.706  0.0890 -0.3540 -0.2162
12070W        W31604  11.480  16.504  10.916  0.3039 -0.1961 -0.0437
12071W        W31605   0.028  18.016   1.626  0.2483  0.0181 -0.0543
12072W        W31606  11.280  17.782  12.393 -0.2670  0.0754 -0.2612
12073W        W31607  15.056  14.774  12.052 -0.2119 -0.0208 -0.0897
12074W        W31608   9.091  15.594  13.361  0.1096 -0.0770  0.1337
12075W        W31609   2.615  17.222  11.566  0.1991 -0.1698 -0.2432
12076W        W31610  10.178  13.857   4.340  0.0081  0.2612 -0.0938
12077W        W31611   3.948   1.247  14.368  0.1129  0.0846  0.0010
12078W        W31612   8.503  10.606  13.741  0.1987 -0.1012 -0.1477
12079W        W31613   4.825   2.138  14.041 -0.1920 -0.2504 -0.0994
12080W        W31614  16.210  16.907  13.676  0.2770 -0.1387  0.2393
12081W        W31615  14.797  16.269   3.514  0.1066  0.1394 -0.3164
12082W        W31616   8.719  17.177  12.315  0.0699  0.1204  0.0546
12083W        W31617  18.150  14.809   4.324  0.1262  0.2528 -0.1889
12084W        W31618   5.305   5.442  13.194 -0.2705 -0.1092  0.0459
12085W        W31619   3.664   1.117  13.922  0.0248 -0.0745 -0.0039
12086W        W31620  12.773   3.454  11.065  0.0238 -0.1465  0.3802
12087W        W31621   9.384   2.006   3.655  0.1229  0.2198  0.0206
12088W        W31622   5.106   9.341   3.218  0.0148 -0.1759  0.0414
12089W        W31623   9.396   6.506   4.903 -0.3955  0.2569 -0.0765
12090W        W31624  14.881   2.486   3.187  0.3341 -0.0360 -0.1134
12091W        W31625  16.517   4.988   0.585 -0.2041  0.2184  0.0153
12092W        W31626  14.263  15.060  12.892 -0.2603 -0.1657 -0.1777
12093W        W31627   2.512   3.074  12.543  0.3118 -0.1386  0.0308
12094W        W31628  13.428  10.400   3.886 -0.2886 -0.0867  0.1242
12095W        W31629   8.587  12.965  13.091  0.2812  0.1434 -0.0465
12096W        W31630   6.344  13.057  12.936  0.1366  0.1895 -0.0197
12097W        W31631   2.629  10.333   4.222  0.0988 -0.0484 -0.0703
12098W        W31632   3.104   7.149  15.323  0.0685 -0.0129 -0.2076
12099W        W31633   4.527  15.957   5.015 -0.0118  0.0596 -0.2007
12100W        W31634  14.094  14.263   3.449  0.5007  0.0855 -0.1273
12101W        W31635   9.663   3.931  14.198 -0.1123  0.2073 -0.0944
12102W        W31636  14.417   5.688  12.464  0.2535  0.0739 -0.2700
12103W        W31637   0.929  13.269   1.936 -0.2804 -0.3007  0.1985
12104W        W31638  12.397   5.284  12.389 -0.1916 -0.0123 -0.0274
12105W        W31639   5.991  11.170   2.432  0.2767 -0.1052 -0.0013
12106W        W31640   2.663  12.375   4.526  0.0277 -0.0729  0.2285
12107W        W31641  18.094   2.823   4.140 -0.0168  0.1742 -0.2468
12108W        W31642  13.341  12.918   1.998  0.3705 -0.1159  0.0405
12109W        W31643  15.720  17.203  13.299  0.1650 -0.0639 -0.0466
12110W        W31644   2.446  11.325   2.148  0.4512 -0.0457 -0.0606
12111W        W31645   3.558  11.008  12.038 -0.1674  0.0689 -0.1058
12112W        W31646   5.938  14.252   4.502  0.2124  0.1448  0.2249
12113W        W31647   6.269  13.117   2.389 -0.3313  0.1830 -0.1967
12114W        W31648  11.143  14.111  13.092 -0.0983 -0.0083  0.1368
12115W        W31649   5.047  17.674   0.160  0.0279  0.2738  0.2464
12116W        W31650   4.790   4.643   1.889  0.2217 -0.0945 -0.1260
12117W        W31651  11.423  10.229  12.103 -0.2774 -0.0416  0.0789
12118W        W31652  13.442  16.803   1.646 -0.2159  0.0880  0.0248
12119W        W31653   7.343   6.549  10.862  0.4829 -0.3341  0.2344
12120W        W31654   0.763  11.634  14.906 -0.3179  0.2523 -0.0074
12121W        W31655  13.532   5.150  12.340  0.0056 -0.4510  0.2433
12122W        W31656   4.452  10.971  12.120 -0.0302 -0.2265  0.0604
12123W        W31657   6.874   4.797  10.429 -0.0535  0.0485 -0.0569
12124W        W31658  13.283   4.717  11.621  0.2377 -0.0743 -0.0468
12125W        W31659  11.105   9.439  14.712 -0.0705 -0.0735  0.0577
12126W        W31660   0.060   8.456  11.926 -0.0317 -0.1017 -0.1814
12127W        W31661   2.107  13.516   3.289  0.0064  0.1258  0.1028
12128W        W31662  17.903   8.152  11.311 -0.1307 -0.1608 -0.0587
12129W        W31663   1.591   9.032  12.282  0.1711 -0.2522 -0.1342
12130W        W31664   6.154  15.407   1.730 -0.0001 -0.1120  0.1471
12131W        W31665   1.787   7.777  11.728 -0.4972  0.0087 -0.0665
12132W        W31666   7.757   2.753  13.591  0.2210  0.4347 -0.0606
12133W        W31667   1.540  17.420   2.737 -0.0290 -0.1254 -0.0990
12134W        W31668   2.077   2.501   0.240 -0.1005  0.0626 -0.0834
12135W        W31669  15.465   6.610  14.577 -0.1653  0.0127 -0.2146
12136W        W31670   4.913   5.574  13.603 -0.0721  0.3069 -0.0893
12137W        W31671  17.749   6.696   2.042  0.0684 -0.0020  0.2134
12138W        W31672  11.030  16.666   3.404 -0.0305  0.0401  0.0241
12139W        W31673  16.974  14.107  15.516 -0.1699 -0.0988 -0.0821
12140W        W31674   6.010  14.384  15.804  0.0144  0.2797 -0.0710
12141W        W31675   8.940   1.834   3.751  0.1717  0.1104 -0.1259
12142W        W31676  16.083  14.411   3.103  0.2301  0.0135 -0.1091
12143W        W31677   4.502  12.846  13.300 -0.1858  0.0519  0.1134
12144W        W31678   7.341   2.098  11.776  0.0247  0.4877  0.1192
12145W        W31679  16.668   7.125  12.308 -0.0472  0.1229  0.1889
12146W        W31680  11.739   0.224   4.669  0.2145 -0.1774 -0.0470
12147W        W31681  16.566   7.990   3.857  0.0829 -0.2543 -0.1144
12148W        W31682   4.609  16.295  12.063 -0.0646 -0.5266 -0.2616
12149W        W31683   2.886   7.633  12.717 -0.1539  0.3530 -0.2463
12150W        W31684   2.341  14.817   1.640 -0.0836 -0.1128 -0.0210
12151W        W31685   5.943   9.526   2.012  0.0620 -0.1965 -0.2573
12152W        W31686  16.335   5.166  14.782  0.0956  0.1246 -0.0965
12153W        W31687   9.081   6.055   1.549 -0.2228  0.0137 -0.0716
12154W        W31688  11.133  11.920   0.730  0.2159 -0.2654  0.2625
12155W        W31689  15.476   7.945  12.495  0.1777  0.1144 -0.1266
12156W        W31690   8.315  12.120  15.163  0.1649 -0.1084  0.1338
12157W        W31691  16.568   1.850   2.208  0.1019 -0.0779  0.0486
12158W        W31692  13.232  11.606  13.548  0.1177 -0.2120  0.0788
12159W        W31693  18.375   3.384   2.676 -0.0255 -0.0159 -0.0998
12160W        W31694   2.842   5.590   5.286  0.4753 -0.2832  0.0169
12161W        W31695   9.562   5.288  15.128 -0.0681 -0.0199 -0.2333
12162W        W31696  13.236   0.783  11.996  0.3243  0.3601  0.0596
12163W        W31697  16.491   5.559   2.725  0.0785 -0.3374  0.1220
12164W        W31698   1.126  12.607  15.703  0.0916 -0.0716 -0.0956
12165W        W31699   9.683   6.752  13.476 -0.0071 -0.1095  0.0059
12166W        W31700  11.992   9.613  12.775 -0.1932  0.0320 -0.1351
12167W        W31701  10.853   6.541  11.082  0.2540 -0.1421  0.0285
12168W        W31702   0.492  12.426   1.122 -0.0075 -0.0640 -0.2616
12169W        W31703   6.101  12.706   2.090  0.0540 -0.4969 -0.1475
12170W        W31704  14.309  13.706   0.589  0.3981 -0.1433 -0.0776
12171W        W31705   7.217   7.777  12.167  0.0604 -0.0877  0.0805
12172W        W31706   6.027  16.914   4.753  0.3455  0.2046  0.1906
12173W        W31707   1.038   0.827   2.286 -0.2381  0.1904 -0.1518
12174W        W31708   0.217   8.577  11.463  0.3005 -0.2488 -0.0387
12175W        W31709  10.247  16.699   0.202  0.0224 -0.4505 -0.2809
12176W        W31710   7.445   5.736   3.523  0.2357  0.0762 -0.0197
12177W        W31711  15.339   4.596   2.114 -0.1045 -0.0892  0.1079
12178W        W31712  15.841  14.732   4.468 -0.1912  0.0842  0.1058
12179W        W31713   8.233   5.690  12.227  0.1016  0.0165 -0.3922
12180W        W31714   6.622  12.904  14.386 -0.0502  0.1342  0.0831
12181W        W31715  10.100  10.567  13.776 -0.1080  0.1458  0.0245
12182W        W31716  16.056  10.247  12.218  0.1662  0.5752  0.2037
12183W        W31717  15.857  15.611   1.979 -0.0525  0.0780  0.2082
12184W        W31718   8.378  16.773   1.127  0.0186  0.0228  0.0488
12185W        W31719  14.416  10.064   3.138  0.0425 -0.0295 -0.3089
12186W        W31720  18.066  11.269  13.497 -0.1889 -0.0732  0.2858
12187W        W31721  11.605   9.713   2.094  0.1207  0.1460  0.0141
12188W        W31722   5.591  10.168   1.103 -0.0361 -0.3828  0.4013
12189W        W31723   1.243   8.730  12.603  0.0710  0.0761  0.2123
12190W        W31724  11.012  11.244   1.376 -0.0756  0.4332  0.1056
12191W        W31725   6.166   0.706  14.877  0.0739  0.1066 -0.0121
12192W        W31726  13.287  17.657  12.453  0.1775  0.0680 -0.0191
12193W        W31727   6.119  15.007  11.631  0.5940 -0.0444 -0.0249
12194W        W31728  14.700   8.550  11.869 -0.1037 -0.0791  0.0567
12195W        W31729   3.074  10.132   0.599  0.1092 -0.0761  0.0124
12196W        W31730   8.518  13.796   1.216 -0.2760  0.1820  0.3051
12197W        W31731   6.220  14.636  14.602 -0.2444  0.0562  0.3841
12198W        W31732   8.144  10.313   3.740  0.2508 -0.0707 -0.0303
12199W        W31733   1.776   5.369  12.618 -0.4073  0.0506  0.2467
12200W        W31734   8.265  12.344  12.417 -0.1401  0.3419 -0.4214
12201W        W31735   1.162   4.243  15.286 -0.3573  0.1434  0.1830
12202W        W31736  17.194   8.827  11.128  0.0796  0.2630 -0.0567
12203W        W31737   0.638   9.837   3.468 -0.3097 -0.1522  0.0352
12204W        W31738   3.640   3.627  14.682 -0.0785  0.2693 -0.3758
12205W        W31739   8.834  11.694   0.437 -0.1885  0.0175 -0.0271
12206W        W31740   5.033  12.921   1.880 -0.2947 -0.0360 -0.1088
12207W        W31741  16.884   9.670  11.210 -0.1741 -0.2465 -0.1252
12208W        W31742   3.778  16.927  12.307 -0.1902  0.0326  0.0084
12209W        W31743  10.711  16.955   0.166  0.2001  0.2433 -0.3801
12210W        W31744   4.947   9.268   1.403  0.1005 -0.3477  0.1334
12211W        W31745   6.773   0.224  13.364 -0.2044  0.0169  0.4839
12212W        W31746   1.424   0.506  11.997  0.1100 -0.1319  0.0067
12213W        W31747   8.660   8.809  15.715 -0.2587 -0.4562  0.2291
12214W        W31748   3.423   7.742  15.836  0.1240  0.2099  0.1670
12215W        W31749   8.914   9.344   4.348  0.1965  0.0093  0.0851
12216W        W31750   3.860  17.424  14.691 -0.1569 -0.1730 -0.1336
12217W        W31751  11.794   1.962   2.240  0.1994  0.1655  0.1124
12218W        W31752   2.270   1.749  11.621 -0.1800 -0.1460  0.0633
12219W        W31753   7.206   6.322  10.261 -0.0748 -0.1067  0.1476
12220W        W31754  15.321  11.616  13.571  0.0770  0.1079  0.0641
12221W        W31755  14.963   2.207  13.153 -0.2299  0.0296 -0.1522
12222W        W31756   2.978   1.040  15.399 -0.0016 -0.1784 -0.0460
12223W        W31757   0.733   2.823   2.891  0.1849  0.0274 -0.3755
12224W        W31758  13.835   4.305  12.789  0.0285  0.1082 -0.2242
12225W        W31759  10.149  17.851  15.199 -0.2269  0.2278 -0.0388
12226W        W31760  16.617  15.621   3.048 -0.2132  0.3425  0.0777
12227W        W31761   3.470  17.273   2.545 -0.2017  0.1317  0.2481
12228W        W31762   7.071  14.675  14.100 -0.2286  0.0159 -0.0483
12229W        W31763   1.095  17.565   4.266 -0.0521 -0.1370  0.3284
12230W        W31764   3.271  11.689   1.881 -0.0146  0.4187  0.2352
12231W        W31765   2.556   6.667   2.836  0.1307  0.2812 -0.0138
12232W        W31766   9.573  15.611  14.242  0.0075 -0.0794 -0.1502
12233W        W31767  15.113   5.313  11.906 -0.1613  0.0212  0.1400
12234W        W31768  17.716  15.139   4.577  0.0130  0.0696  0.3473
12235W        W31769  11.011   2.538   2.654  0.0933 -0.0948 -0.0888
12236W        W31770   1.767   7.577   3.068 -0.0435  0.0478  0.0476
12237W        W31771   3.535  13.996  14.896  0.2372 -0.0119  0.3756
12238W        W31772  15.556  13.269   0.578  0.0975  0.0355  0.0550
12239W        W31773   2.176   1.137   4.085  0.0345 -0.1955 -0.0270
12240W        W31774   2.213  16.692  12.971  0.2333  0.0862  0.2107
12241W        W31775  15.873  11.176   2.480 -0.2872 -0.1119 -0.2775
12242W        W31776   3.177   3.458  14.792  0.0985  0.1613  0.1123
12243W        W31777   3.029  16.051  13.737 -0.2196  0.1058 -0.1168
12244W        W31778  14.946   0.279   2.668  0.1728 -0.0831 -0.1034
12245W        W31779   3.835  13.620   2.050  0.0932 -0.0684 -0.2713
12246W        W31780   7.401   9.219   0.516 -0.3646  0.1971 -0.0243
12247W        W31781  17.374   9.489  12.674 -0.0698  0.0493  0.2432
12248W        W31782  15.276   4.066   2.833 -0.0041  0.0267 -0.2308
12249W        W31783   9.123  15.816  12.133 -0.0767  0.0900 -0.1365
12250W        W31784  10.040  11.684   2.071 -0.1020  0.1205  0.1645
12251W        W31785   8.122  14.989  13.398  0.1469  0.0782 -0.0648
12252W        W31786  13.182  17.749   4.705  0.1907 -0.0488 -0.2194
12253W        W31787  11.602   9.640  14.724  0.0846 -0.1359  0.0433
12254W        W31788   9.738   8.771   4.478  0.0860 -0.1369 -0.2030
12255W        W31789   2.053  12.621  14.519  0.2690 -0.1135 -0.0415
12256W        W31790  16.924   4.728   2.257  0.0992 -0.2582  0.2248
12257W        W31791   1.471  17.265   3.372 -0.1453 -0.4741 -0.0667
12258W        W31792   6.118   2.384  11.027  0.0991 -0.2002  0.1044
12259W        W31793   9.079   1.292  13.369  0.2917 -0.1523 -0.0636
12260W        W31794   7.218   1.308  14.773  0.1739 -0.3398  0.1344
12261W        W31795  12.621  17.662   0.038 -0.2213 -0.0116 -0.1596
12262W        W31796  13.705  15.318   3.858  0.0133 -0.1134  0.2220
12263W        W31797   6.828  13.835   4.849 -0.2687 -0.1153  0.0407
12264W        W31798   3.481   1.141  15.268  0.0709  0.0870  0.1898
12265W        W31799  16.449   6.541  11.562  0.1805 -0.0026  0.1696
12266W        W31800   1.331  13.292  14.750  0.2714 -0.1208 -0.0698
12267W        W31801   8.712  12.226  12.577  0.1322  0.0836 -0.2240
12268W        W31802   5.564   3.605   2.432  0.3302 -0.0715  0.2895
12269W        W31803   9.644   9.005   0.614 -0.1297 -0.0506  0.0115
12270W        W31804   7.438   9.769  13.533 -0.2307 -0.0416 -0.0125
12271W        W31805  14.859   4.767   2.142  0.0290  0.0327 -0.0754
12272W        W31806   4.743   7.694   3.507  0.0829 -0.1229  0.1626
12273W        W31807   8.817   8.494   4.255  0.0672  0.0287  0.2712
12274W        W31808  18.108   0.666  13.177  0.0589 -0.1397 -0.1296
12275W        W31809   9.384  11.372   2.646 -0.1142  0.0880 -0.0347
12276W        W31810   3.571  15.784   3.825  0.1125  0.2335 -0.0251
12277W        W31811   3.652   6.519   0.259 -0.0887 -0.0179  0.2042
12278W        W31812  18.228  16.876  13.811 -0.0649  0.0238  0.2091
12279W        W31813   6.499   6.758  11.660 -0.0709  0.0553  0.3415
12280W        W31814   6.523  11.227  12.917 -0.3478  0.0694 -0.2972
12281W        W31815   1.914   0.445  14.682  0.0793  0.1580 -0.1564
12282W        W31816  16.529   0.433   0.777  0.0176 -0.0691 -0.0560
12283W        W31817  10.216  10.978  11.185  0.3171 -0.0388 -0.0518
12284W        W31818   4.343   4.192  11.619  0.2513  0.0279 -0.2915
12285W        W31819  11.277   3.895   0.935 -0.1254  0.0197  0.0675
12286W        W31820   8.160  17.049  12.330 -0.2056  0.0340 -0.5997
12287W        W31821  13.428   6.000  11.237 -0.0713  0.0436 -0.0632
12288W        W31822  14.045  14.596  12.365  0.2050 -0.0783  0.0583
12289W        W31823  15.781  10.383  14.397 -0.4116 -0.1278  0.2766
12290W        W31824  16.179  17.459   4.443 -0.1142 -0.0708  0.0241
12291W        W31825   2.242   8.982   4.429  0.2817  0.1653 -0.0400
12292W        W31826   0.313  15.808  11.520  0.3136  0.1169  0.2181
12293W        W31827  16.394  17.882   1.662  0.1018  0.0928  0.0343
12294W        W31828   7.219   3.473  13.618 -0.0925  0.3890  0.0355
12295W        W31829   2.248   7.676  11.841 -0.1198  0.0013 -0.1659
12296W        W31830   6.471  15.502  14.307 -0.1502  0.3264 -0.0258
12297W        W31831   2.383   3.558   5.403  0.1238 -0.1832 -0.0693
12298W        W31832  12.746   3.949  11.943  0.3151 -0.1120  0.2293
12299W        W31833   5.153  11.812  11.887  0.2841 -0.0581 -0.0082
12300W        W31834   2.305  10.498  13.216 -0.1738  0.1674  0.0530
12301W        W31835  12.818  11.911  12.909  0.2746  0.1386 -0.2189
12302W        W31836  14.695  16.218   5.109 -0.2760  0.1340 -0.0468
12303W        W31837  10.465   1.017   4.516 -0.3594  0.0913  0.0062
12304W        W31838  10.622   3.033  13.755 -0.2396 -0.1063 -0.1909
12305W        W31839  11.430   1.501  14.457 -0.1197 -0.0477 -0.1178
12306W        W31840   7.348  15.059  13.975  0.2096  0.2333 -0.1221
12307W        W31841   4.612   7.834   0.742  0.0337  0.1491  0.0311
12308W        W31842   6.255  10.795  12.354  0.1630 -0.0213  0.1841
12309W        W31843  17.397   0.362   0.766  0.1158  0.1793 -0.1289
12310W        W31844  13.387   9.426  14.389 -0.0627  0.2098 -0.1756
12311W        W31845   3.315   3.849   0.740  0.0171 -0.0865 -0.2945
12312W        W31846  15.169   6.277  11.995 -0.2802  0.1536  0.0485
12313W        W31847   3.173   3.888   1.223 -0.0426 -0.1004 -0.3173
12314W        W31848   4.865   3.654   4.759  0.0465 -0.1297 -0.2825
12315W        W31849   3.322  16.111  14.190 -0.3505  0.3260  0.2234
12316W        W31850  12.306   3.778  13.327 -0.2034 -0.0752  0.0911
12317W        W31851  13.487  15.244   2.550 -0.0468 -0.3624  0.0063
12318W        W31852   1.308  16.246   1.877  0.1987 -0.0591  0.0643
12319W        W31853   6.532  14.351  13.457  0.0363 -0.0551 -0.0560
12320W        W31854   1.458  12.581   2.187 -0.0746 -0.0869 -0.0240
12321W        W31855   5.352   3.521   0.781  0.3210  0.4012 -0.1380
12322W        W31856   8.197  17.503   2.974  0.1303  0.1151  0.0548
12323W        W31857  13.954  10.597   2.264  0.1742  0.2777 -0.0122
12324W        W31858   1.299  17.577  11.899 -0.3163 -0.1907 -0.1332
12325W        W31859   1.878  15.859  13.131  0.1905 -0.2438  0.1511
12326W        W31860  11.348   6.589   0.826  0.1042  0.2664 -0.0519
12327W        W31861  14.474   2.040  13.958 -0.0907 -0.2578 -0.3731
12328W        W31862  15.672   8.553   2.946 -0.1587 -0.1411 -0.3772
12329W        W31863  13.632  11.403  13.321 -0.1454  0.1293 -0.2276
12330W        W31864  17.632  11.191  15.002  0.2822 -0.0153 -0.1585
12331W        W31865   3.037  10.919  15.700  0.1467 -0.0421  0.1279
12332W        W31866   4.079  14.051   2.008  0.3385 -0.0381  0.2145
12333W        W31867  16.187   0.289  14.503  0.1836  0.4323  0.1236
12334W        W31868  17.194  16.823  14.900  0.0892 -0.0595 -0.0494
12335W        W31869  16.197  13.113  13.779  0.1176 -0.1334  0.1240
12336W        W31870  18.012   5.745   2.804  0.1897 -0.1419  0.0084
12337W        W31871   7.570   5.012   3.093 -0.1383  0.1512 -0.0659
12338W        W31872  11.446   7.771   0.728 -0.0503 -0.2269 -0.1789
12339W        W31873   2.828   2.261   1.118  0.2389  0.0541 -0.2629
12340W        W31874  13.164   5.332  12.659  0.0156  0.1021  0.2704
12341W        W31875  18.396   2.905  15.151  0.1304  0.2605  0.0769
12342W        W31876  10.435  12.167   0.401  0.0254  0.0522  0.0434
12343W        W31877  13.299  16.663  14.629 -0.1513  0.1230 -0.0166
12344W        W31878   3.394   6.287   4.390  0.1919  0.1777 -0.1155
12345W        W31879   6.121  16.596   4.259  0.0775  0.1969 -0.0968
12346W        W31880   3.562   0.342  14.203 -0.0123  0.0444  0.1529
12347W        W31881   8.946   5.009   0.468 -0.0017  0.2332  0.0319
12348W        W31882  16.820   2.334   1.956  0.2386 -0.3741  0.0293
12349W        W31883  12.846  15.116  13.893  0.0253 -0.2404  0.0564
12350W        W31884  14.079   2.721   1.830  0.0715 -0.0953  0.2138
12351W        W31885   1.880   7.710  12.855 -0.1101 -0.1361  0.1719
12352W        W31886  17.588   6.498  13.088  0.2024 -0.1187  0.0706
12353W        W31887   8.722  14.210   2.558 -0.2318  0.0451 -0.0164
12354W        W31888  12.422  15.939   2.330 -0.1852 -0.1724 -0.1695
12355W        W31889   3.303   0.934   4.210  0.1432 -0.2165 -0.0188
12356W        W31890  17.399   0.820   0.980  0.1037 -0.0039 -0.0344
12357W        W31891  14.368   0.646   3.613  0.3353  0.4026 -0.1472
12358W        W31892  12.627   6.410  14.950 -0.1056  0.2267 -0.0890
12359W        W31893  16.902  18.343  12.752  0.2399 -0.1147  0.2656
12360W        W31894  16.922   3.872  14.930 -0.0548 -0.0604 -0.0157
12361W        W31895   8.072   6.355   4.009 -0.0517 -0.0869  0.1583
12362W        W31896  18.147   1.486   4.304 -0.1169  0.3750  0.5569
12363W        W31897  11.583  16.427  12.299 -0.0742 -0.0946 -0.0292
12364W        W31898  17.903  16.199  14.336 -0.2774 -0.0277  0.2705
12365W        W31899   9.601  12.927   0.952 -0.1025 -0.0348  0.2589
12366W        W31900   5.805   7.668  15.489 -0.0032 -0.1330 -0.3206
12367W        W31901   8.212   8.589   1.387 -0.0633 -0.1367 -0.1218
12368W        W31902  12.613  10.815   3.984  0.1036 -0.2320  0.1057
12369W        W31903   4.596  14.419  13.152 -0.1419 -0.0730  0.0540
12370W        W31904   8.198   7.839  15.230  0.2040  0.1527  0.3833
12371W        W31905   0.764   4.549  12.761 -0.1899  0.0064 -0.3778
12372W        W31906   4.122  11.036   2.701 -0.0834 -0.0837 -0.3943
12373W        W31907   4.554  14.878  14.848  0.0755 -0.1804 -0.0004
12374W        W31908  16.716   9.336   3.210 -0.1251 -0.0027 -0.0109
12375W        W31909   2.007  11.303  11.831 -0.1216 -0.1774 -0.0566
12376W        W31910   9.232  15.604   4.091  0.0771 -0.0269 -0.2842
12377W        W31911  15.900  10.806   1.192  0.1317 -0.1758 -0.2365
12378W        W31912  10.458  14.610   3.866  0.1649  0.2392  0.1137
12379W        W31913   1.278  11.491   2.023  0.0352  0.2424 -0.1269
12380W        W31914   8.428  13.809   0.261 -0.1485  0.1629  0.1901
12381W        W31915   8.783  16.912   3.825 -0.0955  0.0851 -0.0149
12382W        W31916   1.556   4.479  13.451  0.0437 -0.0615 -0.0944
12383W        W31917   8.155  15.076  12.597  0.1439 -0.2435 -0.0695
12384W        W31918   4.898  13.155   2.364 -0.0753 -0.0033  0.1199
12385W        W31919   1.300   5.020  12.134 -0.0716 -0.0325  0.1639
12386W        W31920   5.060   2.774  15.484  0.0099 -0.3329  0.1216
12387W        W31921  12.530   6.716   4.093  0.0947  0.1185  0.0271
12388W        W31922  16.172  17.477   2.106  0.2090 -0.1683 -0.1382
12389W        W31923  16.314   6.299  14.884 -0.0652  0.0273  0.1544
12390W        W31924   9.411   8.894  13.986 -0.2610  0.0687  0.1677
12391W        W31925  18.080   7.988  15.636 -0.1712  0.1788 -0.0241
12392W        W31926  11.112  17.651  14.764  0.3279 -0.3135  0.0645
12393W        W31927  13.598   7.424   4.292 -0.2937  0.0670  0.1253
12394W        W31928   2.486  16.976  13.737  0.1166 -0.2698  0.1648
12395W        W31929   8.330  10.008  13.906  0.2370 -0.0063  0.0459
12396W        W31930   7.514  16.361   1.757 -0.1127  0.0026 -0.2095
12397W        W31931   4.244   1.246   1.723 -0.0420  0.0366 -0.2340
12398W        W31932  13.953  12.998  14.768  0.1096 -0.0804 -0.0445
12399W        W31933   4.519   4.216   2.791  0.3231  0.1300 -0.0259
12400W        W31934   6.101   5.989  15.145  0.3940 -0.0600  0.0333
12401W        W31935   5.629  15.255  14.374  0.0595 -0.2105  0.2469
12402W        W31936   5.621  13.914  13.625 -0.1042  0.2106 -0.1107
12403W        W31937   8.784  16.124   3.617  0.1803  0.1139  0.1239
12404W        W31938  17.454   9.645  11.239  0.3413 -0.1822 -0.0705
12405W        W31939  17.038  12.328   3.654 -0.4622 -0.1765 -0.1727
12406W        W31940  15.117  10.616  11.303 -0.0951  0.5068  0.4245
12407W        W31941   5.443  12.035   2.191  0.1272 -0.1182  0.2312
12408W        W31942   7.550   4.657   0.524 -0.1741  0.1056  0.1582
12409W        W31943   6.029   2.635   3.813 -0.1603 -0.1401 -0.2146
12410W        W31944   9.788   8.849  15.215  0.1902  0.3524  0.0209
12411W        W31945   3.184  14.323   3.010  0.0732 -0.0061  0.0493
12412W        W31946   9.309  14.060  11.503  0.1096  0.0169  0.2625
12413W        W31947   8.143   6.326   3.109 -0.2075  0.0587  0.0519
12414W        W31948   5.271  13.608   2.466  0.2305 -0.0465  0.2543
12415W        W31949   5.193   1.978  14.374  0.3018  0.1165  0.1592
12416W        W31950  15.760   9.601  11.133 -0.0876  0.0228 -0.0495
12417W        W31951  17.628  16.131  15.310  0.0736  0.1717 -0.1757
12418W        W31952   2.202  18.292   3.784  0.0592  0.2218  0.0691
12419W        W31953   6.383   3.794   2.284 -0.0728 -0.0046 -0.0883
12420W        W31954  16.276  11.439  10.108  0.1546 -0.1362  0.0334
12421W        W31955  16.795  10.893   0.400  0.2442 -0.0237  0.1214
12422W        W31956   4.787  10.724  14.023  0.3097  0.3511  0.1663
12423W        W31957   7.953  11.318  11.654 -0.3129 -0.0934  0.1247
12424W        W31958   2.715   6.477  12.673 -0.0236  0.1450  0.0833
12425W        W31959   8.022   0.691   0.050  0.1438 -0.0160 -0.0790
12426W        W31960   7.382   8.931   3.673 -0.2380  0.0150 -0.1820
12427W        W31961  14.357   8.010  13.049 -0.0286  0.0162 -0.0831
12428W        W31962   7.257   6.818  15.084  0.2316  0.1106  0.4492
12429W        W31963   2.516   1.931   4.108 -0.2260  0.0505  0.1768
12430W        W31964  11.909   5.478   4.576  0.2938  0.0657 -0.0980
12431W        W31965   0.861   2.045  13.605 -0.2661 -0.0893 -0.2018
12432W        W31966  16.594   3.983   1.759  0.4253  0.2361  0.0792
12433W        W31967  10.089   2.588  12.221  0.0520 -0.0265  0.0818
12434W        W31968  17.746  11.984   0.468  0.1313 -0.3158  0.1167
12435W        W31969  16.724   8.099  13.610 -0.1328  0.0741  0.1844
12436W        W31970  10.567   0.643  14.335  0.1358 -0.0781 -0.4382
12437W        W31971  12.335   2.656   4.571  0.1146 -0.2428 -0.0317
12438W        W31972  17.264   3.880  12.197  0.0170 -0.0338 -0.1141
12439W        W31973  14.371  15.825   0.259  0.2497 -0.3872  0.0132
12440W        W31974  16.120   2.506   2.670  0.0813 -0.0832 -0.2987
12441W        W31975  10.154   7.671   2.741  0.0643 -0.0005 -0.1145
12442W        W31976   8.668   1.672   4.751  0.1202 -0.0254 -0.4036
12443W        W31977   4.496   7.708  11.841  0.1677  0.3247 -0.1741
12444W        W31978   5.797  16.940  13.927  0.0713  0.0984  0.2412
12445W        W31979   1.268  18.308  13.699  0.0520 -0.0424 -0.0342
12446W        W31980   9.278  10.351  14.234  0.4090 -0.1133  0.0108
12447W        W31981  17.194   8.650   3.599  0.0592  0.2338  0.2517
12448W        W31982  10.140  11.420  11.410  0.0427 -0.1678  0.3691
12449W        W31983   4.300  16.321   1.983 -0.1285 -0.0332  0.3852
12450W        W31984   0.071  11.132   0.502 -0.1616  0.0445  0.0064
12451W        W31985  12.006   2.002   1.227  0.2718  0.0346  0.5155
12452W        W31986  16.307  16.681  12.751 -0.0182  0.0393  0.2365
12453W        W31987   6.233   8.612   4.767 -0.2346  0.0572  0.0134
12454W        W31988   7.465  10.813   1.051 -0.0168 -0.0616 -0.0407
12455W        W31989   0.603  10.151   0.831 -0.1233 -0.0251  0.1894
12456W        W31990   2.215  17.647  11.540 -0.4777 -0.3986 -0.0175
12457W        W31991   4.705  12.568  12.341 -0.1393 -0.1656  0.1277
12458W        W31992   1.347  12.753   1.343  0.0719 -0.4121 -0.2176
12459W        W31993  10.717  11.472   2.850  0.1005 -0.0729  0.0547
12460W        W31994   9.054   3.587   0.503 -0.1764 -0.1127 -0.1096
12461W        W31995   2.262   4.847  11.420 -0.0317  0.0340 -0.0430
12462W        W31996   6.830   3.219   2.070  0.0233  0.0283 -0.0366
12463W        W31997  13.562   6.115  13.888 -0.0100 -0.0957  0.2074
12464W        W31998   3.864   7.228   3.214  0.1905 -0.0290  0.2732
12465W        W31999   1.144  16.849  12.036 -0.1092  0.1141  0.0492
12466W        W32000   1.246  16.933  14.995  0.0969 -0.0460  0.1771
12467W        W32001  17.813   5.079   2.664 -0.1329 -0.1141  0.0561
12468W        W32002   7.318   1.917   3.673 -0.3870 -0.0095 -0.2268
12469W        W32003   2.552  11.276   3.781 -0.3579  0.1028 -0.0121
12470W        W32004   9.060   9.291   3.571 -0.1071  0.2014  0.1262
12471W        W32005   6.043  14.132   2.681  0.0584  0.1795  0.0451
12472W        W32006   1.756  13.395   1.890  0.0192 -0.1604  0.0844
12473W        W32007  13.203  11.560  14.050  0.0362 -0.0296  0.1652
12474W        W32008   2.322  15.936  14.628  0.0521  0.1033 -0.0990
12475W        W32009   6.473   0.707  14.487  0.0166 -0.0173 -0.1330
12476W        W32010   8.889   3.272   4.011 -0.1354 -0.0735  0.0170
12477W        W32011  10.621  11.326   3.804 -0.1505 -0.0298  0.0269
12478W        W32012  12.723   1.857  15.082  0.0539  0.1163  0.0698
12479W        W32013  12.968   8.793  13.803 -0.0462 -0.0938 -0.1997
12480W        W32014  16.074   3.782   9.762 -0.0964  0.0353 -0.2374
12481W        W32015   7.974   8.682  11.230 -0.2632  0.0565 -0.0115
12482W        W32016   3.139   2.237   4.697  0.1101  0.1672 -0.4191
12483W        W32017   0.711  15.974   4.525 -0.2218 -0.1674 -0.1314
12484W        W32018   8.929   5.697  12.588 -0.2540 -0.1429 -0.0262
12485W        W32019  14.500   1.036   2.877  0.0229  0.1366 -0.2759
12486W        W32020  17.173   0.598  13.405 -0.2470 -0.1637  0.1045
12487W        W32021   7.820   9.052   0.661  0.0839  0.2430  0.1040
12488W        W32022  12.637   4.696  15.046 -0.1877  0.2412  0.0074
12489W        W32023   4.062   9.273   1.612  0.0470  0.3185 -0.1359
12490W        W32024  14.524   4.623  15.568 -0.0281 -0.2381  0.0901
12491W        W32025   8.033   3.128  13.390  0.3133 -0.0722  0.1108
12492W        W32026  12.948   1.797  11.960  0.0267 -0.3454  0.1319
12493W        W32027  14.932  15.569  15.375 -0.2755 -0.0647  0.0582
12494W        W32028  14.842   9.860   0.023 -0.1818  0.1669 -0.2603
12495W        W32029   2.918   9.503  13.971 -0.0440 -0.1913 -0.2609
12496W        W32030   5.914   3.340  11.412 -0.0589 -0.2347 -0.0783
12497W        W32031  14.394  15.505   2.516  0.0573  0.0408  0.1570
12498W        W32032  18.253  18.359  11.879 -0.0420  0.0493  0.4046
12499W        W32033  13.519  17.210  13.435  0.3953  0.1758 -0.0141
12500W        W32034  12.482   1.412  12.446 -0.3382 -0.0460 -0.1361
12501W        W32035  10.439   7.882  11.769 -0.0146  0.0480  0.0060
12502W        W32036  12.830  18.313  14.757  0.1841 -0.1475  0.3528
12503W        W32037   9.159   9.711   1.290 -0.2498 -0.0954 -0.3583
12504W        W32038  11.994   3.882   2.271 -0.0423 -0.5234 -0.1643
12505W        W32039  10.246   1.913  15.234  0.4169 -0.0408  0.0962
12506W        W32040  13.650   4.747  15.522 -0.1801  0.2030 -0.0931
12507W        W32041   0.767  10.857  10.994 -0.1352 -0.0149  0.2762
12508W        W32042  13.606   9.046  14.637  0.2362  0.1118 -0.0250
12509W        W32043   8.377  16.102   3.307 -0.0820  0.2277  0.0012
12510W        W32044   1.143  15.332  11.855  0.1849  0.1506 -0.1242
12511W        W32045   5.108  11.703  13.096  0.2849  0.2463 -0.4206
12512W        W32046  11.272   2.012   4.113 -0.0901 -0.2059 -0.0902
12513W        W32047  10.550   7.048   3.340 -0.0449  0.3659 -0.0412
12514W        W32048   7.227  13.796  14.223 -0.0485 -0.2035 -0.1965
12515W        W32049   7.644  14.334   3.246 -0.2762 -0.0039 -0.0681
12516W        W32050   1.581   1.365   2.655 -0.1452 -0.0058 -0.0252
12517W        W32051   9.280  10.780   1.831 -0.1287  0.2527 -0.0724
12518W        W32052   2.619   9.261  12.401  0.0366 -0.0617  0.1387
12519W        W32053  13.365  11.944   3.916 -0.2102 -0.1826  0.6026
12520W        W32054   7.859  14.341  14.423  0.1092  0.2530  0.1195
12521W        W32055   1.195   8.295   3.665 -0.1078 -0.0758 -0.2455
12522W        W32056  14.713  13.248  11.955 -0.0361  0.0817  0.1263
12523W        W32057  16.206   9.077  13.507  0.1510 -0.3051  0.0619
12524W        W32058   4.347   7.745  14.789  0.3004  0.1360 -0.4178
12525W        W32059   4.545   7.601   1.597 -0.0416 -0.2620  0.0413
12526W        W32060   5.887   4.697   3.005 -0.1531 -0.1250  0.2655
12527W        W32061   9.900   7.319   3.762  0.0544 -0.3329 -0.1708
12528W        W32062  13.861   8.936  12.358  0.1811 -0.1226 -0.3753
12529W        W32063   3.932   7.646  15.513  0.0014  0.2286 -0.0772
12530W        W32064  15.046   1.685  13.108 -0.2628  0.0316 -0.1076
12531W        W32065   7.616   5.439   3.895 -0.0942  0.0303 -0.3734
12532W        W32066  16.449  15.381  13.644  0.0809  0.0756  0.3893
12533W        W32067   9.756   6.719  12.154  0.0057 -0.0811  0.1545
12534W        W32068  17.892   2.978  15.295 -0.0655 -0.0645 -0.0840
12535W        W32069   3.714  13.165  12.108 -0.1812  0.2617  0.1742
12536W        W32070   2.176   7.918  12.377 -0.1434  0.0549 -0.0785
12537W        W32071  11.125   7.932  12.222  0.0054 -0.1758  0.1235
12538W        W32072  11.291   4.202   3.006 -0.0367 -0.0312  0.2009
12539W        W32073  15.712   4.282   3.022  0.0219 -0.0776  0.1678
12540W        W32074   2.611   9.369   3.114 -0.1031 -0.0968 -0.1956
12541W        W32075   3.337  11.445  11.765  0.1466 -0.3259 -0.0647
12542W        W32076  18.052   9.438  15.424  0.1129 -0.0226  0.0787
12543W        W32077   8.303   7.265  15.176  0.2083 -0.2579  0.2812
12544W        W32078   7.204  16.984   4.070  0.2507  0.1086 -0.0705
12545W        W32079   2.067  11.630   0.260  0.0940  0.0530 -0.3791
12546W        W32080  12.295  15.951  14.083  0.0929 -0.1725  0.2398
12547W        W32081   5.089   1.048  13.692  0.2324  0.1383  0.1502
12548W        W32082  12.862   0.004  12.084  0.0081 -0.0219  0.0292
12549W        W32083  10.288  10.249   2.029 -0.1455  0.2595  0.0701
12550W        W32084   1.607  13.206  12.246  0.1060  0.0256  0.0859
12551W        W32085   9.789  14.673  12.286  0.3713 -0.0961  0.1425
12552W        W32086   9.786   0.966  15.744  0.2129 -0.1493 -0.2877
12553W        W32087  12.827  14.933  15.343  0.0933 -0.0851  0.1727
12554W        W32088   2.428   8.351   1.710  0.2948  0.0688  0.0744
12555W        W32089   8.568  14.586   0.744 -0.0949  0.0629 -0.0455
12556W        W32090   1.674   5.897  11.811  0.1472 -0.0156  0.0551
12557W        W32091   1.382  15.487  12.538 -0.1355 -0.0749  0.1719
12558W        W32092  10.762  17.785  12.198 -0.2976  0.2440  0.1759
12559W        W32093  11.774  10.572   3.874 -0.2620 -0.2945  0.1307
12560W        W32094  13.892   6.785   0.351 -0.0288  0.1672 -0.1724
12561W        W32095   4.274   6.088   0.315  0.0158  0.0815  0.1358
12562W        W32096   6.749  14.166  13.052 -0.1405 -0.0616  0.2275
12563W        W32097  14.463  14.835   0.911 -0.0479 -0.1999  0.0954
12564W        W32098  11.287  17.231   5.048 -0.0637  0.0068 -0.1400
12565W        W32099  15.664   5.350   1.697  0.2621  0.2178  0.1944
12566W        W32100   3.614   1.659   1.211 -0.1022  0.1259 -0.2348
12567W        W32101   4.970   0.371   4.025 -0.0165 -0.1038 -0.1857
12568W        W32102  13.502   6.364  13.270  0.0336  0.4442 -0.2303
12569W        W32103   2.685   1.331   1.625  0.2531 -0.0840  0.0047
12570W        W32104  10.866  10.576   3.548  0.0438  0.0322  0.0330
12571W        W32105  10.314   8.898   1.637 -0.2921  0.0625 -0.0165
12572W        W32106   6.988   3.162   1.523 -0.0533  0.3504  0.0982
12573W        W32107  16.308  12.230   2.226 -0.3473 -0.1443  0.0079
12574W        W32108  11.534   4.584  15.124  0.1077  0.2704  0.2479
12575W        W32109   3.359   1.793   4.667  0.3966 -0.1780  0.1124
12576W        W32110  14.855  13.980   2.247 -0.2639 -0.0871 -0.0254
12577W        W32111  11.759   6.674  12.046 -0.1076  0.0663  0.0319
12578W        W32112   9.597   4.036   1.117 -0.3471  0.1422  0.0531
12579W        W32113   8.604  10.756   4.307 -0.2649 -0.3217  0.0993
12580W        W32114   0.250   9.946  11.843 -0.2140 -0.3742  0.0476
12581W        W32115   1.196  10.947  11.560 -0.3454  0.1474  0.1935
12582W        W32116   5.252   3.113  15.147  0.1749  0.3066 -0.2461
12583W        W32117   0.099  13.113  14.111  0.2780  0.1865 -0.1978
12584W        W32118  12.710  15.899  14.362  0.0826  0.3584  0.1839
12585W        W32119  14.053  13.635   4.260 -0.0170 -0.0020  0.2738
12586W        W32120   8.032   9.685  13.179  0.0957 -0.1924 -0.1947
12587W        W32121   4.408  17.264  12.328 -0.2786 -0.0043  0.0567
12588W        W32122  15.374  12.872  14.788  0.2668 -0.2090 -0.2046
12589W        W32123   3.527  18.130  11.813 -0.0912 -0.3398 -0.1206
12590W        W32124   0.472  10.002  13.796 -0.1129  0.2863  0.0385
12591W        W32125   8.828   0.226  15.270  0.1062 -0.0471 -0.0490
12592W        W32126  17.657   9.676  13.020 -0.0792  0.4547  0.1398
12593W        W32127   2.620   3.515   1.411  0.0008 -0.0981  0.0685
12594W        W32128  13.415   3.930   0.683  0.0978  0.3225  0.1114
12595W        W32129   4.216   8.383   0.861 -0.0575  0.1454 -0.0905
12596W        W32130  12.035   7.511   1.934 -0.1400  0.2475 -0.0752
12597W        W32131  10.894  17.091   2.096 -0.0551 -0.2044  0.1834
12598W        W32132   3.140  15.837   0.199 -0.1442 -0.2847  0.0547
12599W        W32133  15.153   2.851  14.915  0.1778 -0.0106 -0.0505
12600W        W32134   3.267  16.995  14.602 -0.0521 -0.0861  0.0377
12601W        W32135   7.015   6.679   1.250 -0.1614 -0.0161  0.1219
12602W        W32136  10.400   2.274   0.760  0.1234 -0.1841 -0.2670
12603W        W32137  14.697   2.634   0.673 -0.1805 -0.2901 -0.0375
12604W        W32138   1.148   1.419  12.083  0.0761  0.4189  0.0840
12605W        W32139  13.712  12.179  15.787 -0.1941  0.2079  0.1645
12606W        W32140   8.095   5.830  11.526  0.1452  0.2269  0.1275
12607W        W32141   6.455   1.337  13.792 -0.1460  0.1410 -0.1476
12608W        W32142  11.703  14.644   3.731 -0.0591  0.0117  0.1164
12609W        W32143   7.023  18.265  14.635 -0.0516  0.3302 -0.2813
12610W        W32144   1.488   5.684   0.574  0.1060  0.1603  0.0120
12611W        W32145   5.832  14.761   3.352 -0.0686 -0.0785 -0.2502
12612W        W32146  10.983   5.889   2.110  0.1838 -0.1081 -0.1412
12613W        W32147  16.582   1.262  11.964  0.1955  0.2002  0.0120
12614W        W32148   1.739   9.966  15.206  0.0073  0.3124 -0.3844
12615W        W32149  17.020  10.921  11.070 -0.3130 -0.2269 -0.3099
12616W        W32150   3.390   9.453  12.944 -0.4114  0.0381  0.3903
12617W        W32151   6.405  13.654   0.464 -0.3156 -0.1402 -0.0654
12618W        W32152   9.479  16.932  14.961  0.1449 -0.1269 -0.0908
12619W        W32153  12.285   3.283  12.754  0.0471  0.4492  0.0019
12620W        W32154   3.944   0.969   4.619  0.0510  0.3739 -0.1515
12621W        W32155  10.053   5.571   5.047 -0.0988 -0.2852  0.1824
12622W        W32156  12.854   7.040  11.428  0.1223  0.1787 -0.0010
12623W        W32157  11.128   6.508   0.323 -0.0962  0.1966  0.1217
12624W        W32158   8.299   4.042  11.264 -0.1688 -0.1373  0.0550
12625W        W32159  12.921   9.768   2.533 -0.0496 -0.0542  0.1095
12626W        W32160   6.637   0.699   3.494  0.1774  0.2170  0.1451
12627W        W32161   8.619   0.978   3.157  0.2679  0.0266  0.1156
12628W        W32162   8.347   2.644   0.606 -0.0615 -0.2778 -0.3522
12629W        W32163  15.041   6.518   2.226 -0.1550  0.0360  0.2664
12630W        W32164  13.935   0.894  12.082  0.0549  0.0257 -0.0886
12631W        W32165   2.618   8.708   4.302  0.1169  0.0997  0.1259
12632W        W32166   7.935   8.924  11.651  0.1804  0.3533  0.1225
12633W        W32167   6.197  15.037   0.397  0.3303 -0.0251  0.1471
12634W        W32168  17.247   3.183   3.085  0.0736 -0.1162  0.0682
12635W        W32169  17.304  12.506  15.322  0.0461  0.0523  0.2016
12636W        W32170   9.324  17.029   0.294  0.0689 -0.0554  0.3650
12637W        W32171  14.676   0.260  12.023  0.2449  0.0673 -0.1279
12638W        W32172   3.827   7.704   0.989 -0.0788  0.1715  0.0772
12639W        W32173   2.406  13.153  15.172 -0.1345 -0.0205 -0.1322
12640W        W32174   4.838   2.313  13.092 -0.2676 -0.2623 -0.1691
12641W        W32175  17.409  12.596  14.547  0.0650 -0.3999 -0.1748
12642W        W32176   4.619   0.607   0.072 -0.0612 -0.0127 -0.1377
12643W        W32177   7.425  14.488   0.335 -0.2212 -0.0259 -0.1840
12644W        W32178   3.887   6.192  12.208 -0.1506 -0.1160 -0.0802
12645W        W32179   8.296  10.916  14.225 -0.0640 -0.1964  0.0051
12646W        W32180   2.792   2.113  12.256 -0.0664 -0.1873  0.0729
12647W        W32181   3.508  18.249   4.044  0.0218  0.0737  0.0120
12648W        W32182  13.064  17.769  10.809  0.0826  0.0595  0.0810
12649W        W32183  13.674  10.052  14.971 -0.3225 -0.1826  0.4674
12650W        W32184   8.669   0.429   4.426  0.1764  0.0609  0.0640
12651W        W32185   8.860  11.764  15.466  0.1182 -0.0179 -0.1346
12652W        W32186   6.946  16.050  13.381 -0.3125  0.1663  0.1863
12653W        W32187   0.431  13.294  14.608 -0.0308  0.1011  0.1958
12654W        W32188  13.685  16.256  14.781  0.0482  0.0666 -0.6335
12655W        W32189  15.599  17.575  15.626  0.0730 -0.0939 -0.1414
12656W        W32190   7.165  18.275   4.355  0.1075 -0.1062 -0.0800
12657W        W32191  15.356  11.962   0.913  0.0754  0.2658 -0.2798
12658W        W32192  12.096   7.802  12.421  0.4056 -0.2426 -0.1908
12659W        W32193  15.969  14.447   2.516  0.4434  0.0667  0.2082
12660W        W32194   7.858  11.707   1.949  0.1694 -0.1004  0.4378
12661W        W32195  11.016   1.163  11.131 -0.0507 -0.1468  0.0091
12662W        W32196   2.769   0.832   3.013 -0.0505  0.1728  0.2917
12663W        W32197  10.490  10.467   3.829  0.0494  0.2675  0.0807
12664W        W32198   0.480   2.927  13.321 -0.3536 -0.1006  0.2558
12665W        W32199   1.911   6.719  15.305  0.4247 -0.0361 -0.0382
12666W        W32200  15.936   2.908   1.262 -0.0117 -0.0841 -0.0740
12667W        W32201   8.722   4.950  14.040  0.1611 -0.0455  0.1345
12668W        W32202  10.173   3.899  15.618 -0.0525  0.1841 -0.0655
12669W        W32203  15.504   1.610   2.095  0.0350 -0.2950  0.0135
12670W        W32204   6.979  15.585  14.282 -0.1017 -0.1188 -0.1865
12671W        W32205   2.245   3.938   0.222 -0.1615  0.1760  0.0189
12672W        W32206  12.041   4.454   1.505 -0.1529 -0.0285 -0.1214
12673W        W32207   8.300   6.894  10.845 -0.2283  0.0331 -0.1550
12674W        W32208   8.723   0.394  13.431  0.1148  0.3387  0.0656
12675W        W32209   4.310   7.594   0.253  0.0348 -0.0051 -0.1113
12676W        W32210   7.847  13.776   5.013  0.0360  0.0461  0.3193
12677W        W32211   3.592   7.108  13.823  0.1033 -0.3260  0.0389
12678W        W32212  13.449   1.579  12.021 -0.0902 -0.2436 -0.0407
12679W        W32213   6.245  14.381   0.549 -0.0133 -0.1008  0.0892
12680W        W32214  13.191  11.218  10.437  0.0496  0.0807 -0.2250
12681W        W32215   7.342  17.480   4.960  0.1149  0.1969 -0.0064
12682W        W32216   2.094   4.057   4.450 -0.0061 -0.0880  0.0357
12683W        W32217   4.116  17.574  13.067  0.0910 -0.0449  0.0289
12684W        W32218   4.101   9.999   2.240 -0.3256  0.4096 -0.1683
12685W        W32219   2.329   4.539   4.612  0.0568 -0.0174 -0.3462
12686W        W32220   7.181   0.436  11.289 -0.3341  0.1359  0.1922
12687W        W32221   1.794   6.231   2.017 -0.1745  0.0471 -0.3821
12688W        W32222  11.818   5.316   2.348  0.1605 -0.0542  0.1653
12689W        W32223   1.245   0.982  12.322 -0.3144 -0.0030 -0.1141
12690W        W32224  13.169  13.942  14.638 -0.1546  0.0345  0.3302
12691W        W32225  11.714   3.315  14.632  0.0740 -0.1437 -0.1843
12692W        W32226  17.476  16.632  15.356  0.2429 -0.1191  0.4005
12693W        W32227   6.216   0.696  12.225  0.0139  0.0110 -0.0147
12694W        W32228   0.837  14.687  14.661 -0.2628  0.1840  0.1680
12695W        W32229  13.153   8.447   4.444  0.0194  0.1363 -0.1808
12696W        W32230   2.417   1.157  15.391 -0.0570  0.1635 -0.0732
12697W        W32231   4.298   2.428  13.128 -0.1669 -0.1132  0.1289
12698W        W32232   4.659  12.653  14.834  0.2711  0.0899 -0.0518
12699W        W32233   9.464  17.344  14.599  0.1214 -0.2021 -0.3630
12700W        W32234  17.020   5.231  15.305  0.1893 -0.4951  0.0251
12701W        W32235   4.027   7.435   4.289  0.2563  0.5840 -0.0726
12702W        W32236   2.236   0.022   1.629  0.1947 -0.1609 -0.2765
12703W        W32237  17.127  15.267  14.849 -0.2795 -0.0380  0.2218
12704W        W32238   4.417  13.834   0.284  0.0846 -0.0527  0.2057
12705W        W32239   0.414  17.314  10.511  0.1701  0.2077 -0.0398
12706W        W32240   3.280   1.473   1.540 -0.0302  0.1034 -0.1702
12707W        W32241   3.464   0.537   1.947  0.0251  0.0535 -0.1251
12708W        W32242   8.546   7.862  11.252 -0.1875  0.0039 -0.1170
12709W        W32243   9.478  14.564   0.302 -0.2341 -0.2340 -0.0113
12710W        W32244   3.762  10.795  14.931  0.0780  0.2045  0.0817
12711W        W32245   1.405  17.724  12.403  0.0505 -0.3664 -0.1843
12712W        W32246   7.537  17.748   0.569  0.2912  0.0984  0.0488
12713W        W32247  14.965  11.721   1.200  0.1603  0.3127  0.0500
12714W        W32248   9.974  16.353  13.921 -0.1360 -0.1137  0.3228
12715W        W32249  11.151   8.557  15.351  0.0415  0.1078 -0.1983
12716W        W32250  12.429  18.186  15.243 -0.1388 -0.1054  0.1578
12717W        W32251  15.393  12.294   0.556 -0.1057  0.1736  0.0875
12718W        W32252  10.786  15.963  14.789 -0.0601  0.3589 -0.0173
12719W        W32253  10.165   9.685   0.424  0.1987  0.0043 -0.2718
12720W        W32254  15.341  10.219  15.195 -0.1197 -0.1759 -0.3315
12721W        W32255   1.083  17.642  11.361  0.1840 -0.0597 -0.1571
12722W        W32256  10.112  15.300  11.217 -0.2374  0.0396 -0.1211
12723W        W32257  13.368   9.781  11.567 -0.0812  0.1085  0.1807
12724W        W32258   9.946  10.464   2.959  0.1186  0.1082  0.2570
12725W        W32259   4.301   3.780  12.651  0.0440  0.3818 -0.1389
12726W        W32260   4.792   7.043   4.160  0.0384  0.3236  0.1363
12727W        W32261   5.050  18.128   1.879  0.2226 -0.1716 -0.1244
12728W        W32262  15.905  14.070  14.591  0.1324  0.2717 -0.1262
12729W        W32263   3.374  16.085  12.739 -0.3666  0.0832  0.2931
12730W        W32264   3.113  14.416  11.968  0.1046 -0.1073  0.0828
12731W        W32265  11.514  18.079  13.350 -0.4548 -0.0522  0.2496
12732W        W32266  17.235  11.987   3.945  0.1925 -0.0044 -0.1295
12733W        W32267  15.313  11.067   0.414 -0.0135 -0.0807  0.2184
12734W        W32268   6.925  10.269  12.766 -0.2677  0.0075  0.2139
12735W        W32269  17.737   1.019  13.218  0.0063  0.0574  0.0359
12736W        W32270   9.917   7.060  14.124 -0.1015  0.0088  0.0873
12737W        W32271   4.935   1.525  11.540 -0.1017 -0.0565  0.1764
12738W        W32272   3.497  13.922   3.148 -0.0703 -0.1627 -0.0335
12739W        W32273   5.874   5.213  15.154  0.0763 -0.0267  0.1528
12740W        W32274  11.381  12.309   2.379 -0.2642  0.0887  0.1550
12741W        W32275   7.944  11.518   0.730 -0.2469 -0.0218  0.3531
12742W        W32276   8.165   1.303  15.071 -0.2115 -0.2263  0.1562
12743W        W32277  17.904  11.488   1.829 -0.1147 -0.0815 -0.3255
12744W        W32278  11.808   8.301  14.433 -0.3315  0.1091 -0.1571
12745W        W32279  12.716   3.135   0.806 -0.1343 -0.2425 -0.1508
12746W        W32280  14.721  13.674   3.099  0.2902 -0.0544  0.0818
12747W        W32281   1.787  16.983   0.363 -0.5634 -0.3188  0.1793
12748W        W32282  17.305   3.005   1.034 -0.0662 -0.1325  0.0020
12749W        W32283  15.369   5.943  10.976  0.1308  0.0057 -0.0399
12750W        W32284  14.378  15.811   1.021  0.2192 -0.0996 -0.1075
12751W        W32285   7.540   5.717  12.964  0.1685 -0.1961  0.1963
12752W        W32286  13.517   3.565  14.747  0.0341  0.3192 -0.0583
12753W        W32287   4.491   5.015   0.042 -0.0642 -0.1482 -0.2088
12754W        W32288  11.356  14.561  12.998 -0.0496 -0.1060  0.5150
12755W        W32289  13.686   0.097  11.607 -0.1140 -0.3629  0.2490
12756W        W32290  11.219   2.388  14.665 -0.3206 -0.0288 -0.0317
12757W        W32291   2.519  15.335   1.445  0.1438  0.0624 -0.0314
12758W        W32292  11.824   5.970   0.441  0.2055  0.0283  0.2114
12759W        W32293  11.661   8.582  12.232 -0.5334 -0.0173 -0.3218
12760W        W32294  14.882   5.003   2.947  0.0522 -0.0952  0.0832
12761W        W32295   8.574   6.023   3.271 -0.0744  0.1207 -0.1034
12762W        W32296   2.029   8.771   2.690  0.1153 -0.2625  0.1111
12763W        W32297  13.324   9.996  15.777  0.0703  0.0793  0.2350
12764W        W32298  13.169  13.060  11.579 -0.1430 -0.4369  0.0856
12765W        W32299  10.039  16.696   2.436 -0.1812  0.0110 -0.0434
12766W        W32300  11.297   7.222   4.100 -0.0321 -0.1416  0.0243
12767W        W32301  15.316  18.265   1.181  0.2601 -0.2553 -0.2331
12768W        W32302   2.507  14.922  12.868  0.0359 -0.0949 -0.1576
12769W        W32303  10.884  14.989   1.817  0.2024 -0.1780 -0.4532
12770W        W32304   7.177   1.379   2.980  0.0357  0.0862 -0.1087
12771W        W32305   1.471  14.686  13.038 -0.1900  0.1678 -0.1929
12772W        W32306   4.386  11.453   3.572  0.1470  0.1333  0.0588
12773W        W32307   9.731  11.822  11.205  0.1614  0.0810 -0.0370
12774W        W32308  10.515  13.339   1.444 -0.0033  0.1835  0.0188
12775W        W32309  12.884   9.248  10.362  0.0021 -0.1390  0.1126
12776W        W32310   4.090   8.011  11.830 -0.0768 -0.1797  0.0154
12777W        W32311  11.604   1.163  13.722  0.0019  0.2973 -0.0731
12778W        W32312   5.476  13.377   0.199  0.0126  0.0087 -0.2543
12779W        W32313  11.303   7.566  15.625  0.3006  0.1156  0.0309
12780W        W32314   7.484  15.015  14.847  0.1838 -0.0386  0.0729
12781W        W32315   7.712  12.203  15.127  0.0746  0.0419 -0.1829
12782W        W32316   0.092  14.667   3.114  0.2061  0.0408 -0.1186
12783W        W32317   1.271   3.739  15.477 -0.1478  0.0128 -0.1215
12784W        W32318   7.500   4.035  12.997 -0.0279 -0.3766 -0.3723
12785W        W32319  12.252   0.457   2.880 -0.1284 -0.2559  0.0060
12786W        W32320   9.231   6.534  11.298 -0.2328  0.0281 -0.2176
12787W        W32321   7.805   1.863   0.397 -0.3788 -0.1112  0.0823
12788W        W32322   0.783  16.679  14.875  0.1019 -0.0444 -0.2662
12789W        W32323   8.225  14.900  15.642  0.2459  0.1912 -0.0266
12790W        W32324   7.643  10.625   4.503 -0.1781 -0.0376  0.1344
12791W        W32325  12.555   6.937   2.615  0.2558 -0.1210 -0.1966
12792W        W32326  17.461  15.129  13.636 -0.1836  0.0501  0.0814
12793W        W32327  10.290   1.225  13.561 -0.0631  0.0284  0.0839
12794W        W32328   3.650   8.243   0.255  0.1490 -0.0899  0.0332
12795W        W32329   6.923  10.562   3.951 -0.3094 -0.0610  0.2348
12796W        W32330   8.193   6.748   4.302  0.0472  0.0243  0.2340
12797W        W32331   6.393  17.882   4.735 -0.0377 -0.3172 -0.0611
12798W        W32332   0.073   6.134  14.780  0.0086  0.2500 -0.0345
12799W        W32333  15.302   5.589   1.945  0.1470 -0.0325  0.0217
12800W        W32334   9.477  13.832  14.536 -0.1951 -0.1609  0.2360
12801W        W32335   6.557   7.274  11.807  0.1414 -0.3004 -0.2865
12802W        W32336   0.831   8.674  13.795  0.0218 -0.0968  0.0950
12803W        W32337   3.662  14.142  12.500 -0.1529  0.1422  0.0240
12804W        W32338   7.075   5.270   1.917  0.2311  0.0849 -0.0126
12805W        W32339   8.913  13.874   3.071 -0.0525 -0.3719  0.3442
12806W        W32340   8.800   8.806  14.064  0.4068  0.0550  0.0798
12807W        W32341  13.668   9.423   1.791  0.2204  0.0200  0.0751
12808W        W32342  15.680   9.853  13.141  0.1347  0.0671  0.0217
12809W        W32343  10.503   5.019   1.695  0.1850 -0.0523 -0.3894
12810W        W32344   2.166  12.606   0.187  0.0927 -0.0629 -0.0095
12811W        W32345   4.503  13.767   1.067 -0.0755  0.1631 -0.1762
12812W        W32346  13.856  16.784  13.783  0.0241 -0.1955  0.2009
12813W        W32347  13.861   0.959   2.996 -0.2645  0.0476 -0.4508
12814W        W32348   7.769  12.507   4.762 -0.0168  0.1580 -0.0691
12815W        W32349   8.892   7.415  12.352 -0.2946  0.1721  0.2380
12816W        W32350   4.551  17.101   0.755 -0.3529  0.1055 -0.1773
12817W        W32351  13.447  15.237  11.724  0.1436  0.0006  0.0534
12818W        W32352  11.158   4.698   0.892  0.3808 -0.2616  0.1841
12819W        W32353   6.778  13.279   2.258 -0.1366  0.1004  0.0208
12820W        W32354  12.470   1.565  14.668 -0.0361 -0.0543 -0.1113
12821W        W32355  15.295   9.513   1.846  0.2605  0.3700  0.0616
12822W        W32356  14.527   2.846   1.097 -0.1731  0.0617  0.0004
12823W        W32357   0.291   6.293   3.227  0.1063  0.0170  0.1002
12824W        W32358   1.190   2.262  10.992  0.1284  0.1817  0.2029
12825W        W32359   9.601   9.799  11.675 -0.0780  0.0987 -0.0192
12826W        W32360  14.607   7.913  10.806 -0.0847 -0.0966  0.0165
12827W        W32361  13.968   8.029  14.369 -0.3762  0.2560  0.1838
12828W        W32362   8.645   9.589  14.313 -0.0899 -0.2052  0.2583
12829W        W32363   5.733   0.093  11.416  0.2320  0.3562  0.1828
12830W        W32364  14.070   8.460   2.597  0.0066 -0.1384 -0.1948
12831W        W32365   9.861   2.817   2.984 -0.3301  0.0493 -0.2287
12832W        W32366  18.056  11.153   3.602  0.2198 -0.1460  0.3167
12833W        W32367   1.732   8.304  14.548 -0.1991 -0.1316 -0.4111
12834W        W32368  10.354   1.769   3.430 -0.0696  0.0118 -0.3612
12835W        W32369   3.631   9.028   0.742 -0.4688 -0.0612  0.0866
12836W        W32370   3.515   5.586   2.370 -0.2882  0.0935 -0.1603
12837W        W32371  13.078   9.988   1.284  0.3532  0.0527  0.2440
12838W        W32372  14.292   2.800   3.902  0.3941  0.1108 -0.2188
12839W        W32373   9.336   1.988  14.994  0.1154 -0.1288 -0.0727
12840W        W32374   2.832  12.782   1.389 -0.0221 -0.2857 -0.0662
12841W        W32375   8.051   1.345   0.639  0.2599 -0.1977  0.0997
12842W        W32376   6.014   3.469  10.254 -0.0329 -0.0583 -0.2068
12843W        W32377   6.278   7.356  13.893 -0.0001  0.2450 -0.1048
12844W        W32378   5.115  10.412  15.771  0.0432  0.0234  0.2750
12845W        W32379   1.607   5.389  13.123 -0.0256  0.0526  0.0016
12846W        W32380  12.671  13.339  15.338  0.3918 -0.2423  0.4095
12847W        W32381  12.017   7.887  14.175 -0.0116 -0.0813 -0.0394
12848W        W32382   5.848   5.543  12.028  0.1588 -0.2241 -0.0480
12849W        W32383   4.168  13.928  15.677  0.1324 -0.1942  0.1968
12850W        W32384   1.470   2.848  15.482  0.3927 -0.1021  0.3033
12851W        W32385   8.998  17.373  13.013 -0.0243 -0.0843 -0.0569
12852W        W32386  15.422   9.044  11.604 -0.0980  0.1294  0.3664
12853W        W32387  15.487   1.465  13.014 -0.2788  0.1093  0.2046
12854W        W32388  10.817  16.196   1.024 -0.2809  0.2493  0.1302
12855W        W32389   5.270   6.404  15.532 -0.0940  0.1986  0.0624
12856W        W32390   1.309  12.754   0.671 -0.1397 -0.2117 -0.0751
12857W        W32391   3.164  13.587  15.399  0.1247 -0.0687 -0.1376
12858W        W32392   6.945   7.911  13.072  0.2153 -0.0852 -0.0125
12859W        W32393   3.190   3.031   0.219  0.0099 -0.0310  0.0602
12860W        W32394  15.165   0.550   2.296  0.2113  0.1593 -0.2906
12861W        W32395   0.878  12.875   2.939  0.1145  0.4258  0.3096
12862W        W32396  12.610  13.139   1.729 -0.4302 -0.1136 -0.1556
12863W        W32397   9.417   6.971   3.999 -0.1679 -0.3073 -0.0178
12864W        W32398  11.883   5.691   2.677  0.1140  0.0333 -0.0002
12865W        W32399   3.438   8.771   1.919  0.0112  0.0493 -0.0588
12866W        W32400  14.076   2.629  10.311  0.2020 -0.1132 -0.2335
12867W        W32401  12.107   1.761  12.021  0.0132 -0.2420 -0.2948
12868W        W32402   1.455   2.982   4.071  0.1288  0.0214 -0.0977
12869W        W32403   4.362   9.089  11.588 -0.3024  0.1250  0.0365
12870W        W32404  10.365   2.775   4.887  0.4509 -0.0986  0.0735
12871W        W32405   8.377  14.470   3.495 -0.0912 -0.1312  0.1115
12872W        W32406   1.761   3.171  13.293  0.0006 -0.1281 -0.1966
12873W        W32407  10.065   5.703  14.355  0.2446  0.0649 -0.0909
12874W        W32408  13.129   3.739  15.076  0.2902 -0.1964 -0.0257
12875W        W32409  11.112   6.340   3.077 -0.4629 -0.0526 -0.1082
12876W        W32410   5.679   1.315  11.826  0.0896  0.2573 -0.1796
12877W        W32411   1.242   2.069  11.964 -0.1096 -0.2232 -0.1776
12878W        W32412  10.587   3.499   1.450  0.0349 -0.0963 -0.1573
12879W        W32413  14.831   1.070  14.360  0.2696  0.0342 -0.0650
12880W        W32414   5.996  11.269  12.196  0.0302  0.1001  0.0948
12881W        W32415   7.275   3.013  14.600 -0.1076 -0.1484 -0.0258
12882W        W32416  15.815  15.890  15.431  0.0299  0.1792  0.3337
12883W        W32417  13.219   5.764  14.115  0.2135  0.1239  0.0527
12884W        W32418  12.109   4.662  14.431 -0.2852  0.3134 -0.1410
12885W        W32419   3.667  15.934   4.716 -0.0803  0.3136 -0.1764
12886W        W32420  14.877  18.389   2.115  0.2281 -0.0960  0.1732
12887W        W32421   0.751  17.739  12.994 -0.3262  0.1761  0.3027
12888W        W32422   9.708   8.462  14.824  0.0809  0.1136 -0.1031
12889W        W32423   6.609   5.392   3.224 -0.0487  0.0937  0.3053
12890W        W32424  18.222   3.816  12.579  0.2487  0.0999  0.2092
12891W        W32425   0.017   5.817   3.153  0.0474 -0.3458  0.1901
12892W        W32426   5.783   9.120   0.772  0.1153  0.0056  0.3148
12893W        W32427  16.106  10.792   3.633  0.0047 -0.0484 -0.1138
12894W        W32428  15.526  11.002  14.536 -0.1665 -0.3268 -0.0381
12895W        W32429  13.889   3.987  13.544 -0.0210  0.3601 -0.1445
12896W        W32430   6.045  18.092   2.987 -0.0887  0.1219 -0.1210
12897W        W32431   8.789  13.497   3.400  0.1306 -0.4801 -0.0691
12898W        W32432  14.915  14.367  12.783 -0.0116 -0.1237 -0.2693
12899W        W32433   3.483   9.750   1.533  0.0366 -0.1428  0.1493
12900W        W32434   7.869   2.566   3.123  0.0310 -0.0803 -0.2136
12901W        W32435   2.643   7.112   0.898 -0.0573  0.1423 -0.4000
12902W        W32436   1.973  14.407   1.380 -0.1053  0.0591  0.0247
12903W        W32437  14.046   8.140  13.434 -0.1902 -0.0828 -0.2935
12904W        W32438  17.465   3.686   0.315 -0.2446  0.0068 -0.0427
12905W        W32439   3.267  13.062  15.248 -0.0937  0.0380 -0.2275
12906W        W32440   5.198   6.996   0.570  0.4079  0.2222  0.0443
12907W        W32441   7.582   3.360  11.381  0.4514 -0.1871 -0.1082
12908W        W32442   6.407  17.212   0.250  0.0584 -0.2911 -0.2339
12909W        W32443  11.533   3.800  12.559 -0.2656 -0.0239  0.1185
12910W        W32444   1.749   3.700  15.641  0.1331 -0.0058  0.0758
12911W        W32445   2.328   9.285  15.440 -0.1357 -0.5001 -0.3410
12912W        W32446  12.830   8.457   2.902 -0.3093 -0.1369 -0.0170
12913W        W32447  14.210  14.308   1.540 -0.1176 -0.0902  0.1371
12914W        W32448  11.100   3.836   1.410 -0.1465 -0.1048 -0.2163
12915W        W32449   1.222  17.909   2.677 -0.0354  0.0628 -0.2901
12916W        W32450  12.094   8.434  15.655 -0.0547 -0.4207  0.2091
12917W        W32451   2.616   7.715  13.137  0.0759 -0.2087 -0.1405
12918W        W32452  11.249   6.055   3.503 -0.0181  0.5795  0.0413
12919W        W32453  13.110  15.210   2.142  0.0714  0.4061 -0.0961
12920W        W32454   2.816   0.236   2.131  0.2096 -0.2713  0.2088
12921W        W32455  16.838   7.787   2.596  0.3432  0.0606 -0.0128
12922W        W32456  13.816  14.903   2.785  0.1581  0.0463 -0.0930
12923W        W32457  11.799  11.994  13.130  0.2167 -0.1102  0.2196
12924W        W32458   3.162   9.682  12.518  0.1318 -0.1067 -0.2844
12925W        W32459   5.518   7.152   3.220  0.2237 -0.0802  0.0010
12926W        W32460   9.093  11.988  14.097  0.2908  0.2940  0.3234
12927W        W32461   2.094  13.479  15.298 -0.2044 -0.0782 -0.0775
12928W        W32462  13.943   6.052   1.035  0.0409  0.2104 -0.0936
12929W        W32463   0.251   8.834   0.072  0.2630 -0.1122  0.0813
12930W        W32464   8.843   9.979  15.090 -0.3049  0.3063 -0.0844
12931W        W32465  10.761   3.293   1.964 -0.0054 -0.0651 -0.2615
12932W        W32466  12.853   7.283   1.704 -0.0475 -0.2713  0.1518
12933W        W32467   7.683   3.529  13.121  0.1284  0.3337  0.3498
12934W        W32468   2.093   2.006   0.023 -0.2052 -0.2988  0.1047
12935W        W32469  10.884   8.182  11.879 -0.0698 -0.2111 -0.0504
12936W        W32470  12.766  12.837  12.236  0.2278  0.1306 -0.1047
12937W        W32471   7.296   5.075   4.351 -0.2725 -0.1189 -0.2710
12938W        W32472   2.664  14.204   2.868 -0.4389 -0.1725 -0.0212
12939W        W32473  13.293   3.494   1.896 -0.0178 -0.0373  0.4331
12940W        W32474  17.703   7.218  14.767  0.0779 -0.0248 -0.0355
12941W        W32475   9.250   4.866  12.245  0.0414  0.2481  0.1635
12942W        W32476   2.403   1.292  14.536 -0.0127  0.0936 -0.0037
12943W        W32477   9.605  13.004  14.376 -0.1307 -0.1093 -0.0501
12944W        W32478  16.821  15.294   3.407  0.0342 -0.2859  0.0898
12945W        W32479  11.228   6.094  14.837  0.1412 -0.1083 -0.0405
12946W        W32480  12.974   2.594   3.314 -0.0991 -0.0980 -0.2694
12947W        W32481  11.556  14.753  12.417  0.0795  0.0050 -0.3213
12948W        W32482  14.225  12.207   1.519  0.0509  0.1063 -0.0957
12949W        W32483  17.621   8.533   0.264  0.0735  0.1607  0.0621
12950W        W32484   2.057   2.545  14.974 -0.0291 -0.2833 -0.1383
12951W        W32485  11.542   0.637  14.496 -0.3040 -0.1424  0.0250
12952W        W32486  10.342   4.614   5.049  0.2180 -0.2718  0.0743
12953W        W32487  16.073  12.438   2.762  0.3710 -0.0461  0.1068
12954W        W32488   4.334  15.095  12.850  0.1809 -0.0038  0.0626
12955W        W32489   5.724   3.127  14.186  0.0700 -0.0013 -0.0079
12956W        W32490   9.670  11.933   3.541  0.3166 -0.3002 -0.1166
12957W        W32491  16.141   6.628   2.077 -0.1523 -0.0502 -0.0529
12958W        W32492   8.835  11.769  13.722  0.0060  0.1120  0.0015
12959W        W32493  10.366   8.659  15.256 -0.2071  0.4361 -0.1756
12960W        W32494   0.599  12.890  14.380 -0.0725 -0.4961 -0.0497
12961W        W32495   7.836   2.496  15.242  0.1541  0.0621  0.3503
12962W        W32496   6.528   0.510  15.202  0.2611 -0.0835 -0.1212
12963W        W32497   8.725  13.801  15.133 -0.2772 -0.0517 -0.0931
12964W        W32498   2.095   1.434  12.031 -0.0937  0.2153  0.1748
12965W        W32499   1.177   1.390  14.142  0.0015 -0.0687 -0.2410
12966W        W32500  11.844  11.477   0.532 -0.2897  0.1820 -0.4390
12967W        W32501  17.156   2.822   1.885  0.1232  0.1715 -0.1980
12968W        W32502   5.432  12.519   1.523  0.0909 -0.1727 -0.1019
12969W        W32503  15.963  11.639   1.639 -0.1717 -0.1819  0.0193
12970W        W32504   9.081  12.299   2.004 -0.1281 -0.0350 -0.0118
12971W        W32505  11.722   9.538   5.356 -0.1159 -0.1566  0.2442
12972W        W32506  16.071   8.217   2.950  0.0332  0.0075 -0.1482
12973W        W32507  12.342  12.108  14.385 -0.2758  0.2863  0.0093
12974W        W32508   8.182   3.762  14.963  0.1954  0.2931 -0.0471
12975W        W32509  14.811   6.905  13.110  0.0738 -0.0810 -0.1183
12976W        W32510  17.343   7.596  14.562 -0.1857 -0.1139 -0.4867
12977W        W32511   6.522  12.970   3.529  0.0402 -0.2664 -0.3131
12978W        W32512   7.945   2.182   4.437 -0.2850 -0.0348 -0.0879
12979W        W32513   8.824  10.432   0.192  0.0535  0.1001 -0.2721
12980W        W32514   6.976  12.789   3.711 -0.1212  0.1285  0.3049
12981W        W32515   7.651   5.879   2.757  0.5490  0.0940  0.2556
12982W        W32516  10.295  11.411   1.709  0.0315  0.1903  0.3204
12983W        W32517   5.135  16.713  12.645 -0.0938  0.1095  0.1765
12984W        W32518  13.206   1.734   0.502  0.1403 -0.1376  0.1909
12985W        W32519  14.410   0.161   0.213 -0.1929  0.0475  0.2997
12986W        W32520  14.930  14.707   2.272  0.2585  0.1769  0.0229
12987W        W32521  13.926   6.512   4.085  0.1189  0.0341 -0.0392
12988W        W32522  14.209  16.830   2.766  0.2368  0.2685 -0.2397
12989W        W32523  15.645   6.129   0.073 -0.1701 -0.0612  0.4056
12990W        W32524   9.892   6.536   4.692  0.4349 -0.1503 -0.4793
12991W        W32525   5.996  15.050   3.003 -0.0095 -0.1407 -0.0241
12992W        W32526  14.094  12.151  10.937  0.0002  0.0211 -0.3871
12993W        W32527  14.992  17.914   1.368  0.0077 -0.1623 -0.0091
12994W        W32528  13.501   6.173   0.838 -0.4361 -0.1524 -0.2671
12995W        W32529  18.020   6.368   2.387  0.0337 -0.0495  0.0983
12996W        W32530   2.116  18.280  15.393  0.1823  0.1794  0.0707
12997W        W32531  14.853  14.057  11.493  0.0005 -0.0903 -0.2302
12998W        W32532   7.475   4.504   2.398  0.0784 -0.0859 -0.0218
12999W        W32533   8.102   6.835   3.079  0.2453  0.1191  0.1271
13000W        W32534   1.507   7.193   2.798  0.0638 -0.2413  0.1687
13001W        W32535   5.762  14.624   4.194  0.1288  0.1262  0.0387
13002W        W32536   8.334  10.539  11.714 -0.3039 -0.0782 -0.0363
13003W        W32537   4.364   2.488  12.345  0.0090 -0.0888  0.0014
13004W        W32538   0.033   5.291  14.814 -0.0645 -0.1355 -0.0035
13005W        W32539   3.799  16.528   0.754  0.2149 -0.0128 -0.1115
13006W        W32540   4.682   6.212   1.525  0.1527 -0.0535  0.0564
13007W        W32541   6.955  10.134  14.345 -0.1079  0.0097  0.1765
13008W        W32542  15.109  12.215   2.610 -0.0915  0.1187  0.0995
13009W        W32543   9.227   7.614   1.666  0.0663  0.1506  0.0866
13010W        W32544   5.613  15.439   1.507  0.2483 -0.1088  0.0539
13011W        W32545  10.601   4.312   6.032  0.4675 -0.0253 -0.0939
13012W        W32546   4.043   2.990   3.363  0.2440  0.0412  0.2768
13013W        W32547   3.726  10.792   2.048 -0.1280 -0.1659 -0.2261
13014W        W32548   9.279  12.456  15.714 -0.4069 -0.1982  0.1367
13015W        W32549  10.062   5.293   0.443 -0.1084  0.0985  0.0295
13016W        W32550  11.659  18.273   1.370 -0.3883 -0.2869  0.2050
13017W        W32551  17.759  11.772  12.313  0.0966 -0.1232  0.2086
13018W        W32552   8.217   8.021  12.538 -0.3592  0.0786  0.0771
13019W        W32553  10.910  17.700   2.335 -0.0752  0.1498  0.0935
13020W        W32554  11.594   7.013   2.706  0.0452  0.4143  0.0180
13021W        W32555   8.811   4.332   2.184  0.0223  0.1102 -0.2627
13022W        W32556   1.178  14.890   0.560  0.0914  0.1703 -0.1640
13023W        W32557  18.256   5.510  13.007 -0.0809 -0.3576  0.0546
13024W        W32558  12.557  14.154   2.910 -0.1769 -0.1739 -0.0502
13025W        W32559   4.900   0.815   2.225 -0.0718 -0.0261  0.0785
13026W        W32560  18.020   3.594   1.025 -0.2109 -0.1054 -0.0285
13027W        W32561  12.014   8.935   3.128 -0.0258  0.3173  0.1955
13028W        W32562   8.147   3.312   4.858  0.0721  0.0632  0.2241
13029W        W32563   7.757   3.848   1.184  0.0114 -0.2429  0.0213
13030W        W32564   9.833  17.238   0.179 -0.0892  0.0153  0.0509
13031W        W32565   3.826  15.353  11.597 -0.0487 -0.4449 -0.0408
13032W        W32566   9.122  12.559  15.189 -0.0440 -0.4260  0.0912
13033W        W32567  12.663  14.607  13.864  0.1603 -0.1215  0.2150
13034W        W32568   6.964   8.114   4.719  0.2143 -0.0099  0.3735
13035W        W32569   6.892  11.097  12.299  0.1797  0.0888  0.2971
13036W        W32570  13.354  15.567   2.969  0.0351 -0.0363  0.2297
13037W        W32571  13.968   1.361  15.008  0.0819  0.0586 -0.1263
13038W        W32572   9.351   2.670  11.506 -0.1449 -0.1074  0.2167
13039W        W32573  11.998   4.982  11.496  0.0887  0.1589  0.1214
13040W        W32574  12.386   2.875  14.980  0.0509  0.1447 -0.2174
13041W        W32575  13.350  17.273   4.665  0.1611  0.1462 -0.3253
13042W        W32576  16.846  18.078   0.810 -0.2472  0.2106 -0.2919
13043W        W32577  10.614  15.479   3.835  0.1512 -0.3168 -0.0113
13044W        W32578   9.752   3.163  12.414  0.2787 -0.3515  0.1081
13045W        W32579  11.126   2.644   5.307 -0.0694 -0.1393  0.0710
13046W        W32580   4.110   9.883  13.593  0.1793 -0.0952 -0.1828
13047W        W32581   3.170   8.524   0.214  0.0447 -0.0041 -0.4330
13048W        W32582   5.497  14.651   2.032 -0.1163  0.3428  0.3752
13049W        W32583  12.305   8.069   2.575  0.1980 -0.2126 -0.0081
13050W        W32584   0.700  18.080  11.523  0.0385 -0.0297 -0.1769
13051W        W32585   4.137   9.885  12.973 -0.3241 -0.0464  0.2229
13052W        W32586   2.308   3.661  15.584 -0.0476 -0.2827 -0.1178
13053W        W32587   0.533  17.398   2.830  0.1809 -0.2088 -0.2532
13054W        W32588   7.495  14.462   1.909  0.3116  0.2682  0.0912
13055W        W32589   8.974  16.955  13.873 -0.0723 -0.1629 -0.1019
13056W        W32590  13.378  11.338  11.858 -0.2455 -0.0858 -0.0790
13057W        W32591   4.619   5.866  15.046  0.0751  0.0532 -0.0163
13058W        W32592  11.086   1.345   0.754 -0.1735  0.0228 -0.0434
13059W        W32593   8.489  12.270   1.262 -0.1368  0.0923  0.0432
13060W        W32594  12.093  14.038   2.714 -0.1293 -0.0324  0.1763
13061W        W32595  10.989   4.129  12.933  0.1403  0.1347  0.0997
13062W        W32596  13.547   9.023   2.954 -0.0658  0.1118  0.0403
13063W        W32597   8.011  13.154  10.993  0.2827 -0.1617  0.0834
13064W        W32598  15.440   3.237  11.458  0.1306 -0.1733  0.2299
13065W        W32599  16.202   5.467   3.157  0.2230 -0.1594 -0.0847
13066W        W32600   4.190   4.389  14.742  0.1898  0.3176  0.4438
13067W        W32601   9.346   0.366  15.453 -0.0998 -0.2331  0.2961
13068W        W32602   0.784   4.710  13.852  0.0552 -0.2712 -0.4484
13069W        W32603   5.695   9.602   3.356  0.0248 -0.1863 -0.1854
13070W        W32604   7.968  14.792   4.416 -0.1035 -0.1541 -0.0962
13071W        W32605  12.792  17.269   4.688 -0.2374 -0.1113 -0.3424
13072W        W32606   4.357   7.497   3.840 -0.0136  0.1162  0.0734
13073W        W32607   8.793   4.979   2.470  0.0156  0.2775  0.0309
13074W        W32608   7.607   8.725  12.015 -0.0418 -0.4124  0.4167
13075W        W32609   9.224   2.990   4.421 -0.0656  0.0046 -0.1629
13076W        W32610  16.987  13.702  13.848 -0.2264 -0.1864 -0.1492
13077W        W32611  15.090   7.287  12.235  0.1348  0.1898  0.0702
13078W        W32612  14.555  14.662   1.423 -0.1325 -0.1580 -0.0954
13079W        W32613   2.378   2.567   0.696 -0.3155 -0.2830 -0.4014
13080W        W32614   8.063   6.498  15.205 -0.1649 -0.0430  0.1967
13081W        W32615  11.338   9.783   0.209  0.0020 -0.0228  0.0241
13082W        W32616   9.143   2.080   0.174 -0.1066 -0.2159  0.1315
13083W        W32617  12.526  16.625   1.838 -0.0383 -0.1232 -0.1290
13084W        W32618   1.875   2.589   2.065  0.0159 -0.3308  0.0848
13085W        W32619   7.542   4.322  10.943 -0.3248  0.1859 -0.0453
13086W        W32620  15.548  14.783  15.608  0.1764 -0.0372  0.1685
13087W        W32621  11.942   4.100  11.462 -0.0266  0.1955  0.1315
13088W        W32622  10.277  14.242   0.917  0.0306  0.0792  0.2461
13089W        W32623  15.110  12.754   2.522  0.4468 -0.0565 -0.2109
13090W        W32624  13.313   0.773   4.625  0.2311 -0.0120  0.1635
13091W        W32625   4.602   8.162   3.327 -0.2485 -0.1771  0.0826
13092W        W32626  15.621  15.393  15.647 -0.1644 -0.1030  0.1575
13093W        W32627  12.434  17.516   3.979  0.0841 -0.1437  0.2617
13094W        W32628  10.649   0.152  14.577  0.2227  0.0072  0.1081
13095W        W32629   2.745  10.014   3.806 -0.2542  0.3241  0.0666
13096W        W32630  13.592   3.328   2.863 -0.1025 -0.1211 -0.0333
13097W        W32631  17.917   2.371  14.607  0.0256 -0.3783  0.0252
13098W        W32632  15.406  12.449   2.942  0.4081 -0.2847 -0.1680
13099W        W32633  12.338   3.526   5.538 -0.0848  0.1208 -0.1835
13100W        W32634   6.409  12.544   1.310  0.0888  0.4641  0.0096
13101W        W32635   0.607  15.250  11.938 -0.2379  0.2762 -0.1686
13102W        W32636  17.903  10.728  14.193 -0.3742 -0.4226 -0.0565
13103W        W32637   8.413  17.977  13.965 -0.1013 -0.0450  0.1074
13104W        W32638   7.684  13.301  11.369 -0.2074 -0.0133  0.0562
13105W        W32639   7.713   7.521   2.066  0.0824  0.0026 -0.1966
13106W        W32640   7.339   8.959  15.673 -0.1305  0.1925 -0.1148
13107W        W32641  11.866   1.499  13.255 -0.0267 -0.1731 -0.0471
13108W        W32642  10.843  16.435  15.104 -0.0167  0.0540 -0.3270
13109W        W32643   1.892   6.653   1.549  0.1984  0.0587 -0.0111
13110W        W32644   4.365  13.844  12.263 -0.0588  0.1116  0.1009
13111W        W32645   3.498  13.506  15.007 -0.0678  0.3089 -0.0455
13112W        W32646   0.245   0.091   1.733  0.1960  0.0753 -0.3367
13113W        W32647   6.727   5.097  12.768  0.3916  0.2401 -0.1242
13114W        W32648  14.962  15.756   3.941 -0.0780  0.0263  0.0957
13115W        W32649   8.844   7.160  11.855 -0.2355 -0.3390  0.0693
13116W        W32650  11.598  18.219   3.334  0.0809  0.0571 -0.0402
13117W        W32651  14.139   4.837  15.335 -0.0595 -0.3880 -0.1679
13118W        W32652   9.681  15.538   0.652  0.0935 -0.0245  0.0623
13119W        W32653   4.316   0.938   0.443  0.1693 -0.0749  0.2133
13120W        W32654   9.854  14.276   0.204  0.1882  0.0599  0.1395
13121W        W32655   6.718   6.315  11.453 -0.1097  0.2453  0.1363
13122W        W32656   2.744   3.792  13.190 -0.1374  0.0143 -0.0727
13123W        W32657  10.348  15.270  12.836 -0.1687  0.1167 -0.0498
13124W        W32658  17.938  11.106   4.100 -0.0011  0.1054  0.0214
13125W        W32659  13.946  10.754  11.314 -0.1587 -0.0383 -0.4400
13126W        W32660   7.296   1.234  12.374  0.0070  0.0230  0.1263
13127W        W32661   8.128   1.110  13.888 -0.0292  0.0401 -0.0256
13128W        W32662   2.174   9.770   3.077 -0.0111  0.0688 -0.0458
13129W        W32663  11.312  14.284  15.202  0.0378 -0.4017 -0.0515
13130W        W32664   3.311  12.180  13.203  0.2279 -0.3827  0.1039
13131W        W32665   4.297  14.113  13.497 -0.1148  0.0197 -0.0253
13132W        W32666  11.878   6.559  12.573 -0.0827 -0.0102  0.3637
13133W        W32667   1.785   7.458  14.761  0.0282 -0.0465  0.1336
13134W        W32668   5.234  17.078   1.304 -0.1843  0.0914  0.0769
13135W        W32669   7.256   4.461  12.164  0.0456 -0.0042 -0.0356
13136W        W32670  14.995   6.619   3.210 -0.0040 -0.4054 -0.1933
13137W        W32671  11.508   1.284   2.979  0.2491 -0.0011  0.1847
13138W        W32672  13.955   0.494  11.784 -0.0860  0.2635 -0.1801
13139W        W32673  11.213  16.867   1.756  0.1393  0.0588  0.2265
13140W        W32674  18.213  15.595   1.534 -0.0165  0.0185  0.2377
13141W        W32675   0.731   7.747  11.905 -0.1319  0.2458  0.2914
13142W        W32676  12.158   3.291   1.033  0.0827  0.1471  0.0274
13143W        W32677   0.580  11.597  14.042  0.5626 -0.2055 -0.1083
13144W        W32678   2.752   9.502  15.111  0.1555 -0.1267 -0.1103
13145W        W32679   1.567   0.908   4.258 -0.1565  0.0535  0.1384
13146W        W32680  16.417   3.971  14.218 -0.0926 -0.2157  0.0478
13147W        W32681   9.518  17.422   3.741  0.0740 -0.0447  0.2026
13148W        W32682   3.628   6.308  14.581 -0.2146  0.0307  0.1602
13149W        W32683   0.435  16.019   2.615  0.1918 -0.1550 -0.0847
13150W        W32684   1.276   2.484  13.550  0.0202  0.0063  0.0769
13151W        W32685   0.123   1.835  12.342 -0.0954 -0.0886  0.3844
13152W        W32686  10.310  13.788   4.795  0.0400  0.0668  0.1554
13153W        W32687   2.181  10.932   1.402  0.0643 -0.0419  0.2094
13154W        W32688  13.848   0.103  15.343  0.4335 -0.0420  0.1630
13155W        W32689   2.938  16.310   4.961 -0.1510 -0.2171  0.3260
13156W        W32690  11.826  10.630  13.846 -0.2076  0.2588 -0.1499
13157W        W32691  11.464   2.303   1.174 -0.0528  0.1359  0.0552
13158W        W32692   1.765  17.876   2.845  0.0919 -0.1572  0.0543
13159W        W32693  17.039  15.181  12.704  0.0017 -0.2536 -0.3979
13160W        W32694   6.501  13.407   3.226  0.0246  0.1924  0.1196
13161W        W32695  17.741   0.642  13.642 -0.0336  0.0634 -0.1007
13162W        W32696  13.497   8.761   3.440  0.0800 -0.1083 -0.0303
13163W        W32697  15.944  12.177  11.141  0.0763  0.0148  0.0331
13164W        W32698   6.596  10.903  11.952 -0.1256  0.0362  0.0247
13165W        W32699  16.415  12.123   3.141 -0.1551  0.2215 -0.1258
13166W        W32700   2.255   9.372   1.372  0.1392 -0.2748  0.0921
13167W        W32701  10.344  10.726   2.753  0.0032 -0.4894 -0.3391
13168W        W32702  15.729   6.525   3.960 -0.1631 -0.4107  0.0503
13169W        W32703   2.724   3.952  11.426 -0.1050 -0.1664 -0.1431
13170W        W32704  17.718   7.666   2.070  0.0899  0.0193 -0.1592
13171W        W32705  11.653  10.105   3.831  0.1954  0.2163 -0.3161
13172W        W32706   6.653   3.043  12.104 -0.0659 -0.0197 -0.0604
13173W        W32707   4.142   1.704  11.272  0.2343  0.0238  0.2877
13174W        W32708  12.662  13.912  14.340 -0.0188  0.0205 -0.2864
13175W        W32709   3.611   0.651  13.263  0.1975  0.1647 -0.2176
13176W        W32710  16.532   7.604  12.985  0.0205 -0.0054  0.3926
13177W        W32711  12.910   3.467   2.285  0.1686 -0.0664 -0.1633
13178W        W32712  10.177  15.669   2.117  0.2758 -0.3378  0.2051
13179W        W32713   7.070  14.878   4.320  0.0115 -0.0095  0.3014
13180W        W32714  13.849   6.546   0.870  0.1463 -0.2863  0.2225
13181W        W32715   7.135  10.026  13.129  0.0377  0.1327  0.0077
13182W        W32716  17.350   3.910   4.057  0.1308  0.1854 -0.2937
13183W        W32717  17.325   3.292   1.792 -0.4410 -0.1541  0.2310
13184W        W32718   3.140   5.372  15.168  0.2766 -0.1043 -0.1445
13185W        W32719   2.818  14.583  11.647 -0.0069  0.1680  0.2558
13186W        W32720   6.323  10.991   1.777 -0.0021  0.1123 -0.1846
13187W        W32721   7.230  12.569  11.933 -0.0816  0.2033 -0.0968
13188W        W32722   1.971  11.790  11.500 -0.2113  0.3827 -0.2584
13189W        W32723   5.030   5.695  11.856 -0.4245  0.0452 -0.1327
13190W        W32724   3.190   5.671   1.621  0.1637 -0.0943 -0.3262
13191W        W32725   8.930   9.664   3.315 -0.0378 -0.1088  0.1289
13192W        W32726  14.735  10.690  14.485 -0.0081  0.0620 -0.0047
13193W        W32727   7.654  18.178   3.768 -0.2213 -0.2907 -0.4782
13194W        W32728  11.259   6.086   1.698  0.3080  0.3037 -0.1198
13195W        W32729   9.723   5.087  12.262 -0.1696 -0.0052 -0.0895
13196W        W32730   4.728   0.310  13.901 -0.1400  0.1633 -0.0682
13197W        W32731  16.459   5.717   0.770  0.0574  0.0459 -0.0156
13198W        W32732   5.509  13.137  11.846 -0.2206 -0.1618  0.1188
13199W        W32733   4.387   7.383  14.245 -0.1279 -0.2343  0.1719
13200W        W32734  11.235  13.608  14.965  0.1887  0.2062  0.1287
13201W        W32735  11.571   7.798   4.616 -0.1559 -0.0188  0.2801
13202W        W32736  14.826   5.591  13.860 -0.0234  0.0479  0.1192
13203W        W32737   1.273   9.524  11.179 -0.0681  0.1632  0.0598
13204W        W32738  17.968   3.949  10.986  0.1276  0.0845 -0.3681
13205W        W32739   9.661  15.927   2.667 -0.0876 -0.1360 -0.2207
13206W        W32740  14.287  10.116   3.651 -0.0878  0.1437  0.0250
13207W        W32741   2.286  16.526   2.430 -0.1109 -0.1895 -0.1794
13208W        W32742  14.651   9.612  12.018  0.2079 -0.1269 -0.3657
13209W        W32743  10.940   4.766   3.829  0.2131  0.1087  0.2746
13210W        W32744  14.930  17.993   2.494 -0.0382 -0.0626 -0.1855
13211W        W32745  17.146  15.556   3.158 -0.3855  0.1198  0.0994
13212W        W32746  15.091   4.526  11.205 -0.0552 -0.1538 -0.0872
13213W        W32747  13.769  11.654  14.497 -0.1518  0.1550  0.1403
13214W        W32748  17.205   4.421   2.531  0.0632 -0.2669 -0.0080
13215W        W32749  11.438  11.859  12.733  0.1075  0.3082  0.3197
13216W        W32750  11.606  10.151   1.771  0.1738 -0.2329 -0.3675
13217W        W32751  10.912   2.460  11.582  0.1674  0.2026  0.1607
13218W        W32752   8.126   7.760   1.819 -0.1197 -0.0842  0.2351
13219W        W32753   1.730  14.298  13.141 -0.0704  0.0460  0.0888
13220W        W32754  10.106   5.940   4.409  0.1790  0.0822  0.1274
13221W        W32755   4.909   3.085   2.327  0.5314 -0.0462  0.2200
13222W        W32756  16.373  18.230   3.194  0.3098  0.1085  0.0784
13223W        W32757   9.393  18.265   3.532 -0.1208  0.2411  0.4312
13224W        W32758  12.966   3.086   1.772 -0.0728 -0.0458 -0.0898
13225W        W32759  10.995  12.503  12.112  0.0975  0.0554  0.1341
13226W        W32760   5.500   5.816  11.802 -0.2202  0.0479 -0.1960
13227W        W32761  17.333   4.168  13.202  0.4943 -0.4200 -0.4604
13228W        W32762   6.374   2.015   2.197  0.1337 -0.0177 -0.0206
13229W        W32763   5.792  13.345   4.348 -0.1867  0.1204  0.0759
13230W        W32764   4.480  14.244   3.919 -0.1724  0.1384 -0.2801
13231W        W32765  16.317  14.368  14.479 -0.1141  0.2325  0.0084
13232W        W32766   1.977  18.046  11.349  0.0313 -0.0577  0.0698
13233W        W32767  11.669  14.330   4.118 -0.2350  0.0755 -0.0898
13234W        W32768  17.177   8.324  11.998 -0.1372  0.0992 -0.1490
13235W        W32769   4.414   2.502   1.615  0.0900  0.0697 -0.0991
13236W        W32770   0.863   0.961   3.016  0.2045 -0.0763 -0.0877
13237W        W32771  18.060   7.483  15.122  0.0016 -0.2305  0.0404
13238W        W32772  12.246  11.584  11.000  0.2717 -0.1802 -0.0002
13239W        W32773   2.566  15.285  11.872 -0.0473  0.2261 -0.1695
13240W        W32774  11.183   0.100  12.846  0.0506 -0.3836 -0.0811
13241W        W32775  10.105  15.499  14.386  0.1075  0.0472  0.0812
13242W        W32776  11.045  17.995  14.094  0.0853 -0.0121 -0.1755
13243W        W32777  10.443  14.220  12.967 -0.1456 -0.0586 -0.0708
13244W        W32778   6.195   2.509   4.295 -0.3131  0.0637 -0.2304
13245W        W32779  14.308   0.546   4.499  0.1497 -0.0252  0.0723
13246W        W32780   7.326   4.710  14.163 -0.1868  0.1615  0.0705
13247W        W32781   8.012  11.925  11.944  0.2115 -0.1271 -0.0328
13248W        W32782  10.396   3.513  11.821  0.2494 -0.0854  0.1738
13249W        W32783  13.728  13.698   0.342 -0.0511  0.1054  0.0310
13250W        W32784   2.248   3.944   1.933  0.0798 -0.1645  0.1233
13251W        W32785  15.147   7.207   3.621  0.0638 -0.2610 -0.2186
13252W        W32786   6.973   4.411  11.213  0.3769  0.0442 -0.0131
13253W        W32787  11.235   7.330   0.769  0.2770  0.0208 -0.0222
13254W        W32788   3.692  16.546  11.953  0.0836  0.2036  0.1042
13255W        W32789  11.685  14.903   2.975  0.3477 -0.0484 -0.1179
13256W        W32790   8.401   0.923   0.481  0.4230  0.1265 -0.1785
13257W        W32791  15.967  11.979   3.013  0.0003  0.1947  0.0112
13258W        W32792   7.114  17.480  14.374 -0.2218 -0.0501 -0.0613
13259W        W32793   9.162   8.225  11.872  0.0571 -0.2201  0.0065
13260W        W32794   5.478  12.036  13.994 -0.2469 -0.2291  0.1060
13261W        W32795   2.542  11.895  12.193  0.3149 -0.0983 -0.1429
13262W        W32796   5.527  16.670   1.091  0.0888 -0.1731  0.3218
13263W        W32797  14.225   5.520  15.719 -0.2502  0.1382 -0.0922
13264W        W32798   4.187  10.171   1.524  0.0200 -0.1476 -0.1037
13265W        W32799  14.206   3.103  15.121  0.0805  0.0483 -0.3100
13266W        W32800   4.289  17.771  12.078 -0.1308  0.0958 -0.1676
13267W        W32801  12.018   1.530  14.461 -0.1767  0.2630  0.2346
13268W        W32802   4.331  17.377   2.942 -0.3400  0.0784  0.2216
13269W        W32803  17.304   1.384   2.042  0.3611 -0.3358 -0.0700
13270W        W32804  15.157  10.368   4.170  0.2322 -0.0059  0.1620
13271W        W32805   2.364  10.195  14.409 -0.2460 -0.0096  0.1301
13272W        W32806   8.648   1.527   1.735  0.1106  0.3630 -0.0423
13273W        W32807   0.198  12.531   2.674 -0.0272  0.2821 -0.3520
13274W        W32808  14.547  14.006   3.531 -0.2587 -0.1329 -0.0663
13275W        W32809  14.123   1.340   2.293  0.0439 -0.3749 -0.0605
13276W        W32810   2.838  14.431   1.582 -0.4779 -0.1009  0.0905
13277W        W32811  12.255  10.061  11.399 -0.1071  0.0446 -0.0837
13278W        W32812  16.695   2.160   1.171 -0.0468  0.0051 -0.4270
13279W        W32813   7.210   5.019  12.799 -0.1628  0.1370 -0.0518
13280W        W32814   5.827  12.459   1.276 -0.1697  0.0615  0.2520
13281W        W32815   0.941   3.788  11.742  0.2581  0.2431 -0.0226
13282W        W32816  13.569   2.502  11.717  0.3966  0.1727 -0.1236
13283W        W32817  16.559   3.409  15.147 -0.1481 -0.0427  0.0551
13284W        W32818  10.177  17.994   1.563 -0.3779  0.0208 -0.1786
13285W        W32819  17.846   5.048  14.021  0.3389 -0.0596 -0.2051
13286W        W32820  17.502  18.264   0.677 -0.0397  0.1247  0.1279
13287W        W32821  15.076   9.015   4.119 -0.1235 -0.0192  0.0835
13288W        W32822   8.007  15.175   0.262 -0.0896  0.0698  0.0204
13289W        W32823  17.618   2.877   0.578  0.1064  0.0263 -0.0212
13290W        W32824  10.854  14.267  14.873 -0.0838  0.0086  0.0169
13291W        W32825  13.103   1.282  12.821  0.0892 -0.1826 -0.0437
13292W        W32826   9.937   7.078  15.381 -0.3196 -0.1403  0.1724
13293W        W32827  11.195   2.818   2.300 -0.2045  0.0906  0.0292
13294W        W32828  12.506   6.185   3.299  0.0037 -0.0450  0.0172
13295W        W32829   2.342   4.504   1.235  0.2144  0.0617  0.1847
13296W        W32830   1.747   9.416  12.585  0.1639  0.1624  0.2187
13297W        W32831   9.198  17.108   1.563 -0.1295 -0.2349 -0.2377
13298W        W32832  16.907  12.411  14.439 -0.1874  0.1305  0.1184
13299W        W32833   3.555   4.262  15.676 -0.2452 -0.0337  0.4434
13300W        W32834   6.022  14.512  11.653 -0.1294  0.2284  0.1588
13301W        W32835   7.016  12.307   2.789  0.2523  0.0588  0.1592
13302W        W32836  12.888   2.712   2.823  0.0580 -0.4708 -0.1482
13303W        W32837   6.140   3.508   2.691  0.3455 -0.3708 -0.1655
13304W        W32838  12.747  15.695   1.533  0.1095 -0.1209  0.2798
13305W        W32839  12.180   4.117  11.994 -0.1675 -0.2114  0.0066
13306W        W32840   5.367   7.607   2.276 -0.1543  0.3878  0.2001
13307W        W32841  15.990   7.057   1.794 -0.1206  0.0989  0.2901
13308W        W32842   3.748   0.995  11.174  0.2529 -0.0145  0.1999
13309W        W32843   0.685   1.244   0.648  0.0052  0.3770 -0.1143
13310W        W32844  13.185  17.463  14.090 -0.0601 -0.1945  0.0923
13311W        W32845   2.199   5.944   2.099 -0.1793  0.1205  0.0010
13312W        W32846   5.050   7.835  13.691 -0.3017 -0.1788 -0.1030
13313W        W32847  10.482  12.562   3.566 -0.1357  0.1037 -0.2678
13314W        W32848  17.103   9.426  14.240 -0.0650  0.2395 -0.0207
13315W        W32849   6.854  12.226   1.962  0.1521  0.0883 -0.0728
13316W        W32850  17.262  13.832  15.194 -0.2691 -0.2293 -0.0894
13317W        W32851  13.512   0.979  13.350  0.1300 -0.1742 -0.2337
13318W        W32852   9.755   7.434   1.486  0.0669  0.1622  0.2765
13319W        W32853   8.561   3.553   5.658  0.0885  0.0548  0.1566
13320W        W32854  12.362   6.986   3.103 -0.1835 -0.2216  0.0375
13321W        W32855   4.370  13.354   2.796 -0.0855  0.1715 -0.1903
13322W        W32856   8.626   7.112   0.542 -0.1768 -0.0332  0.0996
13323W        W32857   8.068   8.863  15.102  0.0104  0.0625 -0.2943
13324W        W32858  12.826   6.597  11.245 -0.1149  0.1302  0.1774
13325W        W32859  17.055  12.738   3.352 -0.1911 -0.4639 -0.0237
13326W        W32860   4.694  10.988  11.097  0.2468 -0.0452 -0.0753
13327W        W32861  11.523   7.636   2.387  0.0837  0.3342 -0.1074
13328W        W32862  13.707  16.981   1.216  0.2625  0.2463  0.3104
13329W        W32863   0.546   4.906   2.337 -0.1377 -0.3361 -0.2139
13330W        W32864   8.046   6.526  12.045 -0.3181  0.0317  0.1148
13331W        W32865  12.270   4.994   3.204  0.0271 -0.0282  0.0221
13332W        W32866  13.206  16.916  13.671 -0.5215  0.0116  0.0324
13333W        W32867  11.135   1.050  13.634  0.2027  0.2643  0.0908
13334W        W32868  14.363   0.468  12.898 -0.3552 -0.2460 -0.2952
13335W        W32869   4.567   4.703  13.721 -0.2089 -0.2019  0.0905
13336W        W32870  14.298   2.466   0.925  0.2031 -0.0795 -0.0469
13337W        W32871   4.206  11.602  12.786  0.2986 -0.2782 -0.1142
13338W        W32872   8.780   6.850   1.809  0.0337  0.0356  0.0096
13339W        W32873  10.332   6.586   1.373  0.4856  0.0022  0.0438
13340W        W32874   6.461  14.530   5.990 -0.0535  0.2939  0.1781
13341W        W32875  17.675  14.318  13.365  0.1598 -0.3126  0.1743
13342W        W32876  15.088   0.395  13.734  0.1750  0.0672 -0.0475
13343W        W32877   2.515   1.444   3.072 -0.1717  0.3960  0.1503
13344W        W32878   8.368   4.846   2.670 -0.0742  0.0814 -0.0003
13345W        W32879  17.068   8.609   2.851  0.0316 -0.1326  0.1732
13346W        W32880  10.597   7.553  13.118 -0.1256 -0.0877 -0.2164
13347W        W32881  13.787   6.320   3.657 -0.0443 -0.1344  0.6605
13348W        W32882  16.301  12.431  14.488 -0.1721 -0.0376 -0.1511
13349W        W32883   6.559   6.305  12.150 -0.0879 -0.0010 -0.0301
13350W        W32884  16.017   2.381   3.150 -0.3813 -0.2853 -0.3962
13351W        W32885  11.909   4.812   1.887 -0.0119 -0.1488  0.1640
13352W        W32886   3.040  16.258   2.670 -0.5498 -0.0860  0.0672
13353W        W32887   9.003  18.301   3.850  0.2029  0.1168 -0.1639
13354W        W32888   7.082  12.159   0.597 -0.0022 -0.2894 -0.1918
13355W        W32889   8.426   5.625  14.742 -0.0014  0.1661  0.1059
13356W        W32890  13.193   1.579   4.128  0.1268 -0.2841  0.0730
13357W        W32891  14.770  13.967   0.543 -0.0013 -0.1423  0.1689
13358W        W32892   9.438  17.210   3.312  0.0475 -0.0007 -0.0903
13359W        W32893   3.933  10.761  12.597  0.0558 -0.1287  0.0820
13360W        W32894  11.904  13.498  13.350  0.1912  0.1989  0.2522
13361W        W32895   7.620  12.660  15.379  0.2262  0.0331  0.1009
13362W        W32896  17.519   2.951  13.403  0.0356  0.0333 -0.0175
13363W        W32897   5.752  17.436  13.216  0.2443  0.1702 -0.0634
13364W        W32898   9.213   7.590   3.252  0.1603  0.2111  0.4489
13365W        W32899  14.314   4.409  15.227 -0.1302 -0.0222 -0.0356
13366W        W32900   8.819  12.993  15.099 -0.1268 -0.1116 -0.3230
13367W        W32901   8.977   6.383   3.896 -0.0747 -0.2162  0.1750
13368W        W32902   3.576  16.999  12.766  0.1627  0.0598  0.0597
13369W        W32903   0.977  12.092   2.787 -0.0955  0.5050 -0.0164
13370W        W32904  10.172   1.512   1.752  0.0417  0.1352 -0.3130
13371W        W32905   9.018  15.149   1.789  0.1155 -0.1899  0.1129
13372W        W32906   2.638  11.704   1.831 -0.2201  0.1949  0.1544
13373W        W32907  16.087   8.183   3.555  0.1866  0.3849  0.0926
13374W        W32908   1.397  13.857   0.034 -0.2312  0.1265 -0.0196
13375W        W32909   3.157  10.597  14.705 -0.1034  0.0902 -0.1182
13376W        W32910  16.512   5.488  15.196  0.0966 -0.1716 -0.0380
13377W        W32911  11.634   9.478  15.793  0.1477 -0.2555  0.1150
13378W        W32912   4.081  13.531   3.191 -0.2689 -0.0382 -0.1099
13379W        W32913   0.877   2.946  11.199  0.3520  0.1222  0.0506
13380W        W32914   3.323   8.127   1.940  0.0445  0.0860 -0.0122
13381W        W32915  14.489   3.747   2.820  0.1480 -0.3916  0.1562
13382W        W32916   5.145   6.500   0.585  0.2206 -0.1673 -0.0197
13383W        W32917  13.684  17.192  14.559  0.1007 -0.0448  0.0274
13384W        W32918   3.665   2.210  14.324 -0.1379  0.0929 -0.0976
13385W        W32919   2.342  17.292   1.738  0.1295  0.0911 -0.0386
13386W        W32920  15.479  15.482  14.000  0.0662 -0.2374 -0.0677
13387W        W32921  14.650   0.859   0.145 -0.0383 -0.1875 -0.1502
13388W        W32922  17.577  13.823  15.605 -0.1650 -0.0779 -0.0986
13389W        W32923   3.556  17.782  15.747 -0.1719  0.0465 -0.0790
13390W        W32924   8.019   7.183   1.158  0.2258 -0.2241  0.1681
13391W        W32925   5.972   1.400  14.083  0.0451  0.1463 -0.0830
13392W        W32926  12.870  10.358  15.271 -0.0225 -0.2578  0.2661
13393W        W32927   3.610  16.402  10.644  0.0598 -0.0832 -0.1204
13394W        W32928  11.750  14.576   0.067  0.0407 -0.1480  0.2387
13395W        W32929   6.804  13.120   4.561 -0.0048  0.1165  0.2330
13396W        W32930  12.752  14.960   2.444 -0.1266  0.1189  0.0516
13397W        W32931   9.777  16.134  12.401 -0.2402  0.1597  0.0456
13398W        W32932   4.707   2.471   1.181  0.1113  0.0330  0.1790
13399W        W32933  15.266   7.919  13.591  0.3748 -0.0610  0.0889
13400W        W32934   6.627   3.625   3.073 -0.2989 -0.1630 -0.0720
13401W        W32935   2.015   3.463   0.290 -0.0563 -0.1360 -0.0824
13402W        W32936   0.277  16.189  13.828 -0.2218  0.1216 -0.0328
13403W        W32937   2.134  11.577  12.245  0.4195 -0.3147 -0.1295
13404W        W32938  12.231   1.286  12.870 -0.1771 -0.0012 -0.0323
13405W        W32939  15.333  17.590   4.409 -0.2337  0.0639 -0.0262
13406W        W32940  15.614  15.427   5.389 -0.0144 -0.1890 -0.2104
13407W        W32941  15.964  18.320  14.198 -0.1093  0.0879 -0.1205
13408W        W32942   8.501   5.772  13.824  0.2185 -0.3396 -0.0606
13409W        W32943   0.049  12.196   1.865  0.1543  0.0589 -0.1202
13410W        W32944  13.755   2.374   1.095 -0.0855 -0.2283 -0.0121
13411W        W32945   2.060   6.621  11.758 -0.1315  0.0929  0.0277
13412W        W32946  12.992   1.363   0.144 -0.1242 -0.1878  0.1911
13413W        W32947   4.689   9.140   2.367  0.2443 -0.2361  0.3151
13414W        W32948  15.178  11.478  15.555  0.1011 -0.2873 -0.0848
13415W        W32949  13.238  12.674  15.099 -0.2114 -0.2544 -0.2340
13416W        W32950   1.957   2.309   1.363  0.2169  0.0107 -0.0956
13417W        W32951   4.656   1.322   2.052 -0.2117  0.4524 -0.1294
13418W        W32952  14.071   4.451   4.099  0.1320  0.1189 -0.1053
13419W        W32953  16.081  16.043   1.073 -0.0305  0.1045 -0.0621
13420W        W32954   5.181  12.506  12.208  0.0712 -0.1936 -0.0757
13421W        W32955   7.535  16.765  15.392 -0.0152 -0.1821  0.0887
13422W        W32956  12.530  12.240  12.101  0.1640 -0.0890 -0.0912
13423W        W32957  10.843  13.202  14.956 -0.1701  0.1068  0.0434
13424W        W32958   1.658  17.710  14.451 -0.1766 -0.2137  0.2966
13425W        W32959   8.651   7.304   4.321 -0.1066 -0.3440  0.1233
13426W        W32960   2.192  13.952   1.381 -0.3293  0.0533  0.1311
13427W        W32961   5.914  11.734   0.932  0.0281 -0.2686 -0.0128
13428W        W32962  16.666  17.796  11.875  0.0120 -0.2788  0.2744
13429W        W32963   7.654  12.633  13.165  0.1646  0.0501 -0.3294
13430W        W32964   2.659  15.401  13.051 -0.1985 -0.0893 -0.1171
13431W        W32965  16.238   9.274  12.037  0.0486  0.1372 -0.0253
13432W        W32966   7.704  10.575   0.722 -0.1497 -0.2193 -0.3175
13433W        W32967  12.882   2.730  15.796 -0.4610  0.0331  0.0573
13434W        W32968   0.819   1.546  14.491 -0.1492 -0.0302 -0.0464
13435W        W32969  13.219  14.679  14.076  0.1314 -0.1473 -0.1726
13436W        W32970  12.574  12.814  15.089 -0.1124  0.0826  0.2325
13437W        W32971  13.519   9.983   0.417  0.0803  0.1871  0.1344
13438W        W32972   2.474   3.645  11.078  0.3181  0.0634 -0.1313
13439W        W32973   9.278  11.758  11.498 -0.0902  0.0099 -0.1845
13440W        W32974   7.660   1.232   2.234 -0.0958  0.3057 -0.0390
13441W        W32975  13.365  17.319  11.870  0.0474 -0.1215 -0.2251
13442W        W32976   2.570   8.176  12.377  0.2922  0.0922 -0.2059
13443W        W32977   5.679  13.670   2.184 -0.0545 -0.0929 -0.2084
13444W        W32978   5.319   2.527  15.816  0.1537 -0.2257 -0.1192
13445W        W32979   4.744   7.454  15.802  0.1590 -0.0454 -0.1458
13446W        W32980  14.487  18.399  15.520 -0.1205  0.1354  0.4004
13447W        W32981  16.180   6.306   3.823 -0.2063 -0.1603  0.1010
13448W        W32982  12.097  18.243   3.461  0.0275  0.1598  0.0993
13449W        W32983  15.700   2.589  15.074  0.0396 -0.0309 -0.1666
13450W        W32984   9.301   6.935   2.187  0.0213  0.1448  0.0996
13451W        W32985   9.214  17.544  13.725 -0.1562 -0.3593 -0.2339
13452W        W32986  10.746   8.713  14.185  0.0227 -0.0467 -0.0690
13453W        W32987   5.563  17.614   4.145  0.1145  0.0838 -0.0623
13454W        W32988   2.997   2.522   3.052 -0.1734  0.1806 -0.0066
13455W        W32989  17.281  12.608   0.009 -0.1447  0.0220 -0.0023
13456W        W32990   3.343   2.506   1.870  0.0358 -0.3863  0.0225
13457W        W32991   0.343   8.873  14.357 -0.0482  0.0077 -0.1192
13458W        W32992   2.957   9.187   3.567  0.0688  0.0790 -0.1111
13459W        W32993   4.727  10.668  15.569  0.3069  0.0231 -0.2810
13460W        W32994   3.858   1.007   0.751 -0.2544  0.0451 -0.2241
13461W        W32995   4.123  16.857   0.931  0.0562 -0.0130  0.2333
13462W        W32996  12.809  15.870   0.946 -0.2022 -0.0982  0.1123
13463W        W32997   2.834   9.635  14.475  0.1652 -0.2443  0.3550
13464W        W32998  14.697  10.130  12.155  0.1384  0.2214  0.1708
13465W        W32999   1.615  17.334  12.937  0.0984  0.3981  0.4468
13466W        W33000   1.721   7.186  13.147  0.1021  0.1368  0.0944
13467W        W33001   8.350  17.535   4.079  0.0932 -0.0982 -0.2554
13468W        W33002  10.435   6.913  13.984  0.1524  0.1946  0.2463
13469W        W33003  17.356   6.200  11.192 -0.1652  0.2441 -0.2044
13470W        W33004   6.590   0.228  11.427  0.3839  0.2855  0.0616
13471W        W33005   8.619  17.816  14.408 -0.0470 -0.0786 -0.0419
13472W        W33006   3.007  17.756  12.023  0.0204  0.0206 -0.2156
13473W        W33007   0.610   0.947   2.494  0.0372 -0.0690 -0.0852
13474W        W33008   3.542   1.691   0.173 -0.1082 -0.0365 -0.0912
13475W        W33009  12.176   8.284  11.395 -0.1959  0.2494 -0.0434
13476W        W33010  15.562  10.072   0.686  0.0976  0.1633  0.0503
13477W        W33011   4.265  15.920  12.819  0.4545  0.0745 -0.1751
13478W        W33012   1.892   0.950  13.235  0.2041  0.2285  0.1127
13479W        W33013  10.307   5.974  13.248  0.0224 -0.1633  0.0884
13480W        W33014   2.905  15.371   2.563  0.0527  0.1474 -0.0595
13481W        W33015  14.432  14.267   3.049 -0.2487 -0.0543 -0.1114
13482W        W33016   0.221  15.656   1.851 -0.0472 -0.3733  0.2739
13483W        W33017  10.720   4.475   2.472 -0.0319  0.3060  0.2883
13484W        W33018   1.837  12.162   4.516  0.1885  0.0900 -0.2005
13485W        W33019  11.283   5.469   1.406 -0.2528  0.1053 -0.2528
13486W        W33020   2.370   2.095  12.579  0.0310 -0.1006  0.1346
13487W        W33021  18.026  11.924   0.065  0.1462 -0.3302 -0.0945
13488W        W33022   1.598  13.560  12.637  0.0922 -0.0710 -0.2210
13489W        W33023   8.494  17.417   1.393 -0.0982  0.0788  0.2755
13490W        W33024   8.919  16.629   5.118  0.4396 -0.0476  0.0221
13491W        W33025   1.776   0.804   2.800 -0.1742  0.0764  0.0262
13492W        W33026   5.658   3.824   4.368 -0.0277  0.2325 -0.0348
13493W        W33027  10.098   5.426   4.556  0.1449 -0.0726 -0.0808
13494W        W33028  14.114  12.312  15.140  0.1490 -0.2816  0.1047
13495W        W33029  13.502  12.903  13.790 -0.0977 -0.0524  0.1330
13496W        W33030  11.069  13.537   1.454  0.1554  0.2150 -0.0027
13497W        W33031  10.371   4.465  12.139  0.4483 -0.1531  0.0248
13498W        W33032   3.809   5.338  11.363 -0.1920  0.2151  0.1747
13499W        W33033  15.746  11.793  13.749 -0.0485 -0.0612  0.0689
13500W        W33034  15.700   5.418   2.250  0.0974 -0.0330  0.1329
13501W        W33035   4.334  14.698  13.504  0.1988  0.1230 -0.0878
13502W        W33036  13.902   0.029   0.904  0.2267 -0.3428 -0.1987
13503W        W33037   3.980  11.136  12.169 -0.5276  0.1117 -0.1423
13504W        W33038   1.960   1.815  12.370  0.5038 -0.0275  0.1569
13505W        W33039   6.798   5.406  15.263 -0.0144  0.0718  0.1412
13506W        W33040   3.978  13.510  11.411 -0.3506 -0.2185  0.0219
13507W        W33041  17.287   5.316  11.831  0.0094 -0.3524  0.0637
13508W        W33042   8.151   0.084  12.228 -0.1786  0.1340 -0.1850
13509W        W33043   7.165   7.069   0.969  0.0624 -0.2297  0.1291
13510W        W33044   2.513  10.188   2.655  0.0285 -0.1251  0.0579
13511W        W33045   0.939   0.702  14.243 -0.2311 -0.1283  0.0206
13512W        W33046  13.126   9.820   0.779  0.2017  0.0370  0.3143
13513W        W33047  16.313   1.490   3.582 -0.1048 -0.2296 -0.1361
13514W        W33048   5.787   1.531  11.411 -0.0469 -0.1457 -0.0663
13515W        W33049   0.847  11.096   3.605 -0.0089 -0.0290  0.2697
13516W        W33050   1.498   7.683   4.455 -0.2520 -0.0138  0.2533
13517W        W33051  17.154   3.808   1.815 -0.0958  0.2756  0.4138
13518W        W33052   3.800   8.729  14.693 -0.0707  0.0755 -0.0717
13519W        W33053   9.668  18.270  13.354  0.0988 -0.0059 -0.2170
13520W        W33054   0.869   3.546   0.416  0.1186 -0.1300  0.1805
13521W        W33055   7.451  16.241  14.445 -0.1290 -0.0196 -0.1582
13522W        W33056   4.050   8.471   1.782  0.2505 -0.1710  0.0751
13523W        W33057  13.602   5.599   2.190 -0.0886  0.0211 -0.1751
13524W        W33058   3.997   9.260   2.826  0.0003 -0.1276 -0.4937
13525W        W33059  10.998  18.352   5.012  0.4102  0.2659 -0.0506
13526W        W33060   6.731   5.051  14.063 -0.0199 -0.0350  0.1885
13527W        W33061   4.843   5.019  14.051 -0.1937 -0.1334  0.0486
13528W        W33062  12.871   8.719   4.083 -0.2650 -0.0548  0.1402
13529W        W33063   4.975  18.248  13.891 -0.1554  0.0569 -0.3925
13530W        W33064  17.457   4.472   4.269 -0.3084  0.1965  0.1163
13531W        W33065   6.678   1.312   3.079  0.0387 -0.2396 -0.0621
13532W        W33066   0.741   2.247  11.155  0.0389  0.0386 -0.0104
13533W        W33067   1.113   4.166   3.181 -0.0078 -0.0071  0.0825
13534W        W33068   0.507  16.327  14.281  0.0216  0.0437  0.0489
13535W        W33069   3.396   0.742   0.947  0.4697  0.0439  0.0791
13536W        W33070  13.014  11.673  11.673 -0.0843 -0.0123  0.0088
13537W        W33071   2.606  10.332   0.494  0.2354  0.0474 -0.1933
13538W        W33072  14.808   9.450  10.944 -0.0739  0.4903 -0.2004
13539W        W33073   0.247  13.957   2.125  0.1956  0.3440  0.1918
13540W        W33074  13.289  13.171  14.136 -0.0558  0.3457  0.1029
13541W        W33075   8.352   2.111   0.417  0.2974  0.0803  0.0732
13542W        W33076   4.752  16.950  15.379  0.1424 -0.1776  0.1222
13543W        W33077  12.032  12.247   5.588  0.0862  0.1392 -0.0785
13544W        W33078   0.196   6.315  12.831 -0.0878  0.0555  0.0692
13545W        W33079   5.390  17.858  13.032 -0.3156 -0.2529  0.4099
13546W        W33080  16.941   9.897   4.335 -0.0262  0.0865 -0.0039
13547W        W33081   7.358  17.066   5.216  0.0779  0.2005 -0.0674
13548W        W33082   4.586  16.607   3.353 -0.1156 -0.1018  0.0448
13549W        W33083  12.601  16.152   0.516 -0.0391  0.3536  0.3849
13550W        W33084  11.414   8.949  12.506  0.0512 -0.3315 -0.0197
13551W        W33085  17.712  17.352  12.750  0.2031  0.3131 -0.1370
13552W        W33086   4.335   8.271  12.212  0.2303  0.2199 -0.0142
13553W        W33087   2.866   5.337   2.964 -0.2641  0.1844  0.0702
13554W        W33088   8.846  12.992   2.831 -0.0232 -0.0797  0.2073
13555W        W33089   7.230  13.036  15.405  0.0129 -0.0092  0.2669
13556W        W33090  11.143   8.014  14.535 -0.0916  0.0618  0.1510
13557W        W33091  11.811  10.584  15.777  0.2260  0.0190  0.0679
13558W        W33092  10.919  15.361  12.698 -0.0546 -0.3563 -0.0513
13559W        W33093   5.054  10.898   0.098  0.1675  0.1379  0.3923
13560W        W33094  10.565   5.262  14.565  0.1082  0.3615 -0.0056
13561W        W33095  12.240   9.164   2.681 -0.0047  0.2868 -0.2779
13562W        W33096  10.971   0.933  11.583  0.0258 -0.2318  0.0804
13563W        W33097   5.697  12.124  15.723 -0.1160  0.0108 -0.1104
13564W        W33098  12.778  16.876  13.374  0.2054 -0.1289  0.0773
13565W        W33099   7.315  10.776   0.492  0.0995 -0.0677  0.1672
13566W        W33100   0.005  18.170   4.606 -0.2170 -0.0111  0.2154
13567W        W33101   3.586  17.571  13.895 -0.4910 -0.1616 -0.2226
13568W        W33102  13.297  17.320   1.628 -0.2622 -0.0914  0.0482
13569W        W33103   8.459  13.293   0.101 -0.0617 -0.1216  0.0859
13570W        W33104   7.877   8.219  13.913  0.0341  0.0253 -0.1141
13571W        W33105  10.850   7.691  11.346 -0.0902  0.3125 -0.0616
13572W        W33106  18.080   8.639   0.004  0.0489 -0.3687 -0.5460
13573W        W33107   0.797   8.572  11.456  0.1097  0.2725 -0.0009
13574W        W33108  15.099  14.654  13.789  0.0304  0.1383  0.0161
13575W        W33109   0.024  14.026  11.741  0.0387 -0.2952 -0.3532
13576W        W33110   5.767  14.042  13.141 -0.0449  0.1594  0.2432
13577W        W33111   1.224   3.657   0.128  0.1787  0.0068 -0.1065
13578W        W33112   3.142   7.563  14.550  0.0880  0.0341 -0.0245
13579W        W33113   6.630   0.459   1.628 -0.3565 -0.0897 -0.0702
13580W        W33114  17.246  16.882  13.169 -0.2562  0.3500  0.1666
13581W        W33115  16.882   7.088  13.692 -0.0181  0.0779 -0.1337
13582W        W33116  16.034  10.644   0.745  0.0495 -0.0560  0.3726
13583W        W33117  10.467   9.179   3.382 -0.1705  0.0773 -0.0275
13584W        W33118  18.240  16.306  12.853 -0.1920  0.0440 -0.0043
13585W        W33119  11.297  14.376  13.475  0.0651  0.0065 -0.4300
13586W        W33120  17.946   8.017  15.064  0.0859 -0.0766 -0.0513
13587W        W33121  11.654   4.703   4.960 -0.0663  0.3434 -0.2617
13588W        W33122  10.526   9.286  15.503 -0.6023 -0.1713 -0.2103
13589W        W33123  10.655   8.241  14.551  0.3079 -0.1605  0.2365
13590W        W33124   3.902  13.682  12.326  0.1726  0.0856  0.3921
13591W        W33125  15.247   9.417  14.527  0.0848 -0.2196 -0.2419
13592W        W33126   9.503  17.910  11.400  0.0361  0.1966  0.0714
13593W        W33127  11.584  10.976  14.137  0.2991 -0.2022  0.0101
13594W        W33128   7.241  16.060   0.855 -0.0946 -0.1384  0.2722
13595W        W33129  13.148   9.619   3.905 -0.2153 -0.1217  0.1142
13596W        W33130  15.089   2.022  14.595 -0.0489 -0.2767 -0.0168
13597W        W33131  18.117  17.868   1.985  0.4413 -0.0299  0.4228
13598W        W33132  15.413  11.481   1.639  0.3224  0.2072  0.2179
13599W        W33133  14.629  11.765  14.227  0.1973 -0.3367  0.0569
13600W        W33134  17.728  16.894  13.098 -0.2628 -0.0601 -0.2827
13601W        W33135  12.530   4.327   1.325  0.0697 -0.0775  0.0816
13602W        W33136  11.579  12.753   2.199 -0.2702 -0.0121  0.2228
13603W        W33137  14.626   6.285   2.299 -0.0242  0.0853  0.1564
13604W        W33138   9.609  10.891   3.499 -0.0005  0.2639 -0.4394
13605W        W33139  17.252   5.858  14.653 -0.0256 -0.2661  0.0875
13606W        W33140   4.725  15.078  15.477 -0.1939 -0.2008  0.3274
13607W        W33141   5.710  17.318   4.558  0.0338  0.0355  0.1337
13608W        W33142  11.284   0.364   4.855  0.1296  0.1843 -0.0480
13609W        W33143   9.917   4.395   1.805  0.1281 -0.1683  0.0219
13610W        W33144   4.273   8.734   2.237 -0.1889 -0.0604 -0.1358
13611W        W33145  10.475   5.293   0.799 -0.0634 -0.4089  0.0462
13612W        W33146   2.442   8.237   3.404  0.1971  0.1182 -0.1644
13613W        W33147  14.461   5.869  12.972  0.1142 -0.3001  0.1160
13614W        W33148   0.322   2.568   3.505 -0.0216  0.0502  0.2230
13615W        W33149  10.626   2.538  13.908 -0.0166 -0.0720  0.1811
13616W        W33150   5.611   8.966  13.992  0.2244  0.1935  0.3038
13617W        W33151  10.851  14.516   2.636  0.0277  0.2411 -0.1324
13618W        W33152  15.863  14.752   1.538  0.2119  0.1001  0.1538
13619W        W33153   6.802  12.781  12.642 -0.3477  0.0504 -0.1265
13620W        W33154   6.591   8.853  13.769  0.2735 -0.3334  0.0554
13621W        W33155  14.956  15.639   2.307 -0.2222 -0.0223 -0.0326
13622W        W33156   4.334   8.313  13.890  0.1766  0.2816  0.0189
13623W        W33157  12.814  13.930   1.641  0.1895  0.0645 -0.1236
13624W        W33158  11.216  15.409  11.320  0.0230 -0.2809 -0.0328
13625W        W33159  10.274  11.847  11.219 -0.0711 -0.0321 -0.0108
13626W        W33160   2.106  13.939   4.685  0.0652  0.1277 -0.0425
13627W        W33161   7.092  16.489  13.927  0.1636  0.0389  0.2866
13628W        W33162   9.686   0.654  13.173 -0.1462  0.2131 -0.0807
13629W        W33163  15.607   6.154   3.677  0.1768 -0.2834  0.1722
13630W        W33164   6.237  15.840   0.100 -0.1458  0.0056 -0.1098
13631W        W33165   5.014  17.908   3.394 -0.1140  0.0776 -0.0453
13632W        W33166  17.208  17.785  11.932 -0.0418  0.4340  0.0738
13633W        W33167   9.320  11.000   4.002  0.5993  0.2337  0.1116
13634W        W33168  16.341  15.420   3.373 -0.0911 -0.0789 -0.2197
13635W        W33169   2.858  10.879  10.343  0.0471  0.0871  0.3181
13636W        W33170   2.948  15.694   3.792 -0.1840  0.0781  0.0961
13637W        W33171  14.264   9.685   0.087  0.2211 -0.2065  0.1650
13638W        W33172  11.426  12.140  14.525  0.0685  0.2682 -0.0573
13639W        W33173   9.524   7.945   1.435 -0.3053 -0.0463  0.4285
13640W        W33174   5.521  14.229   1.717 -0.0560  0.1967  0.0152
13641W        W33175   1.622  12.160  14.532  0.1458  0.0827 -0.1755
13642W        W33176  11.042   1.600  14.814  0.0419 -0.2922 -0.1876
13643W        W33177   3.230   3.566   4.789  0.1191  0.0562  0.0298
13644W        W33178  17.015  11.463   2.033  0.0800  0.1139  0.1333
13645W        W33179   5.419  18.367  15.651  0.2231 -0.0983 -0.2202
13646W        W33180   7.682   6.446   2.838  0.1974 -0.0292  0.1577
13647W        W33181   9.291  11.787  14.547  0.2581 -0.1516 -0.0895
13648W        W33182   4.419   9.066   1.341 -0.1189  0.1410 -0.4453
13649W        W33183   9.696  17.655  13.556 -0.0759 -0.0552  0.3933
13650W        W33184  14.816   7.333  14.030 -0.4807 -0.0426  0.2261
13651W        W33185   8.988   4.433  12.089 -0.1914  0.1873 -0.2569
13652W        W33186  13.250  17.800  11.982 -0.0571 -0.1856  0.1351
13653W        W33187   0.161  17.557  10.861 -0.0819 -0.1312 -0.0056
13654W        W33188  12.050  14.268   0.824 -0.0129  0.0108 -0.0109
13655W        W33189   5.326   1.167  14.703  0.1533  0.0378 -0.1102
13656W        W33190  14.574   4.578   4.314  0.0638 -0.1017 -0.2679
13657W        W33191  17.542  14.310   1.714 -0.4774  0.3150 -0.2190
13658W        W33192  13.116   1.380   2.811 -0.0916  0.0361 -0.3033
13659W        W33193  17.230  18.342  13.575 -0.0532 -0.1968 -0.2574
13660W        W33194   0.177   7.263  14.953  0.6319  0.4577 -0.1705
13661W        W33195   4.637  15.846   2.560 -0.0589 -0.0134 -0.2968
13662W        W33196   1.047  14.370   1.433 -0.1589 -0.0068 -0.0431
13663W        W33197   6.307   5.761   3.779  0.2728 -0.1272 -0.1035
13664W        W33198   9.972  15.238   3.523  0.1960 -0.0318  0.2369
13665W        W33199  14.139  14.556  11.885 -0.1187  0.0848 -0.4084
13666W        W33200   2.142   4.472  12.713 -0.0018  0.0730  0.1435
13667W        W33201  15.078   2.389   4.217  0.1123 -0.1111  0.3252
13668W        W33202  16.790   4.140  12.276 -0.0011  0.0771  0.1052
13669W        W33203   0.681  11.389   2.062 -0.1634 -0.0670 -0.1058
13670W        W33204  16.858  12.730  15.463 -0.0726  0.0523 -0.0446
13671W        W33205  16.078  17.276  14.493  0.1467  0.1118  0.1330
13672W        W33206  18.323   5.014  12.817 -0.1254  0.0100  0.2370
13673W        W33207  15.776  14.809   0.235  0.0194 -0.1041 -0.0831
13674W        W33208   8.791  10.645   0.639  0.0226  0.0654  0.0156
13675W        W33209   2.886   0.263  14.738  0.3192  0.2008  0.0849
13676W        W33210  10.030  16.675   1.965 -0.1161 -0.2006  0.0047
13677W        W33211   6.188  11.614  15.280  0.2683  0.0149 -0.0009
13678W        W33212  13.404  11.043  11.359  0.2516 -0.2336 -0.1138
13679W        W33213  12.371   0.233  11.825  0.1351 -0.0976 -0.2507
13680W        W33214  15.264   3.795   1.819  0.0953 -0.1905  0.1880
13681W        W33215  10.140  11.907  14.938 -0.0518 -0.0966  0.2649
13682W        W33216  11.749   1.400   3.446  0.0684  0.2153  0.2130
13683W        W33217   7.699  11.145   1.751  0.3660  0.2498 -0.1176
13684W        W33218   2.070   8.674   3.629 -0.1277 -0.0358  0.0084
13685W        W33219   2.058   1.305   3.565 -0.2059 -0.0816 -0.0444
13686W        W33220  12.373  14.845  15.164  0.0473  0.0562 -0.0996
13687W        W33221   8.660   2.798   2.396 -0.2454  0.0219 -0.0454
13688W        W33222  14.733  18.305   1.140 -0.3907  0.1556 -0.1515
13689W        W33223   0.908   7.568  15.235  0.1374  0.4722  0.0784
13690W        W33224  15.768  11.607   2.740  0.0315 -0.1209  0.2043
13691W        W33225  17.571   8.519  11.214 -0.1424 -0.0164  0.2376
13692W        W33226   1.237  17.990   3.992  0.1826  0.0379  0.2813
13693W        W33227  18.241  11.320   1.453  0.2948  0.0579  0.2978
13694W        W33228   8.734   8.455   2.885 -0.1178  0.1746  0.0556
13695W        W33229  12.192  17.266  12.213  0.0629 -0.0542 -0.1451
13696W        W33230   5.660   7.552  11.990 -0.0619 -0.0900 -0.0387
13697W        W33231  13.722   0.337  14.738  0.0267  0.0320 -0.0158
13698W        W33232   2.392   8.590  13.105 -0.3005  0.3209 -0.0433
13699W        W33233   7.603   7.961   1.784  0.0086 -0.1917  0.0505
13700W        W33234   3.200   4.947   4.742 -0.2021 -0.0831 -0.0214
13701W        W33235   6.812   0.259   4.157  0.3273  0.0880 -0.1133
13702W        W33236   0.279  14.292  12.538 -0.0464  0.0172  0.3065
13703W        W33237   9.979   9.262   3.508  0.3359 -0.2514  0.1977
13704W        W33238  11.099  13.598   2.452 -0.0490  0.0339 -0.0954
13705W        W33239  14.063   7.853   4.352 -0.0617  0.0698 -0.2233
13706W        W33240   3.200  14.451  12.922  0.1187 -0.2016  0.4312
13707W        W33241   1.523  16.327   4.906 -0.0264  0.1603 -0.0399
13708W        W33242   0.337  13.719   1.378  0.0333  0.0601 -0.0649
13709W        W33243   4.651  10.312   1.541 -0.0957  0.0682 -0.1791
13710W        W33244   7.153   1.637   4.424 -0.1740 -0.0496  0.0055
13711W        W33245   1.920  16.427  12.308  0.2915  0.0500  0.3677
13712W        W33246   4.226   1.885  13.037 -0.2811 -0.2497 -0.1519
13713W        W33247  14.765   4.276  10.434 -0.0728  0.0514  0.2078
13714W        W33248  12.446   9.680  15.184 -0.0532  0.0594 -0.0670
13715W        W33249   8.980  15.901   1.743 -0.0569  0.0425 -0.2298
13716W        W33250   1.627  14.853  15.795  0.1852  0.3082 -0.0095
13717W        W33251  15.897   6.285  14.489 -0.1921 -0.0412  0.0891
13718W        W33252   0.122   8.412  12.959  0.1172 -0.1387 -0.2055
13719W        W33253  10.475  17.967  13.766 -0.3391 -0.0719 -0.1241
13720W        W33254   0.644   4.601  14.757 -0.0795 -0.3607  0.1183
13721W        W33255   6.501  14.938   2.957  0.0401  0.2245 -0.0170
13722W        W33256   8.602   2.411   1.269 -0.0642  0.0222  0.1249
13723W        W33257  16.158   5.089  14.231  0.2499  0.0245 -0.2390
13724W        W33258   6.581   6.985  14.121  0.2579 -0.0622 -0.1414
13725W        W33259  10.257  17.465  12.083 -0.2171 -0.0717 -0.2138
13726W        W33260   8.761   2.823   0.904  0.2513  0.1685  0.0738
13727W        W33261   8.982  16.743  13.379  0.1446  0.3495  0.2020
13728W        W33262   7.278   5.899   3.985  0.0292  0.5036 -0.0819
13729W        W33263  11.527  12.207  15.392  0.0045  0.2063 -0.0290
13730W        W33264  18.344   7.815  14.261  0.1543  0.1692  0.0923
13731W        W33265  12.721  13.550   3.726 -0.3482 -0.1862  0.0932
13732W        W33266  17.248   5.344   0.141 -0.0372  0.2624 -0.3067
13733W        W33267  12.393  10.414  12.361  0.3275 -0.0442  0.1116
13734W        W33268   1.498   5.745   4.268 -0.3529 -0.0344 -0.0343
13735W        W33269   3.707   7.767   0.421  0.1155 -0.1380 -0.1075
13736W        W33270   0.371   5.106   2.810 -0.1113  0.1907 -0.1001
13737W        W33271   3.574  16.695   4.900 -0.0057 -0.1822 -0.3352
13738W        W33272  17.615  12.726  14.149 -0.1403  0.0146 -0.0299
13739W        W33273   5.512   9.721  13.457  0.0809  0.4740 -0.2450
13740W        W33274   1.874  11.374   1.374  0.1849 -0.1744 -0.1134
13741W        W33275  10.434   9.397  11.685  0.0557 -0.2095 -0.1008
13742W        W33276   1.152   5.953  13.675 -0.0844  0.0074 -0.1710
13743W        W33277   8.998   3.268   3.081 -0.1387 -0.0581  0.1995
13744W        W33278   6.489  10.727  14.714 -0.3006 -0.2245  0.1460
13745W        W33279  14.976  14.321  12.330  0.0131  0.1231 -0.0692
13746W        W33280  16.209  16.442  10.365  0.1074 -0.0750  0.3183
13747W        W33281  18.155   8.000   2.446  0.2611  0.0955 -0.0659
13748W        W33282   1.093   9.857  12.435 -0.0308 -0.4575  0.2282
13749W        W33283  15.624  18.169  13.381  0.0791  0.1358  0.3705
13750W        W33284  16.724   1.681   3.202  0.2695  0.5113 -0.2887
13751W        W33285   9.831   0.302  13.512  0.3271  0.3311  0.0359
13752W        W33286   1.500   2.461  11.974 -0.2163  0.3459  0.0587
13753W        W33287  18.222   2.071  13.681  0.0913  0.0381 -0.0590
13754W        W33288   8.368   2.554   4.743  0.2600 -0.1556  0.1979
13755W        W33289   4.727  12.607  15.472 -0.2209  0.1720  0.3739
13756W        W33290   1.963  15.109  14.871 -0.1304 -0.0265  0.0785
13757W        W33291   0.445   5.080  13.860 -0.4047 -0.1568 -0.1744
13758W        W33292   9.070   2.595  11.928 -0.0019 -0.1243 -0.0254
13759W        W33293  13.528  17.037   0.121 -0.0464  0.2373  0.1436
13760W        W33294  17.637   5.898  13.774  0.4016  0.1143 -0.1133
13761W        W33295  10.783   5.501   2.954  0.2983 -0.0045 -0.0727
13762W        W33296  17.028  14.755  14.792 -0.0096  0.4163  0.0954
13763W        W33297  15.356   5.009   0.278  0.1748  0.0767  0.2811
13764W        W33298   2.069   6.748  13.754 -0.1992 -0.1125  0.3889
13765W        W33299   8.408   7.548   4.896  0.1213 -0.1123 -0.1107
13766W        W33300   1.850   4.452   4.678  0.0507  0.0368  0.1650
13767W        W33301   5.960   5.031   0.759  0.0607 -0.0729 -0.0749
13768W        W33302  12.800  11.139  13.546 -0.1292 -0.2018 -0.5813
13769W        W33303  12.348   4.918   0.966  0.0734  0.2552  0.0027
13770W        W33304  11.317  16.456   2.040  0.4702  0.0932 -0.1046
13771W        W33305   5.605  11.456  11.383 -0.2088  0.1465  0.0550
13772W        W33306  17.618  12.961  13.337  0.1567  0.3847 -0.2155
13773W        W33307   4.361   5.385   1.450  0.1094 -0.0463  0.0924
13774W        W33308   7.059   1.959  15.647 -0.2042 -0.2531 -0.0067
13775W        W33309   6.438   2.604  12.816 -0.0434  0.2023  0.0646
13776W        W33310  13.696   4.980  14.486 -0.2862 -0.0458  0.1573
13777W        W33311   3.438   6.258  12.911 -0.3298 -0.3055  0.1876
13778W        W33312   5.355  11.069  12.182  0.0893 -0.2217 -0.2321
13779W        W33313   0.783  12.831  13.513  0.3291  0.3243 -0.0297
13780W        W33314  11.462  16.766   0.520 -0.0905  0.1532 -0.1565
13781W        W33315  15.305   8.768  13.678 -0.0834  0.1139 -0.0931
13782W        W33316   7.113  12.077  15.805 -0.0485 -0.0942 -0.2704
13783W        W33317  10.533   7.430  10.240  0.0110 -0.0869  0.0432
13784W        W33318   3.312  10.875   4.218  0.0872 -0.2624  0.1723
13785W        W33319  13.755   5.307  10.584  0.1523  0.0952 -0.0873
13786W        W33320   3.785  13.559  15.558 -0.2870  0.2488  0.1479
13787W        W33321   8.637   8.349  13.282  0.1292 -0.1991 -0.0152
13788W        W33322  16.756  12.081  14.073  0.1100 -0.3157  0.0117
13789W        W33323  15.148  17.607   0.538 -0.1431  0.2078  0.0616
13790W        W33324  15.032   2.711   1.056  0.0101  0.0465  0.0388
13791W        W33325   8.421   0.422  15.622  0.2947  0.0547 -0.0282
13792W        W33326   8.122  14.094  12.281 -0.1610  0.1950 -0.1765
13793W        W33327  17.576   5.205   2.197 -0.0251 -0.0977  0.1087
13794W        W33328  13.500  15.366  12.683 -0.0812 -0.1073 -0.1020
13795W        W33329  12.658   1.030  12.804  0.1830  0.0246  0.0315
13796W        W33330  17.096   4.561   4.549 -0.3512 -0.0776 -0.0711
13797W        W33331   2.811   2.583   1.714 -0.1396  0.1014 -0.0195
13798W        W33332  13.198   3.266   0.602  0.0723 -0.3285  0.2325
13799W        W33333   0.822   7.151   0.204 -0.3088  0.2121  0.1000
13800W        W33334  14.637  12.382   2.421 -0.2139  0.0162 -0.1486
13801W        W33335  16.327   2.901  15.793  0.0469 -0.0485 -0.2154
13802W        W33336   6.201   1.813   1.770  0.0371 -0.3649 -0.1708
13803W        W33337  16.656   1.752  12.183  0.1358  0.2710 -0.1830
13804W        W33338  17.598  18.357  15.623  0.0608 -0.1659  0.1387
13805W        W33339  12.742  18.248  13.671 -0.1255 -0.1943 -0.2395
13806W        W33340  11.859   9.469  12.106 -0.0154  0.2169  0.4954
13807W        W33341  13.250  12.254  15.442 -0.2214 -0.3278  0.1356
13808W        W33342  14.565  14.310   4.321 -0.0896 -0.0483  0.1910
13809W        W33343  15.570   3.650  13.077  0.0568 -0.0038 -0.1735
13810W        W33344  14.034  10.273   2.905 -0.1215  0.4653  0.0093
13811W        W33345   2.824   4.974   0.612  0.4033  0.2524  0.1199
13812W        W33346  10.906  12.670  13.117  0.1377 -0.1702  0.0865
13813W        W33347  17.482  15.860  14.422 -0.1695 -0.0966 -0.1295
13814W        W33348   3.057  11.911   0.086  0.1286  0.2944  0.1854
13815W        W33349  12.419   9.169  15.289  0.0336  0.0581 -0.2865
13816W        W33350  12.514   0.604  13.569 -0.1454 -0.1940  0.0355
13817W        W33351  11.707   5.000  13.432 -0.1955 -0.0555 -0.2090
13818W        W33352   1.791  14.694   3.650 -0.1595  0.0130 -0.4067
13819W        W33353  14.260   4.261   2.590 -0.0617  0.4068 -0.3370
13820W        W33354   1.581  10.082  13.261  0.3979  0.1988 -0.1912
13821W        W33355   5.735  16.250   1.150  0.3353  0.3200 -0.1691
13822W        W33356  13.537  10.300  13.585 -0.1333  0.4594  0.0258
13823W        W33357   6.890  11.303   2.792  0.2745  0.0692 -0.3206
13824W        W33358  11.320  17.375  15.745 -0.0480 -0.3153 -0.1048
13825W        W33359   8.949  17.611   1.456 -0.0659 -0.0344  0.3591
13826W        W33360   5.281   9.486  15.017 -0.1725 -0.1471  0.1745
13827W        W33361  13.748  16.826  15.554  0.0936 -0.1590 -0.1227
13828W        W33362   4.662  16.616   3.859  0.4447 -0.0096  0.2848
13829W        W33363   0.752   4.018   2.526 -0.0948 -0.3596  0.0632
13830W        W33364  11.113   2.624   1.832  0.0533  0.1691 -0.2601
13831W        W33365   8.471   2.661   3.288 -0.2002  0.1140  0.0682
13832W        W33366   0.799  10.948   0.182  0.3186  0.1244  0.2036
13833W        W33367   0.337  17.038   2.347  0.2198  0.0140  0.0393
13834W        W33368   3.384   2.969   0.699  0.0381 -0.1260  0.0032
13835W        W33369   4.799   8.092  14.078  0.1270  0.2122  0.2242
13836W        W33370   3.713  11.252  15.207  0.1764 -0.1939  0.2001
13837W        W33371  11.935  15.005  12.831  0.1008  0.0251 -0.0470
13838W        W33372  14.803   3.807  11.794 -0.2088  0.2527  0.0510
13839W        W33373  10.074   5.652  13.640 -0.1931 -0.1227  0.1408
13840W        W33374   1.367  17.309   0.343 -0.1851 -0.0902  0.0849
13841W        W33375  17.484   2.697   3.021  0.0863 -0.1011  0.1159
13842W        W33376   2.425  17.731  13.249  0.0184 -0.0720 -0.0339
13843W        W33377  14.537  15.565  11.541  0.0128  0.2153  0.0101
13844W        W33378  11.985   9.922   1.013  0.3421 -0.1022 -0.1075
13845W        W33379   1.050   6.822  15.545 -0.1411 -0.0083  0.1528
13846W        W33380  11.972   2.241  11.994  0.3454 -0.1857  0.1853
13847W        W33381  16.782   9.689   1.157 -0.4118 -0.1291 -0.1653
13848W        W33382  17.385   0.828  12.749 -0.3216 -0.1697 -0.0835
13849W        W33383  14.434  12.350   4.404 -0.2001 -0.0780  0.1047
13850W        W33384  10.162  12.806   2.044 -0.2218  0.1365 -0.1108
13851W        W33385  10.927   1.438   0.016  0.0250 -0.0325 -0.1530
13852W        W33386   3.520   8.180   3.756  0.0403 -0.3830  0.1412
13853W        W33387  10.274   1.020  12.443 -0.2366 -0.0470  0.2086
13854W        W33388   2.191  13.244  11.738  0.0315  0.1464  0.0225
13855W        W33389   4.620  13.301  12.451 -0.0676  0.3784 -0.1084
13856W        W33390  11.744   2.167   0.780 -0.1544 -0.1769  0.2568
13857W        W33391  12.383  12.566  11.674 -0.0528 -0.2351 -0.2440
13858W        W33392  11.289   7.687  14.894 -0.1904  0.0063 -0.0059
13859W        W33393  13.792   5.201   1.928  0.4225  0.1800  0.1637
13860W        W33394  10.239  11.802  11.687 -0.1685  0.1057 -0.1890
13861W        W33395  17.294   5.852  14.187 -0.1798 -0.1230  0.0835
13862W        W33396   2.561   5.560   2.166  0.0264 -0.2352  0.0975
13863W        W33397  12.463   5.312  11.568  0.1327 -0.1287 -0.0107
13864W        W33398   8.976  13.065   4.489 -0.0010  0.0909 -0.0427
13865W        W33399   2.021  12.723  11.678 -0.1745 -0.2080 -0.4236
13866W        W33400  12.707   1.967  13.965 -0.1690  0.2336  0.1453
13867W        W33401  15.251  18.154  15.698 -0.0288  0.0034  0.0500
13868W        W33402   1.017   3.725   2.967 -0.2197 -0.3757 -0.2106
13869W        W33403   7.966  13.714  11.582  0.0752  0.1645  0.1890
13870W        W33404   5.116  13.985  13.393  0.2560  0.2492  0.0526
13871W        W33405  13.788  13.462  15.693  0.0108 -0.1518  0.1970
13872W        W33406  10.140   1.335   0.914 -0.2164  0.2631 -0.0897
13873W        W33407  14.125  12.094  12.774 -0.1248  0.3148 -0.1025
13874W        W33408   0.143   0.548  14.765 -0.0110  0.3108 -0.1593
13875W        W33409  10.699  14.250   3.583 -0.1232  0.0480  0.0940
13876W        W33410   6.821   3.277  13.816 -0.3357 -0.1286 -0.1276
13877W        W33411  15.347  18.042   1.672 -0.0233 -0.4250 -0.1008
13878W        W33412   8.213  11.689   2.871 -0.1103  0.1187 -0.3547
13879W        W33413  13.237   4.125   0.235 -0.5062  0.1564  0.0163
13880W        W33414  16.938  17.679  14.084  0.0148  0.0793 -0.2153
13881W        W33415  11.720   7.353  13.354  0.1140  0.2129 -0.1976
13882W        W33416  10.418   1.497   5.045  0.3101  0.0407 -0.2413
13883W        W33417  17.129   3.595  14.572 -0.2105  0.0835 -0.3189
13884W        W33418  16.815  15.972  15.334  0.1615  0.1666 -0.1469
13885W        W33419  12.701   3.978   4.374  0.0060 -0.0956  0.1638
13886W        W33420  17.555  10.238  14.966  0.1837 -0.4196  0.2265
13887W        W33421  13.778   3.523  13.229  0.0737  0.0721 -0.1163
13888W        W33422  17.452   9.438   3.795  0.2080  0.2562 -0.1630
13889W        W33423   9.790  15.271   0.234 -0.0242  0.0502  0.0583
13890W        W33424  13.439  15.089   3.065  0.1434  0.1161  0.1033
13891W        W33425   2.823   3.787  14.831 -0.0780 -0.3291 -0.2105
13892W        W33426  16.724  17.982  13.243 -0.0819 -0.1896  0.0819
13893W        W33427   9.796  16.989   3.024 -0.0038  0.0381  0.0918
13894W        W33428   9.381   5.103  15.586  0.2252  0.0521 -0.0432
13895W        W33429   1.170   5.815   0.123  0.0670 -0.0487 -0.0895
13896W        W33430   3.096  13.583   4.276 -0.0319  0.1261 -0.0776
13897W        W33431   6.495   5.825  14.403 -0.4453  0.2696  0.0523
13898W        W33432  17.234   8.526  12.483 -0.2056  0.0221  0.0321
13899W        W33433  17.669   8.568   3.560 -0.4608 -0.1558 -0.0993
13900W        W33434   3.103   6.654   4.184 -0.0505  0.2323  0.0982
13901W        W33435  17.016   2.058   2.495 -0.0733  0.0054 -0.0500
13902W        W33436   3.054   2.117   0.623 -0.0354 -0.0991 -0.2811
13903W        W33437  11.526   6.178   0.055 -0.1523 -0.0550 -0.2165
13904W        W33438   6.167  16.256   1.743 -0.1127  0.0543 -0.0708
13905W        W33439  10.410   5.124   5.060 -0.1940 -0.0928  0.0164
13906W        W33440   8.794  11.151   0.493 -0.1322  0.0571 -0.0906
13907W        W33441   1.826  14.026   1.733 -0.0439 -0.0447 -0.4455
13908W        W33442   7.293  17.067   1.074  0.0691  0.1013  0.3541
13909W        W33443   9.232   2.070   0.665  0.0211 -0.2403 -0.0313
13910W        W33444   0.928  10.072   0.225  0.0331  0.2723  0.1854
13911W        W33445  11.350   3.216   2.620 -0.0841  0.0847  0.2091
13912W        W33446  17.422  10.172   3.132 -0.0697  0.2980  0.0778
13913W        W33447   4.620   6.513   5.291  0.0003 -0.2238 -0.0814
13914W        W33448   0.877   2.848  15.724  0.2919  0.1711  0.1628
13915W        W33449  12.861   9.058   2.177 -0.0051 -0.4157 -0.0598
13916W        W33450   7.727   1.247  14.526 -0.2175  0.0643 -0.3788
13917W        W33451   8.430   6.251  14.629 -0.0808 -0.0858 -0.1707
13918W        W33452   7.206  12.662  15.096 -0.0366  0.0180 -0.2371
13919W        W33453   2.018   8.170  15.120  0.2526  0.1448 -0.1417
13920W        W33454   5.092  14.313  11.926 -0.1821  0.0956 -0.0703
13921W        W33455  17.208  13.419   3.547 -0.2172  0.4519  0.2023
13922W        W33456   0.619  11.910   1.402  0.1121 -0.0779 -0.1790
13923W        W33457  16.568   9.733  15.034 -0.0878 -0.2755 -0.0656
13924W        W33458   3.134  14.830   1.840  0.1923  0.1156  0.3832
13925W        W33459   2.095   2.515  13.300  0.0658 -0.0896 -0.1047
13926W        W33460   1.885   8.167   0.291  0.4907  0.0102 -0.0664
13927W        W33461  12.315  13.415   4.054 -0.0557  0.0024 -0.0017
13928W        W33462  16.732   8.400  13.225  0.0399  0.1441  0.1141
13929W        W33463  12.027   4.637  12.247  0.1083 -0.3895 -0.0371
13930W        W33464   8.351   2.232  14.264 -0.2147 -0.0394 -0.0670
13931W        W33465  13.156  11.778  15.121  0.1081 -0.0322  0.2016
13932W        W33466   8.830  13.765  11.448  0.2242 -0.1295 -0.2956
13933W        W33467   2.687   2.119   1.982  0.1653  0.2103 -0.1017
13934W        W33468  12.995   6.253   0.890  0.3833  0.2342  0.0158
13935W        W33469  10.552  10.429   4.397 -0.2064 -0.0343 -0.0408
13936W        W33470  14.820   1.385  12.214  0.0513 -0.1516 -0.0175
13937W        W33471  17.358   4.917   2.526 -0.0496  0.2045 -0.0012
13938W        W33472   8.386  17.597   1.967 -0.0425  0.2866  0.3107
13939W        W33473  12.519   1.895  12.251 -0.1378  0.3161  0.1961
13940W        W33474   1.238  11.521  13.271  0.1863  0.1512  0.1075
13941W        W33475  13.169   6.112   1.429  0.0135  0.0899  0.2186
13942W        W33476   0.641   0.362  12.569  0.3381  0.6576 -0.1503
13943W        W33477  13.243   7.931   1.159 -0.0377  0.0305  0.2533
13944W        W33478  15.154  10.456  13.733 -0.0474 -0.0682  0.0053
13945W        W33479   4.348   2.132  15.023 -0.1431 -0.0420 -0.2660
13946W        W33480   4.393  16.237  14.877  0.3061  0.0101  0.0694
13947W        W33481  14.763  14.360   0.138 -0.1347 -0.2322  0.0047
13948W        W33482   8.611  17.013   0.291  0.2780 -0.1182 -0.1290
13949W        W33483  13.041   9.567  11.234 -0.0091 -0.1456 -0.0914
13950W        W33484   9.463   5.216   1.150 -0.0202  0.0152  0.0636
13951W        W33485   7.700  14.335  12.061  0.1686 -0.2397 -0.1445
13952W        W33486  10.291   0.293  14.929 -0.0280 -0.3176  0.2206
13953W        W33487  10.491   1.696  15.661  0.0753  0.0164  0.3029
13954W        W33488  10.951   2.162  11.106 -0.5248  0.0603  0.1319
13955W        W33489   5.839   3.278  15.789  0.2909 -0.0054  0.2327
13956W        W33490  17.920   9.491   0.955 -0.0891  0.3256  0.3511
13957W        W33491   8.182  16.977   0.113 -0.2296 -0.0794  0.0028
13958W        W33492   0.777  15.252   0.672  0.2520 -0.0172  0.3158
13959W        W33493   9.646   3.759   0.030  0.0046 -0.1150  0.1993
13960W        W33494  10.907   2.734  13.446  0.0698 -0.1885 -0.0188
13961W        W33495  15.472   7.501   2.572  0.0264 -0.3498 -0.0188
13962W        W33496  18.397  15.961  11.908  0.0009  0.1375  0.1758
13963W        W33497  10.239  15.432  15.297 -0.1121  0.0441 -0.1382
13964W        W33498   7.118   2.612  11.404  0.1252 -0.3035 -0.1251
13965W        W33499   8.821   5.969  14.854  0.2051 -0.1307  0.0590
13966W        W33500   9.610  13.766   4.433  0.4227  0.0679 -0.0821
13967W        W33501  13.619  14.482   2.620 -0.2648  0.0150 -0.0119
13968W        W33502  16.516   1.514   4.995  0.3966 -0.0246 -0.0593
13969W        W33503  17.633  17.257   1.711 -0.1140 -0.0469  0.2197
13970W        W33504   1.207  10.324  15.260  0.1184  0.3041 -0.0880
13971W        W33505  14.074  11.407   3.464 -0.1003 -0.0705 -0.0900
13972W        W33506  12.325   4.570   0.064  0.0764 -0.0561  0.0821
13973W        W33507   3.191   6.356  11.368 -0.4870 -0.1277 -0.1677
13974W        W33508   9.465   8.395  15.278 -0.2084 -0.2697 -0.0503
13975W        W33509   3.848  14.879  11.832  0.0459 -0.2469 -0.3976
13976W        W33510  16.508  16.679  13.240 -0.1201  0.0093  0.0496
13977W        W33511  10.146   4.759   0.816 -0.0178  0.1690 -0.0246
13978W        W33512   1.388  17.008   2.494 -0.3103 -0.2512  0.1270
13979W        W33513  10.985   7.371  15.065  0.1490  0.4004  0.0396
13980W        W33514  10.809  14.034   2.685  0.0355 -0.0850  0.1283
13981W        W33515   6.535   1.543   2.007 -0.0043 -0.1848 -0.0693
13982W        W33516  15.843   6.520  15.629  0.1365 -0.2889  0.2037
13983W        W33517   2.236  10.993   2.472 -0.1334 -0.3301  0.0902
13984W        W33518  14.999   7.876  12.273  0.0458 -0.1776  0.0142
13985W        W33519   4.683  11.067  13.688  0.1111  0.1454  0.0549
13986W        W33520  13.268   4.213   3.961  0.1502 -0.0032 -0.2865
13987W        W33521  11.665  17.091  14.441 -0.0236  0.0759  0.1879
13988W        W33522   9.707   1.738  15.250  0.0926 -0.0411 -0.0868
13989W        W33523   9.930   6.259  15.428  0.0049 -0.2374  0.0001
13990W        W33524   2.675   5.836   3.729 -0.1357  0.2004  0.0698
13991W        W33525   4.158   0.269   1.219  0.1833  0.0905  0.1287
13992W        W33526   3.358  17.965  13.647  0.3047  0.0598 -0.1347
13993W        W33527   0.674  17.590  14.708  0.0768 -0.0733 -0.2643
13994W        W33528  11.309   4.631   0.036  0.1203 -0.1395 -0.2189
13995W        W33529   9.811   3.833   4.037  0.1263  0.0152 -0.0337
13996W        W33530  11.479  17.457   3.087  0.3471 -0.1683 -0.1191
13997W        W33531   4.563  11.650   0.767 -0.0844 -0.0126  0.2243
13998W        W33532  14.438   0.253   4.085 -0.0652 -0.2104 -0.2406
13999W        W33533   7.272   5.873  12.284  0.1281  0.0265 -0.0156
14000W        W33534   5.592  12.484   4.329  0.0747  0.1255 -0.0340
14001W        W33535   6.778   7.328   1.942 -0.2559  0.0119  0.1867
14002W        W33536   3.130   6.132   1.798 -0.0293  0.0826 -0.0020
14003W        W33537  10.544   3.623  15.784 -0.0661  0.0747  0.0363
14004W        W33538   9.497  11.522   0.458  0.0394  0.0415  0.1185
14005W        W33539  12.794   2.184   0.443  0.1777 -0.1034  0.0005
14006W        W33540   9.147   4.853   4.684  0.2825 -0.2931 -0.1229
14007W        W33541  13.126  12.049  11.981 -0.0854  0.0379  0.0647
14008W        W33542  14.257  16.209   3.544 -0.3855 -0.1536  0.0766
14009W        W33543   9.950  16.191   2.350 -0.0409  0.0556 -0.0082
14010W        W33544   4.889  17.997  15.237 -0.1979  0.2159  0.4353
14011W        W33545  15.669  12.815  13.845  0.1209 -0.1736  0.1907
14012W        W33546  11.954   3.143   2.759 -0.0551 -0.1696 -0.0630
14013W        W33547  14.743   6.527   2.719 -0.2181 -0.3190  0.0706
14014W        W33548  15.855   1.567   2.634 -0.1259  0.2486  0.1061
14015W        W33549   6.999   4.382   1.534 -0.1071 -0.3080  0.0365
14016W        W33550  16.256  18.067   3.988  0.0592 -0.0283  0.0926
14017W        W33551  16.758   3.935  15.800  0.0916 -0.0876 -0.0945
14018W        W33552   0.884   7.584  11.374 -0.2033  0.2444  0.1312
14019W        W33553  14.108   4.325  14.732 -0.0534  0.0869  0.2772
14020W        W33554  12.239   9.890  14.122  0.0481  0.1585 -0.1567
14021W        W33555  15.286  16.285   3.608  0.2764 -0.2999  0.1800
14022W        W33556  14.577   4.128   1.557  0.0523 -0.1585  0.1240
14023W        W33557   8.421  10.081  13.408 -0.0238 -0.1594  0.0305
14024W        W33558  17.452  15.808   0.625  0.0366  0.0808  0.0359
14025W        W33559   6.112  17.015   1.753 -0.1519 -0.0252  0.0629
14026W        W33560   8.958  17.667  12.068 -0.2491  0.1164 -0.1163
14027W        W33561  16.222   9.072   3.415 -0.2341  0.0351  0.1182
14028W        W33562  15.827  17.101  12.801  0.0642 -0.2308 -0.0614
14029W        W33563  12.585  11.931   3.107 -0.3594 -0.0846  0.5184
14030W        W33564   8.879  10.140   1.537 -0.0499 -0.3937 -0.1847
14031W        W33565   1.025  16.130  12.094 -0.2891 -0.0314 -0.0820
14032W        W33566  16.724   9.158  11.818 -0.1385 -0.0394 -0.1059
14033W        W33567  15.670   4.150  11.429  0.0686 -0.1295  0.0854
14034W        W33568  11.680   7.787   2.861  0.1760  0.1916  0.1389
14035W        W33569   8.658  15.683  13.125  0.0545 -0.0620  0.0757
14036W        W33570  11.227  13.463  11.503  0.3653  0.0235  0.0782
14037W        W33571  12.057   8.961  14.034 -0.1141  0.1755  0.2258
14038W        W33572  10.481  15.943   0.692 -0.1866  0.0569  0.4045
14039W        W33573  10.359   6.268   4.679 -0.4903 -0.1059 -0.1649
14040W        W33574  10.291  15.798  13.989 -0.0925 -0.0708  0.0093
14041W        W33575   5.065   4.387   2.813 -0.0567 -0.0458  0.1273
14042W        W33576   4.441   6.757   2.386 -0.0085 -0.0914 -0.2422
14043W        W33577   9.465   6.700   3.182 -0.1001  0.1218  0.1366
14044W        W33578  11.350   4.948   2.587 -0.3264  0.0729  0.0908
14045W        W33579   8.994   2.900  14.060  0.1806 -0.0105 -0.0294
14046W        W33580   2.581   3.900  14.190  0.0768  0.0768 -0.1872
14047W        W33581  13.578   6.196  12.777 -0.3640  0.0561  0.0028
14048W        W33582   4.633   4.056  12.937  0.1346  0.2757  0.2374
14049W        W33583  16.212  17.315  13.434 -0.1905 -0.0813  0.0623
14050W        W33584  15.509   9.231   2.192  0.0166  0.0251 -0.0543
14051W        W33585   4.181   3.884   0.231 -0.1276 -0.0003  0.0267
14052W        W33586   5.840  15.337  13.747 -0.1233 -0.0082 -0.1758
14053W        W33587   4.386   9.668   1.458  0.1320 -0.2406  0.0142
14054W        W33588  17.617  12.228  13.176 -0.0452  0.0657 -0.0294
14055W        W33589   4.414  11.068  13.325 -0.2610  0.0349 -0.1128
14056W        W33590  12.201   6.793   4.590 -0.1594  0.2177  0.0426
14057W        W33591  17.591  18.090   3.797 -0.1779 -0.0322 -0.1283
14058W        W33592   2.724  16.343   4.501 -0.1766 -0.0154 -0.0147
14059W        W33593   6.939  15.276  12.060 -0.1467  0.1122 -0.1361
14060W        W33594   0.982   7.360   1.496  0.0713  0.0665  0.0920
14061W        W33595   4.761  16.383  11.604 -0.2112 -0.1147  0.0327
14062W        W33596  13.145   4.530   3.103 -0.2745 -0.1087 -0.0855
14063W        W33597   0.567  16.006   0.939  0.1135 -0.2067  0.1071
14064W        W33598  12.509  15.079  12.516 -0.0527  0.1108  0.0416
14065W        W33599   9.395   2.065  14.362 -0.0282  0.1077 -0.1497
14066W        W33600  11.247   9.850  15.006 -0.2658  0.6084  0.0825
14067W        W33601   5.959   2.712  14.242 -0.1419 -0.2103  0.0700
14068W        W33602  11.203  17.719   2.743 -0.0448  0.0675 -0.0597
14069W        W33603  13.586  12.957   2.444 -0.0572 -0.1661  0.0802
14070W        W33604   2.258   0.760  14.513  0.0216  0.1083  0.0686
14071W        W33605  15.746  13.223   3.442 -0.1520 -0.0030 -0.1050
14072W        W33606   0.268   2.414  13.342 -0.1892 -0.1573 -0.1502
14073W        W33607  16.206   6.016   2.875  0.4062  0.3318 -0.0666
14074W        W33608  11.846   0.348  13.740  0.0848  0.2981  0.0060
14075W        W33609   2.936  15.834  15.560 -0.0548 -0.1823  0.2277
14076W        W33610  13.534  14.683  13.269 -0.0721  0.3821 -0.0096
14077W        W33611  13.223   7.570   0.803 -0.2840  0.2349 -0.0280
14078W        W33612   0.542  18.308   0.278  0.2866  0.4895 -0.1044
14079W        W33613  14.500  14.525   3.826  0.1827  0.3440 -0.0210
14080W        W33614   3.905   6.084   4.313 -0.0047  0.0814  0.2291
14081W        W33615  16.442  13.569  13.061  0.0740  0.0147 -0.4813
14082W        W33616   0.572  11.132   0.586 -0.1698  0.0382 -0.3451
14083W        W33617   6.198  13.087   1.325 -0.0198 -0.0999 -0.2260
14084W        W33618  11.956   3.184  14.184  0.1801  0.1261  0.2781
14085W        W33619   7.713   5.284   2.216 -0.1710 -0.3650  0.0456
14086W        W33620   3.523  14.096  13.049 -0.0128 -0.0433 -0.0131
14087W        W33621   0.396   0.146  13.762  0.1879 -0.1481 -0.1365
14088W        W33622   4.229  16.780   2.853  0.1401 -0.1779  0.0289
14089W        W33623  11.470  10.387   3.422 -0.0287 -0.1658  0.0331
14090W        W33624  11.981   4.031   3.299  0.0470 -0.1084  0.0833
14091W        W33625  16.331   0.498   1.918 -0.0806  0.1358 -0.0623
14092W        W33626  16.487   0.214   2.836  0.1786  0.0009  0.0462
14093W        W33627  14.592   3.419  14.384 -0.0106 -0.0915  0.0245
14094W        W33628   8.704   2.242   2.209 -0.0535 -0.0479 -0.1949
14095W        W33629   3.691   2.609  12.380 -0.1661 -0.1313 -0.1713
14096W        W33630  17.316   4.115  15.244 -0.1761  0.1685  0.1229
14097W        W33631   2.582   6.562   0.240 -0.3595  0.1706  0.0150
14098W        W33632   9.867  12.073  11.645 -0.2535  0.1337 -0.0381
14099W        W33633   7.829   7.517  15.095  0.0392 -0.3176  0.3496
14100W        W33634   9.779   0.018   4.319  0.0067  0.2055 -0.0092
14101W        W33635   8.275  13.433  13.256 -0.2055  0.0107 -0.0784
14102W        W33636  14.336  16.771  15.554  0.1426  0.0064 -0.1868
14103W        W33637   5.955   6.653  12.648 -0.3508  0.0636 -0.3721
14104W        W33638   6.561   8.656  14.259  0.1297  0.0150 -0.1004
14105W        W33639   1.852   0.252   2.850 -0.2726 -0.2889  0.1668
14106W        W33640  15.979  12.494  12.568  0.1180  0.3033 -0.3153
14107W        W33641  17.624   1.850  12.783 -0.2056 -0.0676  0.1033
14108W        W33642  10.856   9.260   3.751 -0.2096 -0.1558  0.1397
14109W        W33643   7.541  15.971   3.405 -0.2482 -0.1909  0.1763
14110W        W33644   3.232   6.875  11.306  0.2762  0.2521 -0.0883
14111W        W33645   6.497   0.278   4.525 -0.0724 -0.1067 -0.0555
14112W        W33646  16.203   2.132   1.101  0.2608 -0.1550  0.2531
14113W        W33647  14.852   3.061   1.472  0.1194 -0.0722 -0.2180
14114W        W33648  13.262   7.118  12.808  0.1114 -0.1024  0.0658
14115W        W33649  11.010   2.727  15.057  0.0311  0.0657 -0.0129
14116W        W33650   2.020   7.204  15.499 -0.3038 -0.0049  0.1427
14117W        W33651  13.185   1.744  13.077 -0.1619  0.0991 -0.0044
14118W        W33652  17.171   9.276  11.436 -0.4368 -0.1995 -0.1370
14119W        W33653  17.407  11.134   3.772 -0.0483  0.1045  0.0435
14120W        W33654   3.916  17.140   3.862 -0.1672 -0.1019 -0.4416
14121W        W33655  11.599   5.968  10.542 -0.3114 -0.1818 -0.0254
14122W        W33656   6.444  15.090  15.311  0.1246  0.0521 -0.1636
14123W        W33657   9.847  11.411   3.404 -0.1669  0.1457 -0.0002
14124W        W33658   3.618  17.143   3.021 -0.1102  0.1181  0.1069
14125W        W33659  17.026  15.628  14.501 -0.0114 -0.1296  0.0912
14126W        W33660  14.747  10.347  11.471 -0.0847  0.0513  0.1643
14127W        W33661  17.415   1.991   0.460  0.0442 -0.0829 -0.0072
14128W        W33662  11.347  12.564   1.326  0.1212  0.1066 -0.3462
14129W        W33663   0.103  14.418   4.149  0.2757  0.3135 -0.1993
14130W        W33664   9.492  10.055   1.482  0.0620  0.3029  0.0502
14131W        W33665   6.476   7.294  15.216 -0.1367  0.3790 -0.1453
14132W        W33666   2.693  13.899   1.338  0.1100 -0.0870  0.0286
14133W        W33667  16.553   1.268   1.003 -0.0672  0.1003 -0.0119
14134W        W33668   4.974   7.421  13.980  0.2293  0.0148 -0.1029
14135W        W33669  18.033  15.862   3.600 -0.0954 -0.0509 -0.2561
14136W        W33670   8.570  17.927   1.626 -0.0544  0.2195  0.2986
14137W        W33671  13.367   8.541   2.932 -0.0271  0.1799  0.1005
14138W        W33672  11.142  14.356  14.346  0.2131 -0.2031 -0.2307
14139W        W33673  13.378   6.531   1.633 -0.2373 -0.2985  0.0636
14140W        W33674   9.699  12.381  12.170 -0.0691 -0.1677 -0.0719
14141W        W33675  13.153   5.728   1.931 -0.0889 -0.1207 -0.1128
14142W        W33676  14.551   2.493  14.276 -0.2231  0.0708 -0.3233
14143W        W33677  11.002  11.761   2.545 -0.1462  0.2476  0.0523
14144W        W33678  16.970  12.214  15.732  0.0871  0.0325  0.2526
14145W        W33679   5.724   7.746  11.360  0.4109  0.0882  0.3201
14146W        W33680   3.414  11.301  12.864  0.3055 -0.2382  0.0097
14147W        W33681   4.962  12.498   1.235  0.3538  0.0322  0.2316
14148W        W33682  15.182   0.169  12.488  0.0024 -0.1061 -0.0121
14149W        W33683   6.473   3.528  14.355 -0.0677  0.0913 -0.1052
14150W        W33684  17.509  11.037   0.848 -0.1765  0.1589  0.1455
14151W        W33685  14.987   8.464  14.740  0.2321 -0.0366  0.0242
14152W        W33686   6.994  14.691   3.807  0.1325  0.0041 -0.2003
14153W        W33687   1.874   8.635   0.170 -0.0303  0.2016  0.1812
14154W        W33688  14.005  14.091   2.485 -0.1704 -0.1672 -0.2769
14155W        W33689  10.180   9.774  12.003  0.0174  0.0191  0.1668
14156W        W33690  11.726   0.215   1.902 -0.2437 -0.1912 -0.1051
14157W        W33691   7.798  15.968  14.874 -0.2797  0.0237 -0.1209
14158W        W33692  12.959  15.558   2.587  0.4308 -0.0236  0.1876
14159W        W33693   8.735  15.300   3.817 -0.0223  0.2470  0.2721
14160W        W33694   8.929  18.040   2.580  0.0573  0.4050 -0.0758
14161W        W33695  17.893  13.403  13.299  0.0179 -0.1877  0.1054
14162W        W33696   0.079   1.616   2.942 -0.0869  0.1364  0.0647
14163W        W33697   9.581   4.067  12.644 -0.1710  0.1735  0.3052
14164W        W33698   9.650   4.713   2.686  0.3986 -0.0637 -0.0749
14165W        W33699   5.701   0.905   0.938 -0.2587  0.1267  0.2534
14166W        W33700  11.405   2.844  13.629 -0.2465  0.1165 -0.0199
14167W        W33701  14.982   4.204   1.897  0.0789  0.0116  0.1754
14168W        W33702   4.588  15.565   2.139  0.2532 -0.1864 -0.3155
14169W        W33703   9.295   9.584  11.304 -0.1237 -0.3337 -0.0533
14170W        W33704  18.340   0.250  15.206  0.1092  0.1149  0.1119
14171W        W33705   3.367   3.756  11.941  0.0218 -0.1854 -0.1147
14172W        W33706   9.919   8.956  14.213 -0.0998 -0.2474  0.0549
14173W        W33707  16.828  14.893  15.775 -0.1484 -0.0577  0.3419
14174W        W33708   9.673   7.323   4.223  0.0639 -0.0663 -0.0158
14175W        W33709   2.516   3.470   0.166  0.0346  0.0229 -0.0047
14176W        W33710  15.043   7.294   1.409  0.0271  0.1792 -0.1327
14177W        W33711  18.265  16.608   0.472  0.1833  0.1295 -0.1174
14178W        W33712   1.454   5.595  10.946  0.0526 -0.0479 -0.1391
14179W        W33713   2.361  13.607   2.275 -0.0254 -0.0206 -0.2160
14180W        W33714   8.816  18.102   2.033  0.1312 -0.1163  0.0550
14181W        W33715  12.310   9.676  12.327 -0.0578  0.2456  0.1497
14182W        W33716  15.743  15.220   2.713  0.0981 -0.0416 -0.2872
14183W        W33717   5.638   3.992  14.222  0.1588  0.0521  0.2006
14184W        W33718   1.672   4.477  13.984  0.1389  0.0746  0.3312
14185W        W33719  11.412   7.930  13.165  0.0985 -0.1088 -0.1620
14186W        W33720  11.771   2.746  14.482 -0.2646  0.2063 -0.0329
14187W        W33721  18.089   2.581   2.452 -0.0432  0.2213 -0.0757
14188W        W33722  12.955  17.269  15.742  0.5216  0.2584  0.1589
14189W        W33723  17.567  16.308   0.720  0.0673  0.2242 -0.1287
14190W        W33724   8.018  12.606  15.019 -0.3609  0.0615  0.1572
14191W        W33725  14.950   5.807  11.718 -0.1222  0.2220 -0.0708
14192W        W33726  13.726  15.174  11.203 -0.0959 -0.1778 -0.1052
14193W        W33727  16.662   2.728  11.319 -0.1390  0.0618 -0.0386
14194W        W33728  10.014   8.808  14.687  0.1520 -0.3704 -0.0112
14195W        W33729   1.280   7.522  11.689 -0.2011  0.1598  0.1705
14196W        W33730  17.784  18.140   4.260 -0.1078  0.0259 -0.1378
14197W        W33731   1.341   6.904   0.772  0.3926 -0.0467 -0.1832
14198W        W33732  13.146  12.299  14.363 -0.0286  0.0350  0.3505
14199W        W33733   0.700  16.848   1.407  0.1423  0.3014  0.0443
14200W        W33734  10.571   3.112   0.132  0.0330  0.0470  0.0646
14201W        W33735   3.314   2.484   0.820  0.2044 -0.1448  0.1683
14202W        W33736  15.630   3.832  12.213  0.2890 -0.2014  0.1053
14203W        W33737  12.136  10.993   3.756  0.0178  0.1273 -0.0231
14204W        W33738  17.224  15.125  11.194 -0.0385 -0.1325 -0.1381
14205W        W33739   0.287  14.172   2.616 -0.1415  0.1606 -0.4117
14206W        W33740   8.478   9.367   2.478 -0.1389 -0.1284  0.1729
14207W        W33741   0.272   3.691  13.305  0.1782  0.0151 -0.0281
14208W        W33742  17.715   1.680   2.145 -0.1520  0.0241 -0.2389
14209W        W33743  12.455  14.967   1.110 -0.1564  0.0703  0.2591
14210W        W33744   0.023  16.701   0.959  0.0014 -0.1130 -0.2777
14211W        W33745  17.491   2.676  11.397  0.0585 -0.1875  0.3544
14212W        W33746  13.959   6.158  14.872  0.1265 -0.1114  0.1386
14213W        W33747  12.256   8.730  12.158  0.1062  0.1437  0.1866
14214W        W33748  13.013  10.262  13.369  0.0335  0.3362  0.0648
14215W        W33749  16.307  13.950   2.333  0.1075  0.1617 -0.0391
14216W        W33750  10.218  14.744   1.104 -0.2417 -0.2249 -0.0936
14217W        W33751  17.976   3.138   2.420  0.0194 -0.0600  0.2788
14218W        W33752   2.722   1.159  12.277  0.3286 -0.0397  0.0932
14219W        W33753   5.911   0.938  13.958 -0.3152 -0.1173 -0.0075
14220W        W33754   2.975  11.136  12.674  0.3386 -0.0005 -0.0317
14221W        W33755   6.064   7.255  14.328 -0.0072  0.0287  0.1438
14222W        W33756  12.559   9.023  14.026  0.4408  0.0255 -0.2460
14223W        W33757   9.464  18.019  13.730 -0.0181  0.1402  0.1055
14224W        W33758   7.295   5.451  11.984 -0.0420  0.0797 -0.0487
14225W        W33759   0.110   7.161   1.922 -0.2083  0.2889  0.3217
14226W        W33760   8.517   2.626   0.147 -0.0047  0.2523  0.2282
14227W        W33761  11.808   8.859   1.905  0.0001 -0.3819  0.0791
14228W        W33762   5.290   2.415  13.383 -0.0814 -0.1661 -0.0803
14229W        W33763   3.898  12.250   0.769  0.6013 -0.0896  0.1084
14230W        W33764  17.413  10.824   4.215 -0.0923 -0.3413 -0.0034
14231W        W33765  18.037  14.530  11.809 -0.2541 -0.0645 -0.1300
14232W        W33766  10.516   6.247   0.379  0.0949  0.3909  0.2024
14233W        W33767   0.058  10.748   0.840 -0.1512  0.2227  0.0459
14234W        W33768  15.162   2.351  15.178  0.0112  0.0623  0.1763
14235W        W33769  13.945   2.775  11.863 -0.3008  0.2863  0.4490
14236W        W33770   4.359   7.992  14.318  0.0107 -0.1738 -0.2446
14237W        W33771   8.078  12.149  11.116  0.0638 -0.0955 -0.0795
14238W        W33772   5.360   9.472  14.460  0.2989  0.0627  0.2460
14239W        W33773  16.938   9.932  14.727  0.2961 -0.2669  0.0957
14240W        W33774  18.149  14.845   2.027 -0.0088 -0.0491  0.0737
14241W        W33775   4.046   9.600  11.676  0.0561 -0.3515  0.0344
14242W        W33776  11.308   1.941   0.504 -0.2891  0.0313 -0.1705
14243W        W33777  16.757   5.648  13.566  0.1358  0.1428  0.0855
14244W        W33778   3.497   9.213   2.751 -0.0692 -0.0311  0.2669
14245W        W33779   9.698  15.392   2.860  0.0758  0.1848 -0.0979
14246W        W33780   2.937   1.775  11.876  0.2476 -0.0017  0.1310
14247W        W33781   7.523  12.249   0.827  0.2808  0.0390 -0.0143
14248W        W33782  17.223  15.614  13.455  0.3476  0.2619 -0.2342
14249W        W33783  10.857   7.983   4.435  0.3884 -0.1635 -0.1458
14250W        W33784  16.695   2.680   0.446 -0.3922 -0.2555 -0.1121
14251W        W33785   0.990  14.170   0.023 -0.1301 -0.1752 -0.0139
14252W        W33786   2.935  13.797   0.941 -0.1797 -0.3020 -0.0024
14253W        W33787   8.852   6.322  14.343 -0.0322 -0.1142 -0.2257
14254W        W33788  11.612   6.084   3.109 -0.2698  0.1337 -0.0522
14255W        W33789  16.495   1.939   4.653  0.1935 -0.1848 -0.0642
14256W        W33790  16.708  11.027   2.623 -0.1438  0.1341  0.0550
14257W        W33791  15.291  16.707  14.464 -0.1148  0.1515  0.0185
14258W        W33792  15.564   6.097   1.111 -0.1012 -0.0030 -0.1251
14259W        W33793  13.189  13.425   3.472  0.0002 -0.0706  0.2884
14260W        W33794  18.355  11.370   3.979 -0.1350 -0.0909  0.0097
14261W        W33795  13.512   9.594   1.020  0.1692 -0.0596 -0.1744
14262W        W33796   6.011  10.018  14.635 -0.3282 -0.2047 -0.2703
14263W        W33797   2.098   2.344  11.426 -0.0204 -0.1103 -0.0211
14264W        W33798   6.798  12.144   3.821  0.0420  0.1573  0.1908
14265W        W33799   5.570   9.799  11.629 -0.3110  0.0545  0.1507
14266W        W33800  16.459  13.526   0.686 -0.1056 -0.0786 -0.1579
14267W        W33801   2.026   1.249   1.724 -0.0692  0.2660  0.0116
14268W        W33802   5.808  11.696   2.046  0.1907 -0.2000  0.1084
14269W        W33803  14.308  13.893   1.210  0.1862 -0.0639  0.4351
14270W        W33804   6.715   7.500  12.223 -0.0602 -0.3171  0.2165
14271W        W33805  16.831   5.246  11.961  0.3040  0.1349  0.1793
14272W        W33806  10.174   0.371  14.461  0.0550 -0.0904  0.0428
14273W        W33807   3.063  15.384   4.628 -0.0254 -0.1246 -0.1732
14274W        W33808  13.553   1.729  13.547  0.1846 -0.1666  0.0197
14275W        W33809  16.846  13.803  14.947 -0.1176 -0.0391 -0.1306
14276W        W33810   5.087   6.958  15.489 -0.3252 -0.1154 -0.1057
14277W        W33811   7.974   2.757  12.506 -0.1374 -0.1858 -0.3205
14278W        W33812   1.658   3.049  12.079  0.1167  0.3226  0.3261
14279W        W33813  10.275  12.667   0.307 -0.1646  0.2064 -0.2532
14280W        W33814   1.966  16.331  14.573 -0.1898 -0.2271 -0.0161
14281W        W33815   1.502  16.193  12.200  0.0029  0.0432  0.4572
14282W        W33816  10.199   3.809  14.619 -0.1501 -0.1236  0.1352
14283W        W33817  11.502   3.584   3.564 -0.2556 -0.0056  0.3951
14284W        W33818  14.316   5.035   0.408 -0.0594  0.1444  0.1394
14285W        W33819   3.755   4.602  15.308 -0.0452  0.1713  0.1413
14286W        W33820   8.255   6.858   0.855  0.1078 -0.0926 -0.0448
14287W        W33821  11.397   2.079  11.366  0.0197  0.0621 -0.1636
14288W        W33822  12.533   5.747  12.608  0.2300  0.0265 -0.1170
14289W        W33823  13.468  12.049  13.737  0.0379 -0.0466 -0.1203
14290W        W33824   8.698  10.960  11.959 -0.2065  0.2300  0.2289
14291W        W33825   4.490  16.937  11.803  0.0627 -0.0095 -0.0258
14292W        W33826  17.343   0.542   1.760  0.2711  0.0473 -0.1547
14293W        W33827  14.312   3.968  11.766  0.0374 -0.3253 -0.0221
14294W        W33828  16.944  10.813  14.422 -0.2621  0.0116 -0.1646
14295W        W33829   3.732  12.955  13.213  0.2930 -0.0305 -0.2806
14296W        W33830  11.517   8.709  11.688 -0.1165 -0.0543  0.2953
14297W        W33831   8.286   3.544  14.540  0.0897  0.3070 -0.1176
14298W        W33832  12.864   7.455  14.890  0.0545  0.0096 -0.2753
14299W        W33833  14.313   5.082   2.136  0.3095  0.1133 -0.3045
14300W        W33834  18.185   3.744  13.491  0.0427  0.1150 -0.1237
14301W        W33835   4.350  15.763   1.430  0.0900  0.1928 -0.1136
14302W        W33836  11.745  17.169   6.233 -0.1078 -0.1400  0.1139
14303W        W33837  13.190   2.686   1.594 -0.1946 -0.0251 -0.2427
14304W        W33838   1.586   4.757   3.461 -0.0798  0.0642  0.0178
14305W        W33839  17.705  12.145   4.749  0.2940 -0.0435 -0.0251
14306W        W33840   4.109  10.321   4.455 -0.0826 -0.2034  0.2996
14307W        W33841  16.751   6.910   0.077 -0.2217  0.3243  0.0353
14308W        W33842   3.675   6.715   4.375  0.0121 -0.0921  0.0245
14309W        W33843   5.388   3.258   3.459 -0.1349 -0.0400 -0.0493
14310W        W33844  12.113  14.579  10.766  0.0373 -0.0583 -0.0533
14311W        W33845  14.803  16.396   3.010  0.1979 -0.1258 -0.1733
14312W        W33846   2.015   7.952   3.354  0.3817 -0.4496  0.2771
14313W        W33847   2.013  15.978  11.998  0.2768 -0.0628 -0.0335
14314W        W33848   5.079   9.783  11.485  0.1358  0.3466 -0.2097
14315W        W33849   2.268   8.723  13.564 -0.0403 -0.1685  0.1105
14316W        W33850   0.343  17.334   3.972  0.0984 -0.0270 -0.1931
14317W        W33851  14.183  17.633   4.152  0.1002  0.1840 -0.1289
14318W        W33852  12.872  12.595  14.710 -0.0599 -0.1761  0.0878
14319W        W33853  10.218  10.748   1.105 -0.0966  0.0631  0.1351
14320W        W33854  17.814  10.002  12.061 -0.1039 -0.3582 -0.1090
14321W        W33855   6.160   9.938  15.412 -0.1262 -0.1595  0.2124
14322W        W33856  17.166  12.226   2.691  0.0562 -0.2351 -0.2368
14323W        W33857   2.519  17.443   2.422  0.3576 -0.1801 -0.1437
14324W        W33858   6.880   0.226  15.605 -0.1134 -0.0436  0.2997
14325W        W33859   8.374   4.690   2.183 -0.2750  0.0345 -0.0403
14326W        W33860   5.046  14.406  12.458 -0.1171 -0.2166 -0.2169
14327W        W33861   2.889   7.082   0.355  0.2995 -0.3730  0.2037
14328W        W33862   6.564   4.190  11.396  0.3909 -0.1344  0.1267
14329W        W33863   4.773  11.534  13.460  0.1350  0.2565  0.0839
14330W        W33864  17.946   5.760   1.394 -0.1927 -0.0378  0.0544
14331W        W33865  11.103   7.195   1.683  0.1389  0.3065 -0.0949
14332W        W33866  18.090   6.065  12.093  0.0564 -0.3256 -0.4434
14333W        W33867   0.165   5.687   1.422  0.0206 -0.0103 -0.0185
14334W        W33868  14.978   8.864   3.201  0.0504 -0.1831 -0.0579
14335W        W33869   6.456   0.554  13.106 -0.5467  0.0952  0.0171
14336W        W33870  16.541  17.550  13.128 -0.1422  0.1165  0.0035
14337W        W33871   2.830  13.093  12.717  0.0617  0.0262 -0.0497
14338W        W33872   1.194   1.201   3.996  0.1058  0.3249  0.0530
14339W        W33873  12.418   0.094   0.364  0.0336  0.0056  0.2621
14340W        W33874  10.499  16.575   3.402 -0.1277 -0.2458  0.1296
14341W        W33875   8.234  14.019  10.957  0.2186  0.3747 -0.1084
14342W        W33876   6.792   0.889  14.851  0.2003 -0.1715  0.3527
14343W        W33877  11.470   7.358  15.176 -0.1420 -0.1809  0.1801
14344W        W33878  14.113   4.389   0.524 -0.1057  0.0843  0.1146
14345W        W33879   7.003  14.204   3.642  0.1410 -0.1438 -0.0166
14346W        W33880   9.317  12.751   1.299 -0.0530  0.0012 -0.0322
14347W        W33881   5.703   8.201  14.278  0.1891  0.0014  0.3789
14348W        W33882   0.184  17.220   4.513 -0.0880 -0.0157  0.0583
14349W        W33883   9.936   0.970   1.809  0.2787 -0.0307  0.0893
14350W        W33884   6.042   3.662  13.548 -0.1653  0.0766  0.2409
14351W        W33885   4.231   1.283   4.264 -0.0814 -0.1235 -0.2854
14352W        W33886   2.068  12.418   3.001  0.1524  0.2185 -0.3543
14353W        W33887  10.497   2.757   4.032  0.1278  0.1142  0.1787
14354W        W33888  16.906  14.533   2.280  0.1259 -0.1092  0.2105
14355W        W33889   7.190  17.959  11.668 -0.0656 -0.2171  0.0246
14356W        W33890   4.553  11.012   0.091  0.0215 -0.0582 -0.0758
14357W        W33891   7.944   9.247  12.799 -0.2061 -0.4470  0.4026
14358W        W33892  14.940   2.021  14.107 -0.2183 -0.2167  0.1247
14359W        W33893   8.652  15.777   4.556  0.0224 -0.2542 -0.0088
14360W        W33894   4.699  16.614   2.601 -0.0019 -0.1527 -0.2213
14361W        W33895  17.945   2.829  11.326  0.0753 -0.3623  0.2049
14362W        W33896  10.491   9.553   0.812  0.2047  0.1864 -0.2269
14363W        W33897   3.989   9.828  15.326  0.2203 -0.3871 -0.1976
14364W        W33898   0.755  14.454  15.087 -0.2353  0.3352  0.2931
14365W        W33899  11.146   9.892  12.420  0.0296  0.0492 -0.0880
14366W        W33900  15.205  14.494   3.192  0.1558 -0.1740 -0.1189
14367W        W33901  16.448  16.928   0.731  0.2338 -0.3575  0.1467
14368W        W33902  14.667  15.498  14.684 -0.3017 -0.0504 -0.0683
14369W        W33903   6.611   9.384  12.346  0.1072  0.0243  0.1359
14370W        W33904   8.428  11.905  15.740  0.0779 -0.1511 -0.4744
14371W        W33905  14.854   2.394  13.734  0.1520  0.2171  0.0179
14372W        W33906   3.041  11.684  12.980 -0.0060  0.1405 -0.0087
14373W        W33907  16.573   5.791  13.141 -0.0829  0.2010  0.3306
14374W        W33908   8.514  14.002   4.285  0.5160 -0.1314  0.1132
14375W        W33909  14.986  12.203   3.189  0.2814  0.1192  0.2856
14376W        W33910   1.597  10.172   2.349  0.0079 -0.2507 -0.1715
14377W        W33911   3.907   2.733   1.326 -0.1613 -0.1949  0.0480
14378W        W33912  15.819   0.779   4.175  0.2215 -0.0663  0.0535
14379W        W33913   6.252  18.232  11.284  0.0977 -0.0514  0.2298
14380W        W33914  13.731  11.632   3.739 -0.0251  0.2141  0.3241
14381W        W33915   1.215  15.672   0.317  0.1574  0.1086  0.0473
14382W        W33916  16.566  17.487  15.108  0.0069 -0.0125  0.1025
14383W        W33917   4.814   8.019   2.036 -0.0505 -0.0062  0.2434
14384W        W33918   7.653   7.930  15.319 -0.1587  0.2815  0.0154
14385W        W33919   8.060  18.175   1.950  0.1578  0.1280 -0.0027
14386W        W33920  11.370  15.504   1.345 -0.1353  0.1342  0.3409
14387W        W33921   7.517  17.340  12.971 -0.0478 -0.0091 -0.0545
14388W        W33922  16.289   7.365   1.015 -0.0788 -0.0459 -0.0096
14389W        W33923   2.250   5.193  13.920 -0.2069 -0.3298 -0.1427
14390W        W33924   6.578  17.563   1.722  0.1777  0.3166 -0.0748
14391W        W33925   0.760   4.678  12.233  0.2634 -0.3286  0.2643
14392W        W33926   6.583  10.186   3.003 -0.2519 -0.0749 -0.0034
14393W        W33927   8.619   0.630   3.580 -0.0353 -0.2199  0.1848
14394W        W33928  12.070  13.105  11.801  0.1010 -0.1384  0.2422
14395W        W33929   3.460   8.182   4.532  0.1686 -0.0211 -0.0544
14396W        W33930   3.029   4.524  13.810  0.0135 -0.0334 -0.0008
14397W        W33931   9.737  16.323  11.848  0.1286 -0.2030  0.1087
14398W        W33932  17.559  16.655  14.489 -0.0074 -0.4003 -0.2163
14399W        W33933  11.277  13.141  15.295 -0.0281  0.2397  0.0661
14400W        W33934   5.580   6.094   0.739 -0.0448  0.0009 -0.0918
14401W        W33935   2.999   7.105   3.421  0.1311 -0.0661  0.0525
14402W        W33936   3.552   3.212   4.893  0.0740  0.2182 -0.0019
14403W        W33937  18.370   2.238  15.573 -0.1082  0.0649  0.1024
14404W        W33938  12.289   4.867  15.338 -0.0217 -0.0751 -0.1088
14405W        W33939  14.537   3.606   0.784 -0.2815  0.0967  0.1945
14406W        W33940  16.547   1.123   5.323 -0.0552  0.0614 -0.0595
14407W        W33941  14.305   3.788   3.465  0.1686 -0.1821  0.0669
14408W        W33942   3.068   5.245   0.207  0.1667  0.2066  0.0225
14409W        W33943   3.126   1.450  12.781  0.1114 -0.0721 -0.4142
14410W        W33944  14.938  13.510   3.506 -0.1275  0.0470  0.0103
14411W        W33945  13.580   3.200   4.453 -0.0966 -0.0494 -0.0194
14412W        W33946   7.734  18.114   2.400 -0.3724  0.1373 -0.0961
14413W        W33947  10.092  10.351  12.631 -0.2345  0.0214 -0.1773
14414W        W33948   0.563   8.168  12.676 -0.1545  0.1331  0.2286
14415W        W33949   5.109   7.924   0.886  0.0211 -0.3367  0.1870
14416W        W33950   8.275  16.066  15.068  0.3835 -0.3605 -0.0082
14417W        W33951  13.377  15.247  14.508  0.0886  0.1269  0.1556
14418W        W33952   3.676   4.243  13.991  0.3275 -0.0350 -0.0282
14419W        W33953  11.501  15.277  12.308  0.1175  0.1009  0.0135
14420W        W33954   8.822   3.612  14.386  0.1110  0.1585 -0.0004
14421W        W33955   3.838   8.937  13.931  0.1020  0.3199  0.1858
14422W        W33956  14.830  17.235  13.142  0.2255  0.2423 -0.1712
14423W        W33957  13.365  13.358  13.501 -0.3057 -0.1324 -0.1275
14424W        W33958  13.011   1.574   2.262 -0.2288 -0.2410 -0.2714
14425W        W33959  10.256  15.989  12.577  0.2143  0.0126  0.0099
14426W        W33960   7.738   9.649  14.122  0.2503 -0.1967 -0.4147
14427W        W33961   2.849  14.354   3.369  0.0902  0.1320  0.1942
14428W        W33962   2.290  14.438   4.542 -0.1324 -0.0651 -0.0582
14429W        W33963   8.203   4.594  15.165  0.2090  0.2406 -0.1552
14430W        W33964   7.818   3.373   3.711  0.2022 -0.0620  0.1744
14431W        W33965   7.792  15.987  12.817 -0.2450 -0.0170  0.1528
14432W        W33966   9.683   8.331  11.666  0.0672  0.0921  0.1283
14433W        W33967   6.775   5.061   9.979  0.1117  0.0465 -0.2323
14434W        W33968   4.274  15.007  15.691 -0.1002 -0.2366  0.1276
14435W        W33969   7.449   6.880  12.479  0.1455 -0.2282 -0.1373
14436W        W33970  16.259   6.868   1.426 -0.0410 -0.2077  0.2611
14437W        W33971  15.327   7.621   0.449  0.2451  0.1165 -0.0652
14438W        W33972   4.086   0.673   4.154 -0.2206  0.1201  0.0825
14439W        W33973  13.751  14.999   0.223  0.1391 -0.0788 -0.3971
14440W        W33974  13.324   2.737  13.636 -0.2498  0.0659 -0.0454
14441W        W33975   7.854  16.168  12.103 -0.1408  0.0827 -0.2358
14442W        W33976   8.227  10.294   2.695 -0.1890 -0.3164 -0.1260
14443W        W33977  12.410  11.202   2.597 -0.0336  0.1627  0.0632
14444W        W33978   6.432  10.641   3.242 -0.2578  0.3852  0.0811
14445W        W33979  13.199  11.634  13.051  0.0405  0.0551 -0.0686
14446W        W33980   0.463  14.115  13.945  0.1236  0.0456 -0.0218
14447W        W33981   5.489   1.964   0.486 -0.0459  0.0703  0.2347
14448W        W33982   6.625  15.387   1.385  0.4019 -0.4584  0.0073
14449W        W33983   9.515   9.028   0.154 -0.0905  0.1502 -0.1485
14450W        W33984   0.460  16.892   3.614  0.2254  0.0609 -0.0509
14451W        W33985   4.565  15.776  14.191 -0.3241 -0.1020 -0.1441
14452W        W33986   9.121  13.190  14.516  0.3661  0.2906  0.0995
14453W        W33987   8.191   1.402  15.536 -0.1098  0.0042  0.0461
14454W        W33988  13.849  12.904   1.921 -0.1371 -0.0354 -0.1385
14455W        W33989   3.688  11.801   0.954 -0.1012  0.0462  0.1050
14456W        W33990  10.269   3.736  12.569  0.2957 -0.0937  0.1732
14457W        W33991  10.265   7.900   3.697  0.0366  0.1828 -0.1201
14458W        W33992  10.212   0.657   0.118  0.2622  0.3607  0.4461
14459W        W33993   4.925  16.975  13.575 -0.1107  0.2349 -0.1000
14460W        W33994   1.192   4.804   0.282 -0.2162  0.0546  0.1306
14461W        W33995   5.099  12.731   4.162  0.2949 -0.1217  0.1290
14462W        W33996   9.812  15.201   4.836  0.2095  0.1838 -0.0618
14463W        W33997  11.251  15.884   0.904  0.1228  0.1037  0.1052
14464W        W33998  11.450   7.004  14.214  0.0326  0.0616 -0.0771
14465W        W33999   3.863   1.587   4.521 -0.1720 -0.0246 -0.0031
14466W        W34000  11.565   0.304   4.160  0.0741  0.0545  0.0503
14467W        W34001   5.414   3.651  13.616 -0.0059  0.1870  0.0242
14468W        W34002   3.016   5.492   3.908 -0.1230  0.1610 -0.0103
14469W        W34003   8.499  12.429  13.060 -0.1887  0.0281  0.0320
14470W        W34004   8.987  16.680   4.618  0.0440 -0.2185 -0.3509
14471W        W34005   4.583   0.276   3.243 -0.0598 -0.1177 -0.0939
14472W        W34006   0.044  13.266   3.808  0.1475 -0.0100 -0.1204
14473W        W34007   8.543  16.361  11.537  0.0208 -0.0293 -0.0491
14474W        W34008  18.175  14.446   0.169  0.0698  0.1495 -0.1366
14475W        W34009   1.381  12.085   4.368 -0.0954  0.1162 -0.4174
14476W        W34010   9.475  14.693   2.175 -0.0036 -0.1010 -0.2540
14477W        W34011   6.623   9.964   1.300  0.0462 -0.0354 -0.0863
14478W        W34012  12.444  17.301   2.603 -0.0092  0.0081 -0.1373
14479W        W34013   0.886  12.416  13.189 -0.3756  0.0061 -0.2003
14480W        W34014   4.311   7.218  15.671  0.0398 -0.0446 -0.0316
14481W        W34015   4.620   5.004  11.976  0.1193  0.0362 -0.0755
14482W        W34016  10.112   3.412  13.669 -0.0548 -0.1315 -0.0306
14483W        W34017  13.858  16.943   0.718  0.0931 -0.0274  0.3053
14484W        W34018  14.006   6.911   2.281  0.0450  0.0658  0.1249
14485W        W34019   0.065  15.920   1.163 -0.0303 -0.0176 -0.2475
14486W        W34020  13.702  11.364   1.589 -0.2091 -0.0011  0.2766
14487W        W34021  16.250   7.923  14.753  0.1069  0.1083  0.2862
14488W        W34022  17.265  14.643  11.364  0.3442 -0.1146 -0.1520
14489W        W34023  15.405   0.267  13.336  0.2561  0.0937 -0.1030
14490W        W34024  17.967   9.668   1.600 -0.0402  0.1562 -0.2426
14491W        W34025   0.353   3.471  11.705 -0.3535 -0.1015 -0.0643
14492W        W34026  14.342   0.591  12.267 -0.0311  0.1561  0.1381
14493W        W34027  17.309   1.040   0.533  0.1043  0.0831 -0.0030
14494W        W34028   2.635   5.603  13.917  0.3317  0.0671  0.0631
14495W        W34029  15.299  17.847  15.296 -0.0944  0.2380 -0.1839
14496W        W34030  17.702  18.095  11.950 -0.1516 -0.2340  0.0477
14497W        W34031   1.687  16.691  14.896  0.2746 -0.0207  0.0267
14498W        W34032  15.971  16.214   2.786 -0.0614  0.0927 -0.0757
14499W        W34033  13.563  15.497   4.825  0.0834  0.2899  0.0509
14500W        W34034   1.937   8.466  15.555  0.3062  0.1235 -0.0849
14501W        W34035   5.493   1.068   4.096  0.0937 -0.1433  0.1792
14502W        W34036  15.358   6.084   4.145 -0.1672 -0.0766  0.2663
14503W        W34037  17.738   7.068   4.196 -0.1222 -0.3338 -0.0675
14504W        W34038  14.181   6.405   0.136  0.4809  0.3709  0.1906
14505W        W34039   5.767   1.592   1.524 -0.0007  0.1038  0.4188
14506W        W34040  12.071  16.823   2.619  0.1090  0.2237  0.3402
14507W        W34041   8.746  14.642  15.412  0.2489 -0.3914  0.0141
14508W        W34042   0.548   9.770   0.533  0.0229 -0.0598  0.0923
14509W        W34043  12.048   9.886  14.980 -0.0199 -0.1705  0.0075
14510W        W34044  11.110   6.275  13.893  0.0124  0.1755 -0.1276
14511W        W34045   0.444  13.620   3.470  0.2084  0.1477 -0.1703
14512W        W34046   7.035  16.584  14.429  0.1050  0.0238 -0.3214
14513W        W34047  13.995   7.258   2.675 -0.0057  0.0794  0.0480
14514W        W34048   9.026  13.607  12.657  0.0768  0.1457  0.3303
14515W        W34049   9.037  14.082  12.741  0.1719  0.2363 -0.2801
14516W        W34050  14.039  16.055  14.322 -0.2610  0.1097 -0.1254
14517W        W34051   6.711  18.042   1.513  0.0096 -0.1713 -0.1305
14518W        W34052   9.822  13.408   3.714 -0.0784  0.5390 -0.0440
14519W        W34053  15.856   0.699  14.614  0.0006  0.0477  0.0118
14520W        W34054  14.815   0.551   3.826 -0.0933  0.1048  0.1553
14521W        W34055  10.086   3.861   1.081 -0.2550 -0.2219  0.3411
14522W        W34056  10.978   9.166   3.264  0.1515  0.3563  0.2050
14523W        W34057   6.339   7.853   1.567 -0.0463  0.0724 -0.0955
14524W        W34058  15.890   1.723   0.947 -0.3710  0.0819  0.0545
14525W        W34059   1.171   2.287   3.512  0.0367 -0.1937  0.0593
14526W        W34060   0.410   9.629   4.144  0.1550  0.2196 -0.4303
14527W        W34061  12.243  12.529   2.348  0.1612  0.2821  0.0844
14528W        W34062   3.879  12.263   2.137  0.1555 -0.0452 -0.2666
14529W        W34063  17.614  11.176  10.543  0.0718 -0.4546 -0.0233
14530W        W34064  16.069   6.448  13.998 -0.2591 -0.0313  0.2781
14531W        W34065  11.093   0.119  11.695 -0.1043 -0.3696 -0.0038
14532W        W34066  16.144  12.450   4.440  0.2850 -0.0805 -0.1148
14533W        W34067   5.122   4.048   5.045  0.0169  0.0973 -0.2163
14534W        W34068   8.348  11.790  13.778 -0.0574  0.2984  0.0202
14535W        W34069   9.706  10.362   3.470 -0.0810  0.1156  0.1079
14536W        W34070  12.083   5.546   0.476 -0.2087 -0.0343  0.1466
14537W        W34071   6.088  16.134   2.296 -0.0912  0.0828 -0.0628
14538W        W34072   2.961  12.448  14.551  0.3532 -0.0407  0.2676
14539W        W34073   2.475  14.246  12.011 -0.2984  0.2265  0.0079
14540W        W34074   7.905  17.395   4.219 -0.0223 -0.1259  0.1992
14541W        W34075   5.316   8.361  11.050 -0.0186 -0.0977  0.0835
14542W        W34076   9.481  15.208   1.837  0.3059  0.0844 -0.0996
14543W        W34077   7.113  11.626   0.355  0.2326  0.1042  0.2972
14544W        W34078  10.549   3.014  14.834 -0.3024  0.0372  0.0501
14545W        W34079  13.584  16.185  14.313  0.2388 -0.2369  0.0863
14546W        W34080   7.248  13.058   0.269  0.1058 -0.2757 -0.1299
14547W        W34081   8.277  14.159  14.217 -0.0365 -0.2495 -0.2199
14548W        W34082  16.048   5.046   0.817 -0.1723  0.2434  0.4233
14549W        W34083  11.922  14.489   4.910 -0.2459 -0.0782  0.1225
14550W        W34084   8.345   5.397  14.194  0.2397  0.2259 -0.0689
14551W        W34085  10.924   2.451  14.294  0.2462 -0.1226  0.0950
14552W        W34086  17.843   2.075   2.461 -0.1120 -0.3013 -0.1011
14553W        W34087  17.576  16.687  12.227 -0.3303  0.0811 -0.1573
14554W        W34088   5.790  15.173  15.407 -0.3700 -0.2103 -0.1354
14555W        W34089   9.606   9.918  13.466  0.1373  0.1058  0.1003
14556W        W34090  16.223  12.579  10.955 -0.0819 -0.0447  0.1343
14557W        W34091   9.405   2.531  14.105  0.2029  0.0844 -0.1986
14558W        W34092   8.741   7.899  13.463 -0.0611  0.2609 -0.0633
14559W        W34093  11.845   6.327   0.892 -0.0905  0.2307  0.2042
14560W        W34094   8.194   7.998   5.042  0.2367  0.1541  0.0283
14561W        W34095   4.316   3.389  14.405 -0.3478  0.3345  0.2223
14562W        W34096   4.773  15.889  12.761  0.1030  0.1792  0.0760
14563W        W34097   1.273  13.633   2.028  0.0554  0.0780  0.1729
14564W        W34098   4.380  13.900  11.323  0.0080 -0.1188  0.0544
14565W        W34099  12.785  12.504   2.739 -0.0473 -0.0372  0.0706
14566W        W34100  14.409  16.384   4.122  0.1008  0.1489 -0.3837
14567W        W34101   4.324  11.009  14.266  0.3942 -0.2678 -0.2217
14568W        W34102   3.468  12.343  15.816 -0.1514  0.1632 -0.0291
14569W        W34103  15.820  15.959  13.889 -0.0216 -0.1682  0.2895
14570W        W34104   2.433   9.603  11.784  0.0706  0.0041  0.0166
14571W        W34105   2.416  17.636   0.654  0.0932 -0.1942  0.0574
14572W        W34106   0.633   6.215   0.613 -0.1961  0.3066  0.1977
14573W        W34107   9.941   9.393  11.835 -0.2577 -0.1690 -0.4846
14574W        W34108  10.401  17.943   2.087 -0.0131  0.1206  0.0340
14575W        W34109  11.950  16.508   3.026  0.0339 -0.0422 -0.0684
14576W        W34110  18.012   5.665  14.018 -0.0742 -0.2962  0.2344
14577W        W34111   1.859  10.360  12.009  0.1225 -0.0448  0.2951
14578W        W34112  13.925  12.672  13.610  0.2664 -0.3673  0.2553
14579W        W34113   1.438   8.794  10.869  0.1728 -0.3552 -0.0359
14580W        W34114   7.282  10.276  15.339  0.0633  0.1566 -0.1788
14581W        W34115  17.111   7.412  12.271 -0.2094 -0.0113 -0.2147
14582W        W34116  13.910  18.350  12.990 -0.3350  0.0421 -0.0647
14583W        W34117  13.452  16.802   4.880  0.2298  0.2173  0.2900
14584W        W34118   8.089   3.969  15.474 -0.1731  0.0150  0.2178
14585W        W34119  18.002  13.659  15.219  0.1101 -0.2851  0.1855
14586W        W34120   6.012  14.852  15.006  0.2011  0.1972  0.0212
14587W        W34121  10.212   6.982   1.046 -0.1659 -0.2465  0.0850
14588W        W34122   5.795  18.294  13.009  0.2345 -0.1798 -0.1542
14589W        W34123   6.769   9.735  14.841 -0.1555 -0.0409 -0.0675
14590W        W34124   7.593   7.068   3.098  0.1321 -0.1513  0.1100
14591W        W34125  15.242   0.663  12.376 -0.0608  0.2118 -0.2138
14592W        W34126  10.315  16.713  11.422 -0.0184  0.0338 -0.0251
14593W        W34127  18.113   4.370   1.320 -0.1224  0.0927  0.1642
14594W        W34128  14.197   4.976   4.119  0.2492 -0.2033  0.0508
14595W        W34129  10.357  15.310  13.866 -0.1941 -0.0063 -0.2332
14596W        W34130   3.179   7.566   0.452 -0.0543 -0.3826 -0.2202
14597W        W34131   1.693   3.025   3.378 -0.1680  0.0677  0.0010
14598W        W34132  15.535  18.258   0.252 -0.0436  0.1603  0.1923
14599W        W34133   3.837  16.605   3.246 -0.0675 -0.1181 -0.0933
14600W        W34134   1.825   0.909   3.820 -0.0276 -0.1309 -0.1222
14601W        W34135   0.929   5.193  13.916  0.1550 -0.1637 -0.1103
14602W        W34136  15.528  14.358  13.843 -0.2045  0.1504  0.1876
14603W        W34137  10.020   8.282   1.700 -0.0455  0.0266 -0.0565
14604W        W34138   7.140  16.638   0.796 -0.1117  0.0227 -0.1838
14605W        W34139   3.604  11.315   1.027  0.0210  0.1586  0.0587
14606W        W34140  10.243   7.320  13.808  0.0052 -0.0768  0.1968
14607W        W34141   7.507   7.493   4.453  0.1290 -0.4665  0.0688
14608W        W34142   0.014  11.203  13.111 -0.1044  0.0517 -0.0769
14609W        W34143   2.901   8.449   3.268 -0.1808  0.0796 -0.1134
14610W        W34144  15.772   3.862   1.772  0.0864 -0.1781  0.0727
14611W        W34145  17.953  16.860   0.889 -0.1263 -0.1275 -0.4895
14612W        W34146   4.174   0.471  13.985 -0.0784 -0.2480 -0.0720
14613W        W34147   6.576  12.441   3.510 -0.1398  0.1062  0.0264
14614W        W34148   8.537  13.226   4.473 -0.1428  0.1866  0.1135
14615W        W34149   5.327  13.283   2.091  0.1824  0.1245  0.0996
14616W        W34150   2.430   9.568  13.181 -0.2263  0.3175 -0.1287
14617W        W34151   1.829  16.205   3.226  0.2095 -0.2690  0.1583
14618W        W34152   9.309  15.020  11.443  0.1925 -0.4851  0.2905
14619W        W34153  17.265  10.583   3.773 -0.2260  0.1455  0.2992
14620W        W34154   9.893   2.833  11.556 -0.2846 -0.0962  0.2129
14621W        W34155  18.366  17.273  12.627 -0.1355 -0.1491  0.2960
14622W        W34156   2.965  15.534   0.630  0.1396  0.2030 -0.0846
14623W        W34157   2.549   2.525  11.371 -0.2441 -0.0238 -0.2643
14624W        W34158   6.675   3.978  15.110 -0.1116  0.1279 -0.3410
14625W        W34159  16.024  17.228  12.306 -0.0235 -0.0580 -0.0901
14626W        W34160   8.615   6.743  12.930  0.1489  0.1577  0.0477
14627W        W34161  10.929  18.272   2.057 -0.0396  0.0003 -0.1109
14628W        W34162  17.037  12.767   1.420 -0.2109  0.2522  0.1949
14629W        W34163   3.179  16.914  15.130 -0.1760  0.1716  0.0887
14630W        W34164  18.130  11.591   2.235  0.4167  0.4901 -0.0672
14631W        W34165  11.730  13.161   2.907 -0.1411 -0.0586 -0.0564
14632W        W34166  14.611  12.992   1.813 -0.2698  0.1358 -0.0612
14633W        W34167  16.888  12.432   0.520 -0.1420 -0.1783 -0.0903
14634W        W34168   0.709  17.871   2.766 -0.3319 -0.1803 -0.0568
14635W        W34169  14.185  10.908  13.210  0.0354  0.4459  0.1422
14636W        W34170   6.399   5.268   3.623 -0.1908  0.0752  0.1722
14637W        W34171   4.403  15.176  13.609  0.1650  0.1101 -0.2265
14638W        W34172  13.125  17.874   2.911 -0.1120  0.2989  0.0935
14639W        W34173   1.746   3.894   1.167  0.0928 -0.1440 -0.5107
14640W        W34174   8.120  16.417   2.066  0.3044 -0.0608  0.2415
14641W        W34175  13.723  16.820   2.616  0.1717  0.2410 -0.0489
14642W        W34176  18.087  12.352  13.786 -0.0931  0.0233  0.0882
14643W        W34177   3.508   8.342  14.959 -0.1321 -0.2748  0.0715
14644W        W34178  14.472  11.838   0.919  0.1610 -0.0060 -0.0941
14645W        W34179  15.400  11.270  12.041  0.0947  0.0314  0.1287
14646W        W34180   2.568   4.827   2.867 -0.0115  0.2228 -0.1747
14647W        W34181   1.368   0.803   3.690 -0.0524  0.0838 -0.2844
14648W        W34182   6.973   1.758   0.818  0.0160  0.0070  0.2544
14649W        W34183   7.058  12.514   0.954 -0.1221 -0.1310  0.0299
14650W        W34184   0.635   5.163  13.409 -0.2305  0.0477  0.2628
14651W        W34185  11.664  16.577  14.650 -0.0477  0.2976 -0.1281
14652W        W34186   9.036  16.153  13.572 -0.1231  0.1298  0.0415
14653W        W34187  10.373   9.256   3.852  0.0179 -0.1454  0.2726
14654W        W34188  14.985   3.708   4.361 -0.2021  0.2618 -0.2232
14655W        W34189  14.533   9.796   0.428  0.3078  0.0720 -0.0572
14656W        W34190  14.370  16.180  15.517 -0.0407  0.1425  0.1358
14657W        W34191  17.495  17.212  15.054  0.2413 -0.3392  0.2940
14658W        W34192  18.365   0.670   1.310  0.0700  0.0750  0.0686
14659W        W34193   3.298  15.013  15.802  0.0921  0.0089 -0.2643
14660W        W34194  10.747   1.523  13.600 -0.3865  0.0719 -0.1508
14661W        W34195  10.299  11.713   5.159  0.3817  0.1080  0.0455
14662W        W34196   1.474   3.314  15.709 -0.3947 -0.0471  0.0738
14663W        W34197  13.785   6.775  14.961 -0.1487 -0.0180  0.0651
14664W        W34198  14.564   9.967   1.714  0.0034  0.0260 -0.1911
14665W        W34199  10.426   3.994   0.728  0.1996  0.2284  0.0336
14666W        W34200   0.183  17.931  11.881 -0.1570  0.1996  0.0683
14667W        W34201  16.571  12.115  13.542 -0.1912  0.0597 -0.3486
14668W        W34202   8.214  13.992  15.109 -0.2035  0.0837  0.0429
14669W        W34203  10.896   5.838  13.984  0.1101 -0.0643  0.3305
14670W        W34204  14.687   7.901  12.631 -0.2975  0.4186  0.2820
14671W        W34205   4.956  11.128   1.993 -0.1493  0.2324  0.1526
14672W        W34206  11.116  14.345   3.365  0.2096  0.0838 -0.3983
14673W        W34207   3.638   3.623  15.182  0.0616 -0.1259  0.1897
14674W        W34208   4.961  11.260  14.667  0.1517  0.1932 -0.1393
14675W        W34209   1.515   9.913  12.662  0.1070  0.0549 -0.0295
14676W        W34210  13.039  10.765  11.305  0.0571  0.3028  0.0156
14677W        W34211   0.459   6.952  12.734  0.1326  0.0457  0.2585
14678W        W34212  13.711  16.947   3.492 -0.0354  0.1836  0.3572
14679W        W34213   3.895   9.781   3.408  0.1436 -0.0470  0.1028
14680W        W34214   0.447   7.558   0.821 -0.0738  0.0845  0.0391
14681W        W34215   4.483   0.256  12.542 -0.1603 -0.0606  0.0290
14682W        W34216   3.826   2.522   1.807 -0.0825 -0.0099 -0.1409
14683W        W34217   5.172   9.020  14.229 -0.0350 -0.0316  0.2385
14684W        W34218  10.556  17.360   2.396 -0.0760  0.1079 -0.1084
14685W        W34219   5.304   7.479   0.034 -0.0486 -0.2009  0.2430
14686W        W34220   2.057   0.006  14.187  0.0215 -0.0337  0.0578
14687W        W34221  13.624   5.267  12.843 -0.0936  0.0570  0.1193
14688W        W34222   0.952  13.872  11.370 -0.0305 -0.1470 -0.1252
14689W        W34223  17.476   7.161  15.250  0.0898 -0.4782 -0.1025
14690W        W34224   1.078  12.118   1.413  0.0692  0.0942 -0.0850
14691W        W34225   4.016  11.224  13.075 -0.0112  0.2928 -0.1797
14692W        W34226   9.143  11.768   3.792  0.0997 -0.4584 -0.2489
14693W        W34227  10.161  15.823   2.698 -0.0043 -0.0699  0.0172
14694W        W34228   6.688  16.212  11.918  0.2154 -0.1695  0.1013
14695W        W34229   7.801  16.070   3.884 -0.0911  0.0562 -0.1065
14696W        W34230   5.808  15.812  15.704 -0.0828 -0.2275  0.0001
14697W        W34231   2.013  16.651  11.458 -0.1076 -0.2262 -0.1057
14698W        W34232   8.639   4.619   4.596 -0.1931 -0.2683  0.1909
14699W        W34233   7.956   3.542  11.025 -0.0755  0.1399 -0.1702
14700W        W34234  10.353   1.032   4.042 -0.0520 -0.2060  0.3326
14701W        W34235   1.289   2.726  12.556  0.0285 -0.0494  0.4307
14702W        W34236   6.272  10.447  12.013 -0.2632  0.0721 -0.3106
14703W        W34237   7.248  17.879   3.804 -0.1006  0.0976  0.2589
14704W        W34238  17.618   0.113   1.629  0.0006  0.0382 -0.0454
14705W        W34239   2.294  17.244   2.963  0.1470  0.1074 -0.0387
14706W        W34240   6.564   5.989   3.211  0.2409 -0.2932 -0.1730
14707W        W34241   8.324   3.462  13.663  0.1333  0.1776 -0.1396
14708W        W34242   1.313   0.281   3.584 -0.3052  0.0098  0.0325
14709W        W34243   3.816   0.722   1.186  0.1313 -0.0909 -0.3866
14710W        W34244   9.304  18.097   3.000  0.0552 -0.0178 -0.1564
14711W        W34245   8.538  11.397  13.517 -0.0046  0.0636 -0.0314
14712W        W34246   3.375  18.081  15.100 -0.0657  0.0548 -0.1818
14713W        W34247   6.131  13.868  14.923 -0.0358 -0.2408 -0.1271
14714W        W34248  16.100  13.581  14.453 -0.3053 -0.0270  0.0384
14715W        W34249   7.622  18.321   2.942 -0.2763  0.0268 -0.4347
14716W        W34250  14.455   0.688   2.102  0.1053  0.1445 -0.1663
14717W        W34251   4.961   2.047  13.549  0.1349 -0.0356  0.2086
14718W        W34252  11.184  16.901   2.984 -0.0789 -0.2394  0.0458
14719W        W34253   0.712  12.098  12.729 -0.1551  0.0519 -0.2819
14720W        W34254   2.738   1.630  12.385  0.1626 -0.0388 -0.0032
14721W        W34255   8.504  16.597   0.050 -0.0584  0.0380 -0.1293
14722W        W34256  11.597   0.713   4.511 -0.0881  0.0113 -0.3150
14723W        W34257   6.652   4.128  14.194  0.0372 -0.4217 -0.1365
14724W        W34258   6.756  15.092   0.530  0.2422 -0.1324 -0.0551
14725W        W34259   0.590  18.163  13.380 -0.2069  0.1729  0.1439
14726W        W34260   7.031   5.635  12.747 -0.1161  0.1076  0.3798
14727W        W34261  16.199   7.076   2.302  0.3214 -0.0330 -0.0714
14728W        W34262   6.892   9.385  11.544  0.1438  0.3436 -0.3967
14729W        W34263   3.413   8.062  13.645  0.1639 -0.0495  0.0487
14730W        W34264   8.482  17.127   3.456  0.0081 -0.2613 -0.0014
14731W        W34265   4.101   0.565  13.389 -0.3607  0.1109  0.1225
14732W        W34266   8.424  18.044   2.292 -0.2302  0.0244 -0.1957
14733W        W34267   9.895  13.930   3.316  0.0068 -0.0233 -0.1497
14734W        W34268   3.075  15.286   5.115  0.0960 -0.1195 -0.2005
14735W        W34269  15.834   6.752   2.515 -0.0794 -0.0933  0.0345
14736W        W34270   3.588  12.120   3.480 -0.0177  0.3149 -0.1453
14737W        W34271   3.954  16.487   2.323  0.1932  0.0699 -0.0965
14738W        W34272   2.733   5.023  13.771  0.0287 -0.0862  0.1440
14739W        W34273   9.031  11.333  13.561  0.0030  0.2938  0.0361
14740W        W34274  10.592   3.535  14.850 -0.2290  0.3031 -0.2175
14741W        W34275  14.921   7.054  13.621  0.1997  0.2080  0.0097
14742W        W34276  18.092   7.376   1.240 -0.1301  0.0828 -0.2439
14743W        W34277  16.001  13.248  12.993  0.1907 -0.1510 -0.4332
14744W        W34278   5.028   7.981  15.671  0.1396  0.0273 -0.2380
14745W        W34279  10.420  14.775  12.923  0.3345 -0.0091  0.0423
14746W        W34280  14.229   7.379  13.877 -0.3980 -0.2168  0.0661
14747W        W34281  12.776   3.589   0.176 -0.0327  0.0017 -0.0165
14748W        W34282   4.700  18.312   4.046 -0.0201 -0.0727 -0.1296
14749W        W34283  15.920  14.078  13.099  0.0451 -0.1663  0.1701
14750W        W34284   9.827  17.804   2.863  0.0789  0.1860  0.0237
14751W        W34285   9.616  10.789  15.396 -0.1106  0.0945 -0.0108
14752W        W34286  16.734  17.129  15.820 -0.1577  0.3874  0.1943
14753W        W34287  13.030   4.394   4.365 -0.1361  0.0426 -0.1448
14754W        W34288   1.193   3.752  11.336  0.3771  0.0586  0.2047
14755W        W34289   6.529  14.658  11.720  0.0213  0.0020 -0.0370
14756W        W34290   3.044  12.404   0.334 -0.0385  0.1633  0.0079
14757W        W34291   6.637  15.841  12.333  0.0215  0.0692  0.1775
14758W        W34292   5.311   1.171   0.391 -0.1959  0.3609  0.4112
14759W        W34293   7.848   2.952   1.242  0.0459  0.2771  0.0792
14760W        W34294   3.626  16.681   3.840 -0.1720  0.1212  0.0965
14761W        W34295   2.453   9.479  14.738  0.1215 -0.0968 -0.3946
14762W        W34296   0.996   8.965  13.354  0.2081  0.5121 -0.0443
14763W        W34297  12.572  14.470   1.080 -0.0848  0.0408  0.2440
14764W        W34298   9.472   6.389  10.692 -0.1429 -0.0978  0.0193
14765W        W34299   9.313  17.349   1.125  0.0583  0.2598 -0.1676
14766W        W34300  14.992   0.633  12.958 -0.0347 -0.0954  0.0849
14767W        W34301   9.716   3.585  14.950  0.0698 -0.1737  0.0284
14768W        W34302   5.904   4.991   3.885 -0.1884 -0.3570 -0.3524
14769W        W34303  11.910   5.313   3.202 -0.1777  0.0421  0.0347
14770W        W34304   9.920   6.608   0.939  0.0904 -0.1736  0.0622
14771W        W34305  10.960  10.488  14.414  0.1413 -0.1057 -0.0361
14772W        W34306   8.206   2.483   2.169  0.1649  0.1091 -0.0677
14773W        W34307   7.512  11.627  15.712  0.2704 -0.0483  0.0759
14774W        W34308  16.634  14.396   1.833 -0.0992 -0.0698  0.0218
14775W        W34309  18.106   7.309  13.484  0.2148 -0.0150  0.2766
14776W        W34310   1.317   8.554  14.324  0.2092 -0.0666  0.2593
14777W        W34311  14.814   3.702   1.352  0.0869  0.3013  0.2080
14778W        W34312   8.246  14.293   1.655  0.0137 -0.1330 -0.1336
14779W        W34313  11.712   1.662  10.693 -0.0925  0.0982 -0.0455
14780W        W34314  15.599   5.171  12.090  0.1486  0.1862  0.0166
14781W        W34315   8.357   7.503   3.805  0.0982 -0.2148  0.0768
14782W        W34316   4.042   2.149  12.590 -0.1022 -0.2249  0.0807
14783W        W34317   7.856   6.401  13.902  0.1691  0.0564 -0.0552
14784W        W34318   0.270   9.585   3.676  0.1623  0.2293 -0.3920
14785W        W34319   5.914   9.995   1.846 -0.0826  0.1833  0.0568
14786W        W34320   1.340  17.802  13.060 -0.1220  0.1804  0.0560
14787W        W34321   0.124  16.589   3.808  0.0980  0.2303 -0.1704
14788W        W34322   0.715  10.823  11.454 -0.0331  0.1631 -0.1120
14789W        W34323   9.178  11.102  13.102  0.0577 -0.1164  0.2931
14790W        W34324  17.796   3.188   4.336 -0.1206 -0.2057  0.0612
14791W        W34325   4.574   0.619  14.452 -0.3167  0.3965 -0.1501
14792W        W34326  10.023  16.502  14.551  0.2795  0.0753 -0.2627
14793W        W34327   7.144   4.517  13.594 -0.0960  0.0450 -0.0658
14794W        W34328   3.490  17.209   4.749  0.0693  0.0627  0.0375
14795W        W34329   8.993   1.611   2.996 -0.3438  0.1446 -0.2106
14796W        W34330  14.300   0.213   1.199 -0.0347  0.0322  0.1818
14797W        W34331   4.180  12.236  11.089 -0.0272 -0.2025 -0.0543
14798W        W34332   3.372  10.500   3.492 -0.0237  0.2411  0.0082
14799W        W34333   9.645   6.397   2.409 -0.1787  0.2603  0.0352
14800W        W34334  18.391  16.287   2.918 -0.1047 -0.0900  0.1446
14801W        W34335  15.726   7.370  12.611 -0.0161  0.1022  0.0574
14802W        W34336  14.131  17.530  14.465 -0.2040  0.1421  0.1269
14803W        W34337  18.362   6.679  11.931 -0.0256 -0.2397 -0.0668
14804W        W34338   9.550  10.622  13.916 -0.0025 -0.0128 -0.1588
14805W        W34339   6.293  13.922   0.062 -0.1988  0.2254  0.1841
14806W        W34340   7.837   7.550   3.740 -0.0978  0.2010  0.0326
14807W        W34341  12.838  17.685   4.351 -0.0082  0.1408 -0.0366
14808W        W34342   2.303  14.820  13.855  0.2178  0.0413  0.0364
14809W        W34343  17.109  18.113  11.104 -0.2348 -0.0581  0.1124
14810W        W34344   2.844  16.641  12.220 -0.0640  0.2038  0.3892
14811W        W34345   7.601   3.968  15.229  0.1406  0.0480 -0.0051
14812W        W34346  10.291   0.839   0.824 -0.0310 -0.0887 -0.1602
14813W        W34347   4.665   4.186  14.702  0.3298  0.2924  0.1198
14814W        W34348   6.575  17.718   4.155 -0.3145  0.3100  0.2458
14815W        W34349   2.911  11.939   1.213  0.3360 -0.0957  0.0854
14816W        W34350   0.566   5.598  10.796 -0.4461 -0.0761  0.2761
14817W        W34351  15.667  16.279   1.385 -0.1685  0.1827  0.3863
14818W        W34352   4.510   7.427   2.640 -0.0438 -0.1432 -0.1465
14819W        W34353  16.625  16.290  12.890  0.1981  0.0989 -0.1386
14820W        W34354   8.073  16.914   2.959  0.1882 -0.1426  0.0123
14821W        W34355   7.602   2.075   2.305 -0.3229 -0.1731  0.1297
14822W        W34356   7.105  11.563  13.956 -0.0003  0.0162  0.0008
14823W        W34357   0.159  12.976   2.321 -0.3074 -0.1511 -0.3309
14824W        W34358   9.455  14.302   3.214 -0.0977  0.0632  0.0440
14825W        W34359  17.211  16.669   2.572  0.0499  0.1334  0.2603
14826W        W34360   6.965  14.363   0.114  0.0477  0.1414  0.0596
14827W        W34361   1.102   8.149  12.891 -0.0584 -0.1075 -0.2607
14828W        W34362   9.017   6.352   3.279  0.1519 -0.1107 -0.2258
14829W        W34363  14.342  15.199   2.893  0.4722 -0.0181  0.2255
14830W        W34364   9.070  14.397   1.439 -0.0284 -0.1691  0.1440
14831W        W34365   2.370  15.798   1.393 -0.2397 -0.1516  0.0608
14832W        W34366   9.596   5.004  14.070 -0.1309 -0.2005  0.1976
14833W        W34367  10.100   6.733  14.449 -0.1766  0.3144  0.0473
14834W        W34368  10.444  15.141   3.486 -0.2902 -0.0652  0.2230
14835W        W34369  10.081  13.993  14.783 -0.2441 -0.0512 -0.1819
14836W        W34370   2.983  15.282  13.830 -0.3319 -0.0065 -0.1996
14837W        W34371   7.652   9.420   2.347  0.1081 -0.0109 -0.1033
14838W        W34372   7.191  15.719   4.384  0.1185  0.2074  0.0572
14839W        W34373   0.207   1.343  13.487 -0.0162 -0.2284  0.1208
14840W        W34374  14.308   6.275   3.547  0.2184 -0.0585 -0.0352
14841W        W34375  14.068   1.812  12.688  0.0617 -0.0358 -0.1503
14842W        W34376  15.323   3.731  12.626 -0.0583 -0.1732  0.2808
14843W        W34377   4.082   5.299  13.285  0.1685 -0.0259  0.4044
14844W        W34378   1.377  11.940  11.477  0.0904 -0.0158  0.0659
14845W        W34379   7.253  15.584  13.301 -0.2386  0.2246  0.0078
14846W        W34380  11.282   9.023   1.291  0.2059  0.1912  0.2340
14847W        W34381   8.982   9.587  15.500 -0.0001 -0.1471 -0.3623
14848W        W34382  15.534  16.480  12.371 -0.0039 -0.0051 -0.0212
14849W        W34383  15.913   1.598  15.708  0.2323 -0.1008 -0.1755
14850W        W34384  10.201  12.532  12.617 -0.0113 -0.1512 -0.2094
14851W        W34385  12.795  12.104  11.560 -0.0674  0.0080 -0.2351
14852W        W34386   5.742   6.209   2.662  0.0259 -0.1851 -0.1985
14853W        W34387   0.769   7.749  15.706 -0.2310  0.0022  0.0708
14854W        W34388  14.157   5.218  13.550  0.0663 -0.1079 -0.0273
14855W        W34389  11.065   6.280   5.309 -0.4457 -0.1822  0.1057
14856W        W34390  16.998  14.432   0.891  0.0318  0.1572 -0.2241
14857W        W34391   7.541   8.239  15.725 -0.0877 -0.0344 -0.1211
14858W        W34392   3.651  11.546  11.393  0.3358  0.2230 -0.2835
14859W        W34393  17.983   5.254  15.653  0.0739  0.1357 -0.2347
14860W        W34394   5.619  14.896  11.627  0.0684  0.1388  0.0459
14861W        W34395  10.009  12.558   3.411 -0.0758 -0.2285 -0.0780
14862W        W34396   6.105  11.480   3.373 -0.1252 -0.0423  0.0536
14863W        W34397  15.007   8.665   0.595 -0.2013 -0.0936  0.1540
14864W        W34398  12.806   5.242  14.760  0.0768  0.0281 -0.0360
14865W        W34399  12.656   6.659   3.436 -0.3782  0.0072  0.3391
14866W        W34400  12.509  10.348   4.124 -0.0037 -0.0160  0.0845
14867W        W34401   3.128  17.257  12.934  0.0863 -0.1281  0.4064
14868W        W34402   1.184  16.606  15.771  0.0235  0.1591  0.0235
14869W        W34403   3.129   1.596  15.039  0.3213 -0.1718  0.0861
14870W        W34404  13.550   6.074   1.961 -0.0706 -0.0678  0.0973
14871W        W34405   6.817   0.755   3.983  0.1334  0.4480 -0.1203
14872W        W34406  10.052  15.211   0.744 -0.0091  0.2726 -0.1507
14873W        W34407  17.025   6.892  13.078 -0.1696 -0.2342  0.2572
14874W        W34408   6.490  17.134  12.339  0.0752 -0.3545  0.0926
14875W        W34409   9.685   1.544   1.885 -0.3672  0.0084 -0.2033
14876W        W34410  16.855   1.656   1.257  0.0265  0.0710 -0.1827
14877W        W34411   5.104  11.299  13.729  0.0117 -0.0233 -0.3295
14878W        W34412  11.083   8.395  14.061  0.2358  0.0693  0.2349
14879W        W34413  17.103  16.465  11.490  0.3328  0.1155  0.0317
14880W        W34414   9.894   8.240   3.531  0.1368  0.2511 -0.0634
14881W        W34415   4.905   0.904  12.832 -0.0304 -0.0352  0.0260
14882W        W34416   8.963   7.155   3.868  0.1269  0.0296 -0.0127
14883W        W34417  12.192   3.215  12.249  0.2771  0.1749 -0.0397
14884W        W34418   3.021   4.323  12.222 -0.0454 -0.0907 -0.1203
14885W        W34419  14.300   4.238  14.250  0.2388 -0.1032 -0.0712
14886W        W34420  11.981  16.763   4.596 -0.0209 -0.0683 -0.1096
14887W        W34421  12.389   3.009   4.082 -0.1916  0.0084 -0.3248
14888W        W34422   8.168   5.336   3.917 -0.0945 -0.0514 -0.0303
14889W        W34423   8.990  12.180   4.755 -0.1659 -0.0485  0.0075
14890W        W34424   6.667   3.864  13.311 -0.0199  0.2319  0.1613
14891W        W34425   8.451   2.287   2.624 -0.0347  0.1335 -0.0116
14892W        W34426  11.887   9.629   2.588  0.0908  0.0394  0.1931
14893W        W34427   5.863   3.841   0.558  0.2385  0.0757 -0.0051
14894W        W34428   2.640  12.873   0.797  0.1809 -0.0926  0.0698
14895W        W34429  17.081   1.912   3.475 -0.2101  0.0866  0.0042
14896W        W34430  11.621   8.381   1.964 -0.1280 -0.0585  0.0784
14897W        W34431   7.403   4.147  14.791  0.2570  0.0922 -0.2093
14898W        W34432   0.097  16.808   2.704  0.0235  0.1086 -0.0220
14899W        W34433   8.582   9.216  12.933  0.2684 -0.1025 -0.0913
14900W        W34434  12.590   1.411  15.173  0.1476  0.1102 -0.0231
14901W        W34435   3.798  15.918   3.121 -0.1001 -0.2554  0.2272
14902W        W34436   6.664  14.870   1.031 -0.3760  0.3453  0.2465
14903W        W34437  10.876  11.302  13.189  0.1787 -0.2036 -0.2120
14904W        W34438  15.566   1.967   0.015 -0.3059 -0.0289 -0.0738
14905W        W34439   3.339   1.933  14.578  0.1587  0.0073  0.1935
14906W        W34440  11.939  14.751  15.435 -0.0204 -0.1630 -0.1308
14907W        W34441  16.291   7.962  11.833  0.1006 -0.0674 -0.1751
14908W        W34442  12.497  11.672  11.400  0.0212 -0.0195 -0.1038
14909W        W34443   2.167   1.994  13.362  0.2868 -0.0997 -0.0339
14910W        W34444   7.916   0.196   0.716  0.1163  0.0957  0.3202
14911W        W34445   1.016   7.809   4.253  0.0961 -0.0853  0.3439
14912W        W34446   6.151   6.671  14.457 -0.0266  0.2271  0.2321
14913W        W34447   6.795  11.177  14.902  0.1470  0.0296  0.0807
14914W        W34448  15.697   9.372  13.299  0.0454 -0.0279  0.1220
14915W        W34449   4.747  10.108  15.631 -0.1321  0.1718  0.1607
14916W        W34450   6.598  10.903  14.178 -0.1049 -0.1455  0.0801
14917W        W34451   3.944   3.986  14.882  0.1363  0.3722 -0.1724
14918W        W34452  18.382  11.700  13.307  0.1844  0.0122 -0.1726
14919W        W34453  14.078   1.770   3.268 -0.0671 -0.1549  0.0137
14920W        W34454   6.341   5.041   1.151  0.3521 -0.0989 -0.1643
14921W        W34455  16.219   8.154  14.306  0.1470 -0.0369  0.1853
14922W        W34456  10.013  16.293   0.531 -0.1354  0.0726 -0.2494
14923W        W34457  17.131  14.586   1.825 -0.0708 -0.2177 -0.0946
14924W        W34458   1.075  15.281   2.028 -0.0848 -0.1157 -0.1071
14925W        W34459   3.168  14.806  11.155 -0.0868 -0.0862 -0.3022
14926W        W34460  13.067  11.316  15.760  0.0539 -0.2833  0.1016
14927W        W34461  12.066  11.726  12.016 -0.0272  0.2435 -0.2540
14928W        W34462   2.512  14.342  13.799  0.1158  0.0654 -0.0021
14929W        W34463   2.798  17.905   2.288 -0.0205  0.0887 -0.4212
14930W        W34464  14.727   2.764  11.389 -0.0101  0.1236 -0.0246
14931W        W34465  18.188  12.218  14.864 -0.0432 -0.2917  0.0814
14932W        W34466   5.003   7.571  15.397 -0.0195 -0.4265 -0.1261
14933W        W34467  10.954  13.834   0.198  0.0851  0.0078  0.3096
14934W        W34468  17.123   1.819   4.014 -0.0775 -0.1344  0.1671
14935W        W34469  13.821   4.834   0.448  0.0022  0.3312  0.2170
14936W        W34470  14.765   2.232   3.771 -0.3601  0.3006 -0.1464
14937W        W34471   6.780  13.177  11.667 -0.3033  0.0960 -0.4455
14938W        W34472  13.153   4.747  12.174  0.1083  0.1362 -0.0559
14939W        W34473   8.735  13.467  13.039 -0.0400  0.1235  0.1560
14940W        W34474   0.326   1.882  10.971 -0.0466 -0.0155  0.2167
14941W        W34475  16.448   0.992   3.629 -0.0171 -0.0890 -0.0809
14942W        W34476   5.253   8.795  11.984  0.3188  0.0387 -0.0048
14943W        W34477  12.710  10.037  12.409 -0.1854  0.5454  0.1033
14944W        W34478  17.477   9.064   2.747 -0.0047 -0.1064  0.1069
14945W        W34479  10.099  13.626   1.733  0.1641 -0.1558  0.0569
14946W        W34480  13.130   7.456   0.040 -0.1774  0.0779 -0.3273
14947W        W34481  14.753   2.726  12.256  0.0706 -0.0897 -0.1194
14948W        W34482  14.645   8.954  10.079 -0.3215 -0.1029  0.1196
14949W        W34483  12.209   3.058  11.812 -0.0703  0.2348  0.3540
14950W        W34484   9.408  12.116   2.359 -0.1398  0.1386  0.0850
14951W        W34485   7.768   5.486   3.122  0.0363  0.0935 -0.0892
14952W        W34486  15.837  10.736  11.931 -0.0354 -0.0832  0.1883
14953W        W34487  12.815   2.119   3.198  0.0835 -0.0503  0.1162
14954W        W34488   2.579   9.943  14.756 -0.1618  0.2382  0.1662
14955W        W34489   6.062   2.264  12.956  0.0629 -0.0445  0.4096
14956W        W34490   3.208  14.632  14.387 -0.1558 -0.0383 -0.3269
14957W        W34491   7.617   6.307   4.134 -0.1247 -0.0933  0.0747
14958W        W34492   9.492   0.003   0.950 -0.1107 -0.1356 -0.0216
14959W        W34493   4.002   9.190   5.135 -0.1115 -0.1507  0.1098
14960W        W34494  13.093  12.454   3.667  0.0316  0.1873  0.1923
14961W        W34495   9.655  10.155  14.583 -0.2512  0.3444  0.0009
14962W        W34496   7.216  17.548   0.906  0.0476  0.0997  0.2340
14963W        W34497  13.057  12.306   0.601 -0.1495 -0.2561  0.0919
14964W        W34498  14.318   0.677  13.805 -0.1239  0.0976  0.2454
14965W        W34499   5.692  15.732  12.598 -0.0848  0.0294 -0.0806
14966W        W34500  11.117  12.026  12.351  0.0150 -0.3115 -0.2369
14967W        W34501   9.230  16.868   0.900 -0.2556  0.0967  0.4222
14968W        W34502  17.203   6.909   4.857 -0.4188  0.2096 -0.0778
14969W        W34503  10.043   2.121  13.414  0.0319 -0.5001  0.0865
14970W        W34504  14.859  16.115  13.592 -0.0295  0.0488 -0.1227
14971W        W34505   3.662   9.367   0.275  0.0563 -0.0976  0.0870
14972W        W34506  13.199   0.496  12.868 -0.0458  0.0047 -0.0804
14973W        W34507  10.601   4.682  12.597 -0.0259 -0.1101  0.1164
14974W        W34508   1.955  16.948   1.792  0.1030 -0.0004  0.1363
14975W        W34509  18.176   0.245  12.307  0.2293 -0.1708  0.3528
14976W        W34510   1.268   9.631   1.511 -0.0975  0.0924 -0.0575
14977W        W34511  13.040   9.343   0.093  0.1465 -0.1157  0.0545
14978W        W34512  18.074   0.137  13.072 -0.3297 -0.2809  0.3329
14979W        W34513   7.327   1.825   1.205 -0.2599  0.1904 -0.1023
14980W        W34514  16.631  18.325   1.820  0.1597  0.0741 -0.0585
14981W        W34515  17.955   5.635   3.554  0.3111  0.3343  0.1955
14982W        W34516   5.176  17.781   4.461 -0.1224 -0.0146 -0.0841
14983W        W34517  13.510   2.135  11.428 -0.0609 -0.2046  0.1765
14984W        W34518   9.159   4.985  15.185  0.3383  0.1928  0.1997
14985W        W34519  12.979  16.899   0.319 -0.2084  0.0106 -0.0606
14986W        W34520  12.129  18.038   1.950 -0.2141 -0.0553 -0.0266
14987W        W34521   3.090  13.976  12.713  0.1719  0.4884 -0.1112
14988W        W34522  16.237  13.089   1.983 -0.3639  0.0744  0.3910
14989W        W34523  10.632   1.189  15.433 -0.2861  0.2380  0.3764
14990W        W34524  17.112   2.343   0.218 -0.1834  0.4599  0.1102
14991W        W34525  13.618   3.493  14.219 -0.2776  0.2539 -0.1477
14992W        W34526  12.198  16.230   1.852 -0.0257 -0.1122  0.0434
14993W        W34527  17.207  12.127   3.172 -0.1332  0.0884 -0.1035
14994W        W34528  14.990   7.781  14.040  0.0590 -0.1048 -0.3502
14995W        W34529  13.869  10.223   4.174  0.2663  0.0602 -0.0570
14996W        W34530   9.053  17.226   0.607 -0.0181 -0.1431  0.0559
14997W        W34531  12.597  10.957  12.153  0.1236 -0.0126 -0.0694
14998W        W34532   0.721  16.476   2.233  0.1049  0.0934  0.0168
14999W        W34533  13.092  16.598   3.369  0.0258 -0.0130  0.3296
15000W        W34534  12.868  12.495  11.816  0.2064  0.0086  0.0040
15001W        W34535   0.434  15.287   2.571 -0.2509  0.1665  0.2781
15002W        W34536   9.525   6.479   0.252 -0.0515  0.1925 -0.0388
15003W        W34537   0.328  15.501   0.885  0.1531  0.1598  0.0606
15004W        W34538   5.160  14.214  13.841  0.1466 -0.2079  0.2394
15005W        W34539   6.676   7.119  15.607 -0.2836  0.0917  0.1009
15006W        W34540  12.930   4.051   1.345  0.1215  0.1777  0.0616
15007W        W34541   0.405   0.124  11.542  0.0967  0.1119  0.3064
15008W        W34542  14.087   9.493  12.142  0.1426  0.2315 -0.1537
15009W        W34543  10.249  17.036   3.279  0.1018 -0.1571  0.3424
15010W        W34544  11.875   3.495   4.684  0.1300 -0.1047  0.1352
15011W        W34545  12.263  11.411   2.041  0.1459  0.1424  0.1101
15012W        W34546   0.698   9.635  13.524 -0.2016 -0.2706 -0.0217
15013W        W34547   3.699  10.774   3.934 -0.0165 -0.1976 -0.0026
15014W        W34548   6.667   4.017  10.083  0.2049 -0.0311 -0.1145
15015W        W34549   6.309   7.067   3.261  0.0686  0.0148  0.0944
15016W        W34550  13.419  17.405  10.706  0.3213 -0.3396  0.3927
15017W        W34551   9.720   1.248   4.771  0.1194 -0.2628  0.1473
15018W        W34552   5.426  14.015   2.695 -0.1098  0.2700 -0.3201
15019W        W34553  15.733  16.485   2.320  0.0834 -0.2027  0.1249
15020W        W34554   5.980  10.474   0.092  0.1124 -0.1930  0.0688
15021W        W34555  10.956   2.321   2.186  0.1945  0.2139  0.2194
15022W        W34556   6.468   2.289   3.353  0.1157  0.1186  0.2518
15023W        W34557   0.859   2.904  14.613  0.0273  0.0193 -0.2058
15024W        W34558   7.837  14.138   5.387 -0.0938  0.1967  0.1026
15025W        W34559   1.173  10.483   0.119 -0.2399 -0.1680  0.2228
15026W        W34560  10.808   1.834   4.994  0.0616  0.1475 -0.0243
15027W        W34561   7.465   9.391  14.524  0.1592  0.3336 -0.2327
15028W        W34562   0.410   7.498   1.319  0.2139  0.3015  0.2298
15029W        W34563  15.703   4.945  12.472  0.2988 -0.0947  0.0036
15030W        W34564  13.807   8.117  11.208  0.0047  0.0900  0.4423
15031W        W34565  17.819  17.949  14.497  0.2296 -0.0233  0.0238
15032W        W34566   0.787   9.862  11.051 -0.3019 -0.1890  0.3766
15033W        W34567  16.677  14.057   0.715 -0.0275  0.1360  0.0687
15034W        W34568   8.041  10.661  15.602  0.0684  0.0220  0.2165
15035W        W34569   3.801   1.630  13.520 -0.3600 -0.0506 -0.0807
15036W        W34570  11.841  10.516   2.552 -0.0761  0.1095 -0.0562
15037W        W34571   2.185  15.738   1.948  0.1509  0.0559 -0.2207
15038W        W34572   3.782  14.619   0.609 -0.1721  0.1644 -0.1887
15039W        W34573   0.374  13.936  12.135 -0.2539 -0.0238 -0.2210
15040W        W34574  12.048   3.996   1.317  0.0270  0.2801  0.1493
15041W        W34575   2.477   7.119  15.815 -0.0069  0.0160  0.1747
15042W        W34576  17.525   5.432  14.095 -0.2092 -0.3156  0.2744
15043W        W34577   3.469   7.883   1.366  0.0800 -0.2192  0.0804
15044W        W34578  11.663   5.701  11.002  0.0722  0.1465  0.4276
15045W        W34579   6.265  11.455   2.050 -0.0207  0.1989 -0.0613
15046W        W34580  16.189   6.758  13.071 -0.0645  0.1958  0.2096
15047W        W34581   0.448   2.630  12.903  0.1002  0.0151  0.2116
15048W        W34582   9.708  13.899  15.767  0.1298  0.1357 -0.1884
15049W        W34583   4.965   0.461  11.259  0.0086  0.1539 -0.3293
15050W        W34584  17.801   5.637  13.259  0.2695  0.0653  0.0465
15051W        W34585  12.556  15.653  14.754  0.1298  0.1000 -0.2374
15052W        W34586  15.008   4.550  14.272  0.1771 -0.0240 -0.0883
15053W        W34587   0.629   3.034   2.440  0.2050 -0.2260  0.0097
15054W        W34588  11.707   4.183   2.623  0.0759 -0.3573  0.3016
15055W        W34589   7.640  11.074   3.261  0.1625 -0.0933  0.0978
15056W        W34590   7.717   4.863  12.742 -0.0947 -0.5430  0.0163
15057W        W34591   6.540  17.746  11.316  0.2370 -0.0052  0.3031
15058W        W34592  10.944  12.739   5.827 -0.0002  0.0905 -0.2964
15059W        W34593   2.669   4.882   4.507  0.2068 -0.2031  0.2414
15060W        W34594   6.602  10.795   1.053  0.1417 -0.0919  0.0478
15061W        W34595  12.247  10.403   1.072  0.1228  0.0926 -0.2881
15062W        W34596   6.964   9.880  11.826  0.0458  0.0440 -0.4202
15063W        W34597  15.638   8.493   0.005  0.2960 -0.0708 -0.1456
15064W        W34598   5.509  12.165  12.012 -0.2839  0.2513 -0.0668
15065W        W34599   3.587   5.898  15.533 -0.2979 -0.0409 -0.0779
15066W        W34600   3.393  13.434   3.911  0.0651  0.0211 -0.0615
15067W        W34601  12.249   1.489   4.401  0.1490 -0.1588 -0.1891
15068W        W34602   7.040  17.972  14.023  0.1751 -0.1391  0.1639
15069W        W34603   2.775   5.246   4.853 -0.0944  0.1064 -0.1044
15070W        W34604   0.267  12.397  10.463  0.0570  0.2145  0.1066
15071W        W34605   7.173  10.409   0.887 -0.0010  0.0615  0.1486
15072W        W34606   2.131  11.415  13.111 -0.1641  0.0883 -0.4233
15073W        W34607   3.277  10.177  12.306 -0.0287 -0.0846  0.1321
15074W        W34608  10.005   3.619   4.955 -0.2486  0.0477  0.3403
15075W        W34609  14.001   3.566  15.175 -0.0311  0.4247  0.0508
15076W        W34610  15.283  16.424  12.801 -0.0863 -0.0756 -0.0450
15077W        W34611   9.696   0.778   3.911 -0.0592  0.0978  0.2109
15078W        W34612  11.875   9.303  15.323 -0.3906  0.1565 -0.3245
15079W        W34613   0.853   4.904   1.600  0.0613 -0.0351 -0.1066
15080W        W34614  11.689  12.553   2.684 -0.0089 -0.0615 -0.0192
15081W        W34615  18.390   3.036  13.914  0.1347  0.1759  0.0348
15082W        W34616   9.314   0.926  12.206  0.1902 -0.0443  0.0121
15083W        W34617  11.678   5.114  12.901 -0.1517 -0.0465  0.0858
15084W        W34618  12.329   9.269  12.623  0.0647 -0.0482 -0.0240
15085W        W34619  15.064  16.796   0.187 -0.1777  0.0748  0.1539
15086W        W34620  11.836   5.159   4.104  0.1129  0.1477 -0.0265
15087W        W34621  11.418   5.896   4.336  0.1045 -0.1587  0.3733
15088W        W34622   5.789  12.330   1.783 -0.1039  0.3801  0.1068
15089W        W34623  13.199   7.482   1.301  0.3620 -0.0625 -0.1103
15090W        W34624   1.131   6.247   1.500 -0.2387  0.1912  0.5079
15091W        W34625  17.422  10.824  12.930  0.1564  0.0891  0.4326
15092W        W34626  11.829   6.633   3.052  0.2091 -0.0102 -0.4579
15093W        W34627  15.466  16.149   2.610 -0.3805  0.1515  0.0379
15094W        W34628   0.721   3.425  15.103 -0.1738 -0.3626 -0.3807
15095W        W34629   2.181  16.687   0.450  0.1510 -0.0055 -0.1107
15096W        W34630   5.847  11.884  14.949  0.0642 -0.1545 -0.3016
15097W        W34631  16.433  14.810   0.554  0.0357 -0.0485  0.0643
15098W        W34632   9.317  16.094   3.624  0.3877  0.0991 -0.2138
15099W        W34633   9.718   6.655   1.937 -0.2796  0.1517  0.0472
15100W        W34634   0.970  16.326   4.184  0.1395 -0.0176 -0.2360
15101W        W34635   0.553   8.125   2.914 -0.3448  0.1318  0.2472
15102W        W34636  12.789  12.042  14.687 -0.0365 -0.2690 -0.2660
15103W        W34637  16.159   4.190   3.169 -0.0614 -0.0544  0.0547
15104W        W34638  15.314   8.685  15.056 -0.0335  0.1035 -0.0414
15105W        W34639   7.372  12.002   3.798 -0.1067  0.0840  0.0798
15106W        W34640   0.669   5.897   0.081  0.0750  0.1979 -0.1460
15107W        W34641  13.578   6.553   2.164 -0.1575  0.1850 -0.3441
15108W        W34642   6.017   3.362  12.163  0.0852  0.1680  0.0501
15109W        W34643   0.051   5.378  12.519 -0.0847  0.1575  0.0348
15110W        W34644  13.248   8.812  13.381  0.0838 -0.0249  0.0219
15111W        W34645   8.734   5.824   1.860  0.2003  0.2050 -0.1953
15112W        W34646  10.505  11.042  15.359 -0.1435 -0.0898 -0.0364
15113W        W34647  15.652  15.790   4.942  0.0780  0.2919 -0.1677
15114W        W34648  11.796   0.853  11.914  0.2167 -0.1409  0.1043
15115W        W34649  15.847   0.728   1.375 -0.2157 -0.1379 -0.2374
15116W        W34650   9.766   9.023  12.407  0.1429 -0.1196  0.0209
15117W        W34651   9.591   9.405  13.300  0.0164  0.0696 -0.0707
15118W        W34652  14.451   1.706   2.543  0.0538 -0.0361 -0.0300
15119W        W34653   4.202   0.017   3.948 -0.1367  0.0096 -0.3181
15120W        W34654  14.297  10.186  11.214  0.3814  0.1784  0.2311
15121W        W34655  12.234  15.160   4.412  0.2381 -0.0197 -0.0336
15122W        W34656   0.342  10.828  12.881  0.0597 -0.0035  0.2265
15123W        W34657   1.436   7.923   3.399 -0.1169 -0.0314  0.0456
15124W        W34658   0.177  13.351  10.904  0.0087 -0.1629  0.1499
15125W        W34659   6.006   7.258   3.657 -0.1882  0.2124  0.0729
15126W        W34660   2.016   6.762  13.268  0.2582  0.0248 -0.2423
15127W        W34661   5.051  14.343   0.170  0.1330  0.1826 -0.1149
15128W        W34662  11.926  13.483   2.529 -0.1480 -0.0555  0.0398
15129W        W34663   7.024   7.545   2.491  0.0746 -0.2091 -0.0503
15130W        W34664   6.333  14.818   3.966 -0.4750 -0.0330 -0.0047
15131W        W34665   9.152   9.224   0.458  0.1721 -0.2475 -0.2442
15132W        W34666  11.799  13.438  14.145  0.1955  0.1875  0.0329
15133W        W34667  17.476  13.036  11.517 -0.1250 -0.0065 -0.0219
15134W        W34668  11.241  17.132   4.479  0.0789  0.0683 -0.2706
15135W        W34669  16.601   9.907   3.083 -0.0168 -0.0237  0.0356
15136W        W34670   2.824   6.950  12.188  0.0057  0.1254 -0.0205
15137W        W34671  12.059  16.754   1.681  0.1044  0.2861  0.1084
15138W        W34672  11.207   0.165   4.450 -0.2414  0.0740  0.1395
15139W        W34673   5.592  13.619  11.814  0.0993 -0.1588 -0.2419
15140W        W34674  18.182   0.951   0.251  0.2601 -0.1711 -0.1491
15141W        W34675   0.066   9.457  11.501 -0.1623 -0.1920 -0.1635
15142W        W34676  10.172  15.880  15.577  0.1396 -0.0909  0.0484
15143W        W34677  15.306   6.231   3.308  0.0922 -0.1073 -0.0325
15144W        W34678  17.882   3.334  13.440 -0.1928 -0.0483  0.3209
15145W        W34679   3.018   0.073  15.620  0.2640 -0.2475 -0.0444
15146W        W34680  10.977   9.737   3.372 -0.0637 -0.0675  0.0075
15147W        W34681   1.712   4.764  12.560 -0.2454 -0.0414  0.0382
15148W        W34682   3.645  13.304   1.036 -0.1209 -0.2270 -0.1364
15149W        W34683  11.725   4.541  11.447  0.3291 -0.1357  0.1677
15150W        W34684  14.878  13.701   1.267  0.2534  0.2280  0.0681
15151W        W34685   9.927  13.731   2.763  0.0669 -0.0744  0.3041
15152W        W34686   9.011   1.286  14.364 -0.1386 -0.0200 -0.0532
15153W        W34687   3.916   9.832   1.329 -0.1175 -0.1278  0.1371
15154W        W34688   7.738   9.040   0.144 -0.3356  0.2079 -0.1226
15155W        W34689  10.943  17.256  11.430 -0.2717 -0.0495  0.1570
15156W        W34690   1.446  11.525  14.537 -0.0609 -0.2375 -0.1667
15157W        W34691   6.469   4.136   4.629 -0.0673 -0.2564  0.0564
15158W        W34692  15.580   6.509  13.702  0.1777 -0.3969  0.0949
15159W        W34693   0.516  12.084   4.283 -0.1942 -0.1006  0.0367
15160W        W34694  11.704   1.702   0.473  0.0507 -0.1425  0.6363
15161W        W34695  10.039   0.178   0.052 -0.2452 -0.0226  0.0046
15162W        W34696  16.290   2.996  13.947  0.1324 -0.1101 -0.1655
15163W        W34697  13.555  15.720  11.320 -0.0170  0.2614  0.0040
15164W        W34698   6.416  15.468   0.361 -0.2587  0.2257 -0.0181
15165W        W34699   3.004  12.355  15.627 -0.3349  0.1961 -0.0657
15166W        W34700   5.043   8.131   1.561  0.0061 -0.0145  0.0651
15167W        W34701   5.769  11.231  14.257  0.0340 -0.1605 -0.2644
15168W        W34702   7.362   6.150  12.722  0.2537  0.2322  0.2872
15169W        W34703   4.256  11.545  13.394 -0.1448  0.0314  0.0577
15170W        W34704  16.153   8.250   4.097 -0.0291  0.0224 -0.2011
15171W        W34705   8.721  15.740   4.054 -0.2873 -0.0408  0.1269
15172W        W34706   1.615   8.562  12.853 -0.0063 -0.1368 -0.1093
15173W        W34707  15.423   3.178  14.175  0.1191  0.1989  0.2225
15174W        W34708  15.386   6.055  14.518 -0.2037 -0.0686 -0.1387
15175W        W34709  11.500   7.271  12.863 -0.1520 -0.1867 -0.0881
15176W        W34710  13.925  15.148  12.532  0.2232  0.1099 -0.2498
15177W        W34711   0.036  13.346  14.993 -0.0254 -0.3158 -0.0760
15178W        W34712   2.755  16.213  14.159 -0.1012 -0.1854  0.1881
15179W        W34713  16.559   2.446  11.705 -0.2210  0.0605 -0.0076
15180W        W34714  12.957   5.221  11.410  0.2499  0.0743 -0.0361
15181W        W34715   3.023  13.447   2.939  0.0276 -0.0830 -0.1043
15182W        W34716   3.347  14.875   3.780 -0.1616  0.1655  0.0794
15183W        W34717  16.988  13.220   3.954  0.0346 -0.0302  0.1638
15184W        W34718   5.046   0.807   4.313 -0.2378  0.0538  0.3467
15185W        W34719   0.736   6.213  12.874 -0.2328  0.2245 -0.0806
15186W        W34720  11.897   1.056   3.119 -0.0907  0.1188 -0.0562
15187W        W34721  16.088   7.463  14.863 -0.3204  0.1845  0.1415
15188W        W34722   9.231   8.326   2.884 -0.1717 -0.0967  0.3063
15189W        W34723   0.250   5.828  13.052  0.1658 -0.1602 -0.0257
15190W        W34724   7.864  14.143  11.286 -0.2794 -0.1418  0.0197
15191W        W34725  10.219  15.304  15.746  0.2343 -0.3606  0.1933
15192W        W34726   9.743  16.102   1.871  0.2268 -0.1678 -0.4045
15193W        W34727   1.855   1.517  11.569 -0.2517  0.0994 -0.2865
15194W        W34728  18.266  15.394   2.689 -0.0253 -0.0914 -0.0797
15195W        W34729   1.017   0.724  13.221  0.0639  0.1685 -0.1836
15196W        W34730  13.623  12.381   3.871  0.1138 -0.0931 -0.0983
15197W        W34731  16.455   9.820  11.092 -0.1380  0.2095  0.1860
15198W        W34732  13.545   2.842   1.276  0.2706  0.0990  0.0410
15199W        W34733   1.859   8.893  12.665  0.3769 -0.0273 -0.1332
15200W        W34734  16.140  16.675   2.630 -0.0053  0.0700 -0.0592
15201W        W34735  16.414  14.335  11.814 -0.0713 -0.2058  0.1745
15202W        W34736   4.579  10.396   4.325  0.0936  0.1813  0.0355
15203W        W34737   7.095  14.906   4.816  0.1398 -0.3115 -0.2304
15204W        W34738   5.237   3.743  12.548  0.2948  0.0310 -0.0024
15205W        W34739   7.777  14.068   1.817 -0.1211 -0.0980 -0.2076
15206W        W34740  13.554   0.328  12.046 -0.0096 -0.2617 -0.2734
15207W        W34741  14.618   0.486   0.978 -0.0062 -0.2590 -0.2483
15208W        W34742   6.744   5.620   4.535 -0.0490  0.1364 -0.0729
15209W        W34743   9.635   7.455  13.214  0.1864 -0.0692 -0.1689
15210W        W34744  13.630   9.581  14.926  0.1127 -0.1479  0.1831
15211W        W34745  16.638   4.914   1.366  0.1133  0.0470 -0.3173
15212W        W34746  11.145   8.127  15.067  0.0251 -0.0199  0.3025
15213W        W34747   7.951   8.021   2.233  0.0350 -0.1205  0.1368
15214W        W34748  17.090  17.241   1.546 -0.0774  0.1906  0.2345
15215W        W34749  11.434  18.214  15.799  0.5859  0.1108  0.3640
15216W        W34750  15.633  15.392  14.704  0.2087 -0.1657  0.1374
15217W        W34751   6.843  14.025  14.665 -0.0254  0.0111  0.0888
15218W        W34752  13.859   7.024  15.704 -0.1371 -0.0962  0.0213
15219W        W34753   1.300  15.085   4.051 -0.0437 -0.0050  0.0058
15220W        W34754   4.839  12.253  13.340  0.0484 -0.0193  0.3027
15221W        W34755  14.375   6.317  14.480  0.1221  0.0447  0.0152
15222W        W34756   7.090   6.475  14.348 -0.0199  0.2876  0.1791
15223W        W34757  10.301   9.671   3.487  0.0836  0.1504 -0.3843
15224W        W34758   9.914   9.496   3.074 -0.0425  0.1033  0.0725
15225W        W34759   3.640   5.937   3.614  0.3036 -0.1321  0.0617
15226W        W34760   9.806   4.525  14.808 -0.1537  0.0573 -0.0672
15227W        W34761   8.232   3.617  12.485 -0.1000 -0.1162 -0.0572
15228W        W34762  16.622  17.400  14.426  0.1804  0.0712  0.2890
15229W        W34763  16.649   9.564  14.545 -0.0431  0.0048 -0.0025
15230W        W34764  16.205  13.868   0.414  0.0420  0.1821  0.3254
15231W        W34765  14.028  12.596   2.347 -0.1486 -0.1014 -0.2075
15232W        W34766  10.321  17.847   3.059  0.2054  0.0454 -0.3708
15233W        W34767  16.206   0.541  14.958 -0.1300 -0.0417 -0.0411
15234W        W34768   1.861   1.290  12.845  0.4076  0.1429  0.1172
15235W        W34769   3.333   0.030  14.594  0.0495 -0.0794  0.0044
15236W        W34770   9.024   7.015  13.994 -0.0469  0.0190 -0.0149
15237W        W34771   8.193  15.572   1.607 -0.0616  0.1884  0.2294
15238W        W34772   1.481   1.866  11.620 -0.0303 -0.4034  0.0028
15239W        W34773   5.508   9.254   1.207  0.2718 -0.1608 -0.2278
15240W        W34774  10.410  17.345   1.305  0.4102 -0.2748 -0.0891
15241W        W34775  11.490  13.279  11.985  0.0243  0.1319  0.1496
15242W        W34776  14.531  13.571  14.321 -0.1095  0.1963  0.0657
15243W        W34777   0.059  15.098  15.351  0.0060  0.0683  0.0545
15244W        W34778   9.826   3.864  13.600  0.0426  0.1018 -0.0172
15245W        W34779  14.370  13.997  14.666  0.1149 -0.0486  0.2520
15246W        W34780  17.088   6.035  12.505  0.0537  0.0426 -0.1330
15247W        W34781   7.030   6.998   4.022  0.0283  0.0739  0.1231
15248W        W34782  13.438   9.911  14.554 -0.2323 -0.2229 -0.2147
15249W        W34783   5.034  13.499  13.184 -0.3115 -0.1761 -0.0408
15250W        W34784   0.784  13.370   1.437 -0.0446  0.0650  0.1481
15251W        W34785   9.542  14.265  12.673 -0.3062 -0.1084  0.2120
15252W        W34786  11.092   6.753  11.482  0.0621 -0.3102 -0.1673
15253W        W34787  10.580   2.888  14.265  0.1673  0.3943 -0.3172
15254W        W34788   1.504  15.269   0.500  0.2623 -0.0207 -0.2362
15255W        W34789  18.135  16.816   3.407  0.2588  0.2599 -0.0691
15256W        W34790   1.205  16.869  12.888  0.0526 -0.4070 -0.0769
15257W        W34791   9.638  14.219  13.518  0.3410 -0.0317 -0.1024
15258W        W34792  16.026  11.610  15.748  0.0503  0.1664 -0.0065
15259W        W34793   3.758   9.540   0.739  0.3806  0.1450  0.0128
15260W        W34794  16.852   7.532   1.678  0.1735  0.1764  0.1254
15261W        W34795   8.533   0.359  12.077 -0.0692 -0.0128  0.2886
15262W        W34796   3.596  17.013  13.601 -0.1048  0.1748 -0.1380
15263W        W34797  13.587   5.594  15.797  0.1959 -0.4027  0.1457
15264W        W34798  14.837  16.205   0.899  0.1629  0.2221  0.0583
15265W        W34799   7.572   6.286   5.293 -0.0540 -0.0810  0.0365
15266W        W34800  15.786   0.742  11.595 -0.1172  0.3279 -0.2152
15267W        W34801   9.282   3.780  13.539  0.3283 -0.2521 -0.0066
15268W        W34802   9.243   1.647   1.599 -0.0145  0.1604 -0.0561
15269W        W34803   9.253   2.195   2.358 -0.0876  0.1411  0.0567
15270W        W34804  10.998   4.820   2.195  0.3595  0.2673 -0.0109
15271W        W34805  18.250   6.988  13.835 -0.2647 -0.1690  0.0487
15272W        W34806   3.978   9.163  12.995  0.0073 -0.0443 -0.0031
15273W        W34807   7.794  15.904   1.171  0.0162 -0.3872  0.1924
15274W        W34808  18.314  11.031   0.054  0.1848  0.2405 -0.1040
15275W        W34809   3.717  14.235  15.768 -0.0674 -0.2122  0.4271
15276W        W34810   5.369   1.373   3.642  0.1392  0.1470  0.0409
15277W        W34811   1.939  17.351   1.299 -0.1046 -0.1953  0.2448
15278W        W34812   7.973  13.900  14.625  0.1257  0.1947  0.1193
15279W        W34813   4.818  11.969  15.297  0.1323  0.2491  0.0288
15280W        W34814   5.580   1.438  13.291 -0.1175  0.0161 -0.0508
15281W        W34815   9.301   8.809  15.015 -0.1198  0.0698 -0.2719
15282W        W34816  15.614   4.565  14.974 -0.3192  0.0214  0.0280
15283W        W34817  14.621  12.828  12.261  0.0144  0.1929 -0.1044
15284W        W34818   8.349  10.339  15.823  0.0533  0.1406  0.3421
15285W        W34819  15.621  14.083   3.576 -0.0031 -0.0480  0.0223
15286W        W34820  12.169   6.599   3.394  0.1186  0.0372  0.0419
15287W        W34821   9.007  15.667   3.573  0.1491 -0.1481  0.1922
15288W        W34822  14.396  13.346   2.915  0.0918 -0.3606 -0.2976
15289W        W34823  14.719   5.686   2.180 -0.0803 -0.2163  0.0275
15290W        W34824  10.570  16.538  13.756 -0.0212  0.1530 -0.0549
15291W        W34825  16.248   8.457  11.764 -0.0937  0.0930  0.0351
15292W        W34826  12.837   3.108  12.725  0.1227  0.1173 -0.1052
15293W        W34827   8.730  10.049  14.474  0.0114 -0.2897 -0.0239
15294W        W34828   2.825  10.111   1.085  0.1929  0.2900  0.0312
15295W        W34829   4.154  12.103   4.250  0.0330  0.0906  0.1747
15296W        W34830   0.296   2.936   1.871 -0.1948  0.0807 -0.2040
15297W        W34831   8.761   3.920   1.842  0.1547  0.0203  0.0778
15298W        W34832   5.240  17.053   1.808  0.2806 -0.2028 -0.1844
15299W        W34833   1.252  13.602  13.420 -0.0329 -0.1717 -0.3357
15300W        W34834  11.493   3.634  11.643 -0.0072  0.1482  0.0369
15301W        W34835  12.179   1.672   0.233 -0.3020  0.1453  0.1017
15302W        W34836   4.294   8.244   2.141 -0.1280  0.1669  0.0339
15303W        W34837   1.276   3.778   0.619  0.0583 -0.0019 -0.3098
15304W        W34838   1.699   4.371  11.595 -0.0254  0.0866 -0.3424
15305W        W34839   7.164   7.899  15.475  0.0118 -0.0992  0.0726
15306W        W34840   4.019   7.987   0.069  0.0187 -0.0844 -0.0927
15307W        W34841  18.321   7.997  12.798 -0.0324  0.0917  0.0005
15308W        W34842   4.337  13.237   2.291 -0.0865  0.1184 -0.0064
15309W        W34843  17.440  17.338  13.232  0.5051 -0.1838  0.1506
15310W        W34844   7.977   4.013   0.125  0.0200 -0.1330 -0.0428
15311W        W34845  16.248   7.567   0.583  0.1003  0.1193  0.2250
15312W        W34846   0.313  14.959  14.134 -0.0658 -0.2042 -0.0900
15313W        W34847   2.463   2.006  11.267  0.1751 -0.0963  0.0878
15314W        W34848   5.148   7.915  12.638 -0.1731  0.1502  0.2728
15315W        W34849  18.023  17.476  11.891  0.4099  0.0483 -0.2219
15316W        W34850  10.093   2.384  15.341  0.1851  0.1156 -0.2198
15317W        W34851  10.593   4.313  14.480 -0.0132  0.0818  0.0542
15318W        W34852   9.362   7.721   2.787  0.0927 -0.0312 -0.1883
15319W        W34853  15.856   6.244   1.892  0.0492 -0.1362 -0.0505
15320W        W34854  13.467   9.612  15.489 -0.0267 -0.2833  0.0904
15321W        W34855   5.154  18.188  14.774  0.3968  0.0883  0.0121
15322W        W34856  13.508  16.193  12.466  0.1659  0.3727 -0.3003
15323W        W34857   2.266   5.987   2.753  0.0608 -0.0726 -0.1223
15324W        W34858   5.044   4.190  12.354 -0.2276  0.0419  0.2002
15325W        W34859   2.230   7.730   3.718 -0.1015 -0.2404 -0.1446
15326W        W34860   1.456   7.867   0.919 -0.1130  0.0584  0.0027
15327W        W34861   2.230   6.889  14.199 -0.0596  0.1347  0.0273
15328W        W34862  12.946   9.174   1.570 -0.0812  0.1680 -0.1122
15329W        W34863   4.818   1.710   2.344 -0.0303 -0.0311  0.1531
15330W        W34864   2.572   9.922  14.004 -0.3371 -0.0204  0.1573
15331W        W34865  13.281  12.581   2.857 -0.0748  0.0296  0.3167
15332W        W34866  12.414  18.105  12.269  0.3104  0.0005  0.1874
15333W        W34867  13.915  13.804  14.416  0.1958  0.0485 -0.0740
15334W        W34868   1.490  12.311   3.320  0.1776  0.1582 -0.0469
15335W        W34869  15.813  10.039   1.972  0.0642 -0.1009 -0.1634
15336W        W34870  14.324   9.210  15.447  0.0276 -0.0417 -0.1192
15337W        W34871   1.153  11.830   0.653 -0.2241  0.3211  0.1490
15338W        W34872   6.002  17.212  13.568  0.2812  0.0700 -0.1184
15339W        W34873  14.031   1.782   0.277  0.1549  0.0669 -0.2199
15340W        W34874  13.971  14.041   0.668  0.0829  0.1167  0.2812
15341W        W34875   0.025   4.804   1.037 -0.3794 -0.2745 -0.5323
15342W        W34876  16.772   5.753  14.513 -0.2499 -0.1431  0.1693
15343W        W34877   0.529  17.634  12.185  0.2161 -0.0183  0.0869
15344W        W34878   2.100   2.257   2.447  0.0987 -0.1244 -0.1189
15345W        W34879   0.020   7.541   3.292  0.0153  0.3614  0.2513
15346W        W34880   6.306   7.733  14.218  0.1489 -0.0172  0.2705
15347W        W34881  11.541   0.661   0.530  0.3240 -0.1884 -0.1288
15348W        W34882   7.875   9.214  14.292 -0.0741  0.2782 -0.0016
15349W        W34883  15.954  12.694  15.658 -0.1527  0.1189  0.0764
15350W        W34884  15.795  13.117   2.289  0.3307  0.0470  0.3932
15351W        W34885  14.563  18.320   2.743 -0.2887  0.2027  0.1085
15352W        W34886   8.134   5.222  15.082 -0.0264 -0.1997 -0.0607
15353W        W34887  14.643   3.172  15.572 -0.0071 -0.1156  0.0140
15354W        W34888   7.266   5.385   1.254 -0.0271 -0.1242 -0.1498
15355W        W34889   4.466   4.171   4.688 -0.0548  0.1078 -0.1957
15356W        W34890   1.518  13.362   0.359 -0.0665 -0.0223  0.3923
15357W        W34891   0.938  13.660   1.084 -0.0008 -0.0574 -0.0456
15358W        W34892   6.745   1.413  14.961  0.0154  0.2103 -0.1215
15359W        W34893  18.121   4.322   2.970  0.0700  0.0545 -0.1260
15360W        W34894  17.825  14.617  14.545  0.1718  0.0643  0.2747
15361W        W34895   4.209   0.077   0.522  0.0090 -0.0207  0.1336
15362W        W34896  13.614  17.420  12.681 -0.0921  0.2398 -0.1467
15363W        W34897  14.911   6.056   1.818  0.2877  0.0118  0.0166
15364W        W34898  11.857  12.978   3.843 -0.1692  0.3211 -0.1435
15365W        W34899   6.640   6.325  14.403  0.0274 -0.1031 -0.1891
15366W        W34900  17.720  10.742   3.745  0.2675  0.0433  0.1844
15367W        W34901   3.189   6.689   3.682  0.0581  0.0977 -0.1106
15368W        W34902   5.734   0.440  12.090 -0.0719  0.2221  0.1663
15369W        W34903   3.885   7.359   0.591  0.0843 -0.1023 -0.0251
15370W        W34904  13.930   4.770   3.727 -0.0160 -0.0567 -0.2250
15371W        W34905  12.699   0.496  12.701 -0.0733  0.1266  0.0912
15372W        W34906  14.249   6.926   1.063  0.1031 -0.1483  0.0687
15373W        W34907  10.629  12.103  11.945 -0.0588 -0.0808 -0.1338
15374W        W34908  12.472  16.428  14.232  0.0417  0.2687  0.0543
15375W        W34909  13.853  12.927   0.613  0.0220  0.0230  0.2916
15376W        W34910  13.236  11.779  14.613  0.0834  0.4516 -0.1338
15377W        W34911  11.121   8.473  12.294 -0.1246  0.4391  0.0029
15378W        W34912  15.998  15.828  12.384 -0.0724 -0.3278 -0.2361
15379W        W34913   2.563  12.085  14.995  0.0887  0.1152 -0.0262
15380W        W34914   1.969   2.129   3.612 -0.0113  0.2291 -0.0935
15381W        W34915  16.373   7.447  12.003 -0.0540  0.1417 -0.2299
15382W        W34916   1.814  10.135   3.237 -0.0679 -0.2229 -0.2760
15383W        W34917  16.646   3.609  14.601 -0.2058 -0.0779 -0.1057
15384W        W34918   7.690  16.777   3.308  0.3240 -0.0659 -0.0578
15385W        W34919  13.280  14.338   5.010  0.0971 -0.1263  0.0257
15386W        W34920  12.208  13.188   2.795  0.0657 -0.1212 -0.2427
15387W        W34921  17.611   8.105  15.416  0.2987 -0.1321  0.3131
15388W        W34922   2.555   1.566  14.134  0.1367 -0.2545 -0.5037
15389W        W34923  16.590   4.221  11.158 -0.2193 -0.2049  0.1005
15390W        W34924   3.033  17.533  13.859  0.3937 -0.0203 -0.2776
15391W        W34925  13.300   8.110  13.000 -0.2985 -0.2945  0.3129
15392W        W34926  10.322   6.781   4.607 -0.1072  0.2650  0.0427
15393W        W34927   1.300  10.630   4.442 -0.0086  0.2459 -0.1350
15394W        W34928   1.121   6.401   3.021 -0.0827 -0.3371 -0.0309
15395W        W34929   0.939   7.009   1.853  0.0088 -0.0228 -0.3549
15396W        W34930   1.225  13.775   4.846  0.1229 -0.2064  0.0947
15397W        W34931   3.092   7.407  12.316  0.2269  0.1717 -0.1289
15398W        W34932   9.259   4.997   2.285  0.1562  0.0423  0.0311
15399W        W34933   9.991   2.098  14.480 -0.1105  0.0271 -0.2556
15400W        W34934  17.027   5.943  13.012  0.2697 -0.2960  0.2044
15401W        W34935   0.567  13.406  15.670 -0.0885 -0.0358 -0.0745
15402W        W34936   1.207  15.672  14.923  0.0862  0.3033 -0.0384
15403W        W34937  12.449   4.072   3.577 -0.1885  0.0129 -0.3674
15404W        W34938   1.675   9.632   3.129  0.2483 -0.1686 -0.0542
15405W        W34939  12.330  12.158   2.702 -0.0803  0.0495  0.1183
15406W        W34940   1.427  17.782   1.894  0.3174 -0.1354 -0.0583
15407W        W34941   1.033   7.612   0.342  0.3804  0.2282  0.2308
15408W        W34942  11.692  14.694  13.753  0.2262 -0.0641 -0.1038
15409W        W34943   0.210   2.775  14.350  0.5363  0.0776 -0.0576
15410W        W34944   3.800  11.334   2.305  0.0430  0.0633 -0.0087
15411W        W34945  10.617  12.784   2.756  0.1587 -0.1099  0.0129
15412W        W34946  10.088   5.219  15.308  0.2347  0.2665 -0.3410
15413W        W34947  16.627  17.907  12.387 -0.2261 -0.3634  0.0939
15414W        W34948  14.029  12.001   1.043  0.1971 -0.2514  0.2324
15415W        W34949   6.931   6.135  12.492 -0.0062 -0.0741  0.1451
15416W        W34950  13.969   6.594  15.383  0.0426 -0.0945  0.1357
15417W        W34951  18.021   8.385  12.612 -0.1270 -0.1408 -0.0399
15418W        W34952  13.841   1.001   2.133 -0.1447 -0.1615 -0.0092
15419W        W34953   7.318  17.737  13.188  0.2890 -0.0499 -0.0301
15420W        W34954  13.518   9.432   0.195  0.3755  0.0266  0.0599
15421W        W34955  14.523  13.413   3.938 -0.3045  0.1129  0.0305
15422W        W34956  11.514   6.337  11.776 -0.1070  0.0686 -0.0603
15423W        W34957  11.555   4.436   4.519 -0.0386  0.1693  0.0137
15424W        W34958  14.922   0.928   1.835 -0.1457  0.2944 -0.0216
15425W        W34959  13.141   3.625  14.374 -0.0273 -0.0836 -0.1067
15426W        W34960  14.776   1.894   0.176 -0.1584  0.1365 -0.2051
15427W        W34961  13.413  16.286   3.169  0.2109  0.2418  0.1624
15428W        W34962   1.815   0.411  13.311 -0.0274 -0.0902 -0.0978
15429W        W34963   9.144  14.846  12.781  0.1099 -0.0547 -0.0849
15430W        W34964   3.036   2.167   1.596 -0.1697  0.1155 -0.0104
15431W        W34965  15.787  14.526   3.862  0.0436  0.1147  0.0722
15432W        W34966   2.679   3.540   3.861 -0.0383  0.0259 -0.0923
15433W        W34967  10.317   9.650  15.227 -0.0006  0.0869  0.2623
15434W        W34968   2.536   4.515   3.221  0.1170 -0.0011  0.3326
15435W        W34969   6.146   5.735   0.490 -0.3776 -0.1226  0.1527
15436W        W34970  14.595  10.629  15.030 -0.1504  0.0437 -0.0631
15437W        W34971  13.666  11.276   0.004  0.1248 -0.0950  0.0578
15438W        W34972   8.648  17.810  15.232  0.2063 -0.1832  0.0771
15439W        W34973   2.129   0.121  11.629 -0.0350 -0.1423  0.2491
15440W        W34974   9.715   7.081  14.953 -0.2472 -0.2183  0.0661
15441W        W34975   4.311  16.720   1.345 -0.5272  0.2885  0.1476
15442W        W34976  16.877  11.689   0.833  0.0937 -0.1140  0.0929
15443W        W34977   4.670   3.861  15.234  0.0299  0.0641  0.0236
15444W        W34978  13.682   2.190  14.522  0.1745  0.3876 -0.0973
15445W        W34979   8.668   0.666  12.430  0.1820 -0.3061  0.2103
15446W        W34980  10.421   9.139  14.310  0.1366  0.2780 -0.0127
15447W        W34981  12.140  10.517   3.020 -0.2479  0.0676  0.0153
15448W        W34982  10.507  10.924   3.579 -0.1272 -0.1601  0.1631
15449W        W34983   5.505   8.417   1.614  0.0143 -0.1299  0.2012
15450W        W34984   2.947  13.895   3.299 -0.3515 -0.1272 -0.0128
15451W        W34985  15.691   9.599   4.262 -0.2164  0.1009 -0.0317
15452W        W34986   8.411   5.976   4.584 -0.2366 -0.1907 -0.2704
15453W        W34987   9.827   3.909   2.013  0.0660 -0.0633 -0.0931
15454W        W34988   2.947  12.798  12.040  0.2595  0.0437  0.1103
15455W        W34989  13.960  16.482  15.202  0.0498  0.2002  0.1054
15456W        W34990   0.340   4.703  13.579 -0.0777  0.2904 -0.3238
15457W        W34991  16.342  18.165  11.986  0.1779  0.0280  0.0901
15458W        W34992  10.908  13.545   2.911  0.1161 -0.1874  0.0639
15459W        W34993   0.749   0.856   1.058 -0.3152 -0.3848  0.4201
15460W        W34994  14.385   1.099  12.060 -0.2125  0.1761  0.2282
15461W        W34995   9.678  13.329  12.880 -0.0655  0.1210  0.1306
15462W        W34996  14.249  14.548  11.134  0.0428 -0.0915  0.1139
15463W        W34997  16.289   8.733   1.406  0.2474  0.1591  0.1349
15464W        W34998  10.910  14.186  13.974  0.2119  0.1681  0.4329
15465W        W34999   1.203  11.052  13.005  0.4978  0.1240  0.0837
15466W        W35000   9.770  11.677   1.654  0.2821 -0.0464 -0.0083
15467W        W35001  17.166  11.488  15.217 -0.0149 -0.5011  0.4281
15468W        W35002  15.197  17.351   1.949  0.2036 -0.2065  0.1958
15469W        W35003   8.052   1.217   0.157  0.1894  0.2205 -0.0266
15470W        W35004  17.951   0.013   3.816 -0.4837 -0.1457  0.0393
15471W        W35005  12.304   5.468   2.379 -0.3836  0.2019  0.1791
15472W        W35006  17.989   1.374  12.461 -0.3489 -0.0177 -0.1809
15473W        W35007   6.751  11.479   2.359  0.0315  0.4016 -0.0217
15474W        W35008   3.524  16.075  12.216 -0.0263 -0.0216 -0.0220
15475W        W35009  10.939  16.182   0.552  0.1548  0.0289 -0.2991
15476W        W35010   8.343  12.783   0.952 -0.0480  0.2240  0.0679
15477W        W35011   6.295   5.231  15.423  0.0644  0.3319 -0.3331
15478W        W35012  14.735   6.063  15.321  0.0090  0.3343 -0.0246
15479W        W35013   4.479  10.484  14.929  0.0425 -0.1959  0.0776
15480W        W35014  14.558  10.576   0.988  0.0413 -0.0042 -0.0265
15481W        W35015   6.278   8.258  11.838  0.6119  0.0270 -0.0055
15482W        W35016  10.797   8.789   4.055  0.2665  0.0093 -0.0219
15483W        W35017   4.324   6.273   2.313  0.1414 -0.2472 -0.0784
15484W        W35018   9.712   9.292  14.961 -0.0346  0.3327  0.0255
15485W        W35019  10.250  11.586   3.665 -0.1421 -0.1358 -0.0779
15486W        W35020  17.979  12.379   3.648  0.0871 -0.0475  0.0067
15487W        W35021  13.267   2.996   2.135 -0.3261  0.0087  0.1728
15488W        W35022  18.363  13.398  14.481  0.0458  0.2277 -0.0928
15489W        W35023  11.565   4.654  14.626  0.2142  0.0426  0.0601
15490W        W35024   1.179  12.773  15.068 -0.0104  0.1183 -0.5296
15491W        W35025   1.642   1.618  14.080  0.2037 -0.1398 -0.6338
15492W        W35026  10.224  15.097  12.081  0.1989  0.2747 -0.3352
15493W        W35027  12.702   8.358   0.456  0.0549 -0.1262 -0.2270
15494W        W35028  10.669   1.687  15.144 -0.2574 -0.0728 -0.0277
15495W        W35029   2.141  17.714  14.320  0.2203 -0.2119  0.2348
15496W        W35030  13.823  14.065   1.301  0.0379  0.2007 -0.1569
15497W        W35031   5.576  13.459  12.754  0.0208 -0.1767  0.0423
15498W        W35032   5.908   1.840   4.781  0.0359  0.3758  0.0233
15499W        W35033   9.255   3.481   2.675  0.0350  0.0529 -0.1579
15500W        W35034  13.633  13.428   4.203 -0.1540 -0.1510  0.0078
15501W        W35035   9.287   7.707  12.410 -0.2985  0.1625 -0.0535
15502W        W35036  10.714   2.930   1.546  0.0978 -0.1991 -0.3683
15503W        W35037   2.861  12.763  11.068  0.1002  0.0910 -0.4213
15504W        W35038   6.689   9.767   2.639 -0.1226 -0.0372  0.2130
15505W        W35039   8.375   0.866  10.309 -0.1400  0.4045  0.0865
15506W        W35040   6.005   2.897  11.732 -0.0638  0.1674 -0.1608
15507W        W35041   3.406   5.171   1.438  0.0835 -0.3970  0.0622
15508W        W35042  12.712  10.038  14.356 -0.0096 -0.0115  0.0544
15509W        W35043   8.738  16.345   2.884 -0.3192 -0.0120 -0.2894
15510W        W35044   4.327  13.115  15.584  0.1710  0.2334 -0.0530
15511W        W35045   6.472  11.990  15.556 -0.2113 -0.2434  0.1265
15512W        W35046  16.663   6.991  11.815  0.2377  0.1944  0.1555
15513W        W35047  14.928   1.298   0.064  0.1623  0.0918 -0.0261
15514W        W35048   2.950   4.829  11.459 -0.0873  0.0886  0.2385
15515W        W35049   7.751  15.016  11.852  0.1146 -0.0755 -0.2188
15516W        W35050   8.381  15.277  15.364 -0.0245  0.3000 -0.1130
15517W        W35051   7.778   3.874  11.458  0.0520 -0.1136 -0.0539
15518W        W35052  13.239  14.157   4.087  0.3337 -0.0338 -0.0233
15519W        W35053   5.083  16.973   0.852  0.2192 -0.1614  0.1231
15520W        W35054  15.518   7.965   2.358  0.2290  0.5136  0.3123
15521W        W35055  16.303   1.485   2.891 -0.0700  0.0801 -0.0106
15522W        W35056   7.249   5.307   3.355  0.0452 -0.1055  0.0259
15523W        W35057  10.213  12.896   3.132 -0.2751 -0.0062 -0.1814
15524W        W35058   4.848  17.346   4.445 -0.1473  0.4905 -0.5207
15525W        W35059   8.317  16.755   0.660  0.0246  0.1679 -0.2868
15526W        W35060  10.432  12.672  13.216  0.2686 -0.1360  0.3941
15527W        W35061   9.627  17.741  14.100 -0.1527  0.1036 -0.1812
15528W        W35062   0.013   4.662  11.469 -0.2546 -0.1523  0.0608
15529W        W35063   7.996   9.420   2.732  0.0138 -0.0652 -0.2175
15530W        W35064   2.707   0.747  13.709 -0.1091 -0.0307 -0.0406
15531W        W35065  14.451   2.801   3.027 -0.4668  0.0581 -0.2311
15532W        W35066   4.173   7.020   3.571 -0.2856 -0.0124 -0.4821
15533W        W35067   2.079  14.218  14.049  0.1176 -0.0352  0.0062
15534W        W35068   2.974   5.836  11.237  0.1600 -0.0803 -0.1675
15535W        W35069   7.270   7.797  14.966 -0.0548 -0.1956  0.2906
15536W        W35070   6.063   7.058  15.629 -0.2422 -0.0089 -0.1157
15537W        W35071   5.541  12.426  15.321 -0.2901  0.0614  0.0365
15538W        W35072  15.649   7.888   4.250  0.2330  0.1890 -0.0143
15539W        W35073  16.969  17.648   4.159  0.0103 -0.3037  0.0254
15540W        W35074  14.739   4.613   1.225  0.0834 -0.0268 -0.0721
15541W        W35075   5.996  11.874  13.944  0.1133  0.1090 -0.0937
15542W        W35076   2.847   3.242   0.560 -0.0318 -0.1459  0.0159
15543W        W35077   4.742   3.060  13.831  0.1382  0.0473 -0.0948
15544W        W35078   5.397   7.729   1.456 -0.1512  0.1540 -0.0869
15545W        W35079  18.380   7.013   1.427 -0.1356 -0.0529  0.0999
15546W        W35080  16.153   8.640  15.634 -0.1706  0.1426  0.1591
15547W        W35081  10.981   4.271  15.275  0.0159 -0.0008 -0.1013
15548W        W35082  12.124   3.836   0.226  0.1969 -0.1355 -0.0139
15549W        W35083   7.625   7.605  14.628  0.1444 -0.0024  0.3051
15550W        W35084  17.353  16.079  13.608 -0.2525 -0.0688 -0.2615
15551W        W35085  12.294   6.702   0.004 -0.2749 -0.0540 -0.1152
15552W        W35086   4.187  16.060  15.308 -0.1412 -0.1909  0.1277
15553W        W35087  10.686  17.647   2.780 -0.1403  0.1313 -0.0619
15554W        W35088  15.553   6.378   2.396  0.0248  0.0228 -0.2434
15555W        W35089  16.330  13.047  13.313  0.0871  0.1937  0.0058
15556W        W35090   6.593   2.881   1.722 -0.2630 -0.1067 -0.1091
15557W        W35091  13.946   4.795  13.699 -0.2362  0.1894 -0.0724
15558W        W35092   8.967  17.900  12.948  0.0112 -0.0251  0.2015
15559W        W35093  13.734   7.713  14.690  0.3690 -0.3296 -0.0021
15560W        W35094  13.116   0.525   4.242  0.0393 -0.1725 -0.1444
15561W        W35095  13.918  10.035  12.754  0.2043  0.0090 -0.1261
15562W        W35096  12.118  12.849   1.970 -0.2957 -0.3266  0.1183
15563W        W35097  15.514   7.112   2.875  0.0256  0.5000  0.3260
15564W        W35098  14.311  16.148  13.726  0.4241  0.1028  0.2646
15565W        W35099  17.653  14.309  12.163 -0.0388  0.2171  0.2411
15566W        W35100  17.197   1.155  15.720  0.0318  0.0625 -0.0200
15567W        W35101  12.545   9.968   0.047 -0.0328  0.0504 -0.0218
15568W        W35102   5.341   4.805   4.288  0.1685  0.1680  0.1819
15569W        W35103   3.728   3.027  14.783  0.0640  0.0993 -0.1418
15570W        W35104  10.069   5.216   4.062 -0.0816 -0.0863 -0.1463
15571W        W35105  17.303   4.351   3.789  0.0219 -0.3037 -0.0830
15572W        W35106  16.782  14.125  12.255  0.0240  0.1009 -0.0883
15573W        W35107   4.337   2.107   3.053  0.1166 -0.0693  0.1879
15574W        W35108  13.629  10.483  14.532  0.2084 -0.1206  0.0448
15575W        W35109  13.682  17.410   3.362  0.0482 -0.1514  0.0813
15576W        W35110  10.794  11.794   0.363  0.0552 -0.3609  0.0731
15577W        W35111   5.073  12.003  12.359 -0.2547  0.1233 -0.0331
15578W        W35112   8.198   9.774   1.017 -0.0118  0.2865  0.0432
15579W        W35113   5.429  16.561   3.362 -0.3186  0.1807  0.0483
15580W        W35114   6.088   3.487   4.340 -0.1089 -0.0451  0.1331
15581W        W35115  16.490   4.507   3.020 -0.0545  0.1884 -0.2561
15582W        W35116   7.798  13.240   5.209  0.2089 -0.2393  0.1004
15583W        W35117   4.086  17.261   2.141  0.1575 -0.0423  0.1367
15584W        W35118  10.335  17.226  14.137 -0.0772 -0.0034 -0.2690
15585W        W35119  12.581  17.158  12.965  0.0254  0.0021 -0.0163
15586W        W35120   4.948  17.245  12.508  0.1120  0.0535  0.3748
15587W        W35121   1.261   3.636   1.721 -0.0559  0.1417  0.0571
15588W        W35122  18.114   6.689   1.714  0.2682  0.3342 -0.0868
15589W        W35123  16.981  10.635  12.564 -0.0510  0.2284  0.2432
15590W        W35124   4.309  12.785  15.161  0.2681 -0.3235 -0.0004
15591W        W35125  16.113  10.019   3.210 -0.3551  0.1817 -0.1356
15592W        W35126  12.209   9.660   1.776  0.2193 -0.1199 -0.0597
15593W        W35127  10.033  14.327  15.202  0.2698 -0.2657 -0.0706
15594W        W35128   3.792   9.775  14.482  0.0060 -0.0973 -0.0303
15595W        W35129   5.637  12.699  13.463 -0.1307 -0.0880  0.2862
15596W        W35130  11.745  17.824   0.056  0.0727 -0.1941  0.0027
15597W        W35131  12.946  11.289   1.784 -0.0672  0.0202 -0.1263
15598W        W35132  14.084   2.729  13.030 -0.2612  0.0286 -0.1132
15599W        W35133  14.573   0.955  13.071 -0.0088  0.0404  0.0619
15600W        W35134   7.415   5.955  11.792  0.0426  0.0423  0.2451
15601W        W35135  14.444   5.567  11.970  0.0582 -0.0635 -0.0560
15602W        W35136   2.406  13.651   1.022  0.3182 -0.3196  0.3901
15603W        W35137   7.448   4.646  13.185 -0.0442 -0.3031 -0.2016
15604W        W35138  14.742  16.609  13.317  0.1477  0.3397  0.1193
15605W        W35139  12.418   6.360   3.769 -0.4312 -0.0500  0.0383
15606W        W35140  13.539   7.756   3.544  0.0410  0.2773 -0.3603
15607W        W35141  10.805   2.786   4.726 -0.1071 -0.2242 -0.0849
15608W        W35142   9.127  10.349  14.779 -0.1569 -0.2807 -0.1273
15609W        W35143   7.501  11.204   4.444  0.1557 -0.0037  0.0615
15610W        W35144   2.874   4.556  13.068  0.1501  0.0265  0.0727
15611W        W35145  16.640   0.968  14.275 -0.0229  0.1346  0.1295
15612W        W35146  14.226   9.322   0.441  0.0401  0.0114 -0.1260
15613W        W35147   0.881   0.279  15.052 -0.0094  0.3022  0.0692
15614W        W35148   7.242   9.308   5.027  0.1377 -0.1673 -0.0014
15615W        W35149  10.415  17.556   4.896  0.0656  0.3016 -0.1515
15616W        W35150   7.876  16.439   4.240 -0.0587 -0.0283  0.0525
15617W        W35151  12.545  16.506  13.582  0.1683  0.1480 -0.0318
15618W        W35152   8.696  18.239  13.602 -0.0042  0.4149 -0.0306
15619W        W35153   7.396  14.248   1.441 -0.3174  0.0897 -0.0979
15620W        W35154  15.421   5.079   3.627 -0.0827 -0.1088  0.1932
15621W        W35155  10.100  16.033   4.026 -0.3559 -0.1104 -0.2386
15622W        W35156  13.583  14.427  13.884  0.2240 -0.5410 -0.0759
15623W        W35157  11.443   1.781   0.980  0.0835 -0.0137 -0.2705
15624W        W35158  16.211   2.336   3.616 -0.3169  0.2250 -0.1790
15625W        W35159   3.440  10.252   2.728 -0.3522  0.1077  0.1311
15626W        W35160   1.905   8.886   9.590  0.0288  0.2252 -0.1016
15627W        W35161   7.660   9.127  14.891 -0.0746  0.2111 -0.0074
15628W        W35162   3.981  10.394   1.130  0.0443 -0.1986 -0.0701
15629W        W35163  17.558   8.210  12.772 -0.0741  0.1085  0.0664
15630W        W35164  18.070   1.892  12.585 -0.0238  0.0027  0.1176
15631W        W35165   6.768   7.353  13.824 -0.0640  0.0054 -0.1231
15632W        W35166  12.435  14.588   4.461  0.2508  0.0690  0.2016
15633W        W35167   3.639  10.952   2.557  0.0489  0.0086 -0.2627
15634W        W35168   1.113   2.172   0.249 -0.2838  0.2749 -0.1907
15635W        W35169  16.122   6.142  15.704 -0.1097 -0.0190 -0.1918
15636W        W35170  18.179   3.357  12.254 -0.1286 -0.0512  0.0221
15637W        W35171  11.707   9.673   1.566 -0.1881 -0.2687 -0.0149
15638W        W35172  16.466  16.316  10.844  0.4374 -0.0970  0.1673
15639W        W35173  17.438   8.136  14.761 -0.2349 -0.1346  0.0008
15640W        W35174  13.394   3.317  11.976  0.1005 -0.0817  0.1028
15641W        W35175  11.702  14.280   5.356 -0.1218 -0.0856  0.1587
15642W        W35176   9.239   1.935  13.027 -0.0630 -0.0641 -0.2283
15643W        W35177   9.320   0.099   0.410 -0.0781 -0.2240 -0.0129
15644W        W35178   8.783   5.350  13.053 -0.0188  0.2291  0.1529
15645W        W35179   2.865   2.322  12.687 -0.0685 -0.0307 -0.1586
15646W        W35180   6.173   6.186   3.525 -0.0289 -0.0952  0.0628
15647W        W35181   8.303   9.575  12.738  0.0300  0.1236  0.3765
15648W        W35182  15.274  14.454   3.668 -0.3635 -0.1971 -0.3475
15649W        W35183   8.933   7.292   1.991  0.0429 -0.0844  0.1354
15650W        W35184   7.913   4.833   2.074  0.2954 -0.0741  0.4796
15651W        W35185  16.264  14.853  11.640 -0.0543  0.2455  0.0383
15652W        W35186   7.288  13.136  14.824 -0.1526 -0.0388 -0.2837
15653W        W35187   6.048   8.837   0.506 -0.0579 -0.0097 -0.1645
15654W        W35188   1.356   5.761  15.018 -0.2564  0.0395  0.1673
15655W        W35189   2.807  15.691  13.524  0.2738  0.2537 -0.0091
15656W        W35190  10.784  13.200   2.359 -0.0741 -0.1395  0.0171
15657W        W35191  10.465   6.216  15.342 -0.1596 -0.2576 -0.1100
15658W        W35192   1.438   3.619   4.089 -0.1162 -0.3801  0.2530
15659W        W35193   5.207   0.137  14.303 -0.1335 -0.2143  0.1684
15660W        W35194  18.129   6.562   1.222 -0.3853  0.2418 -0.1884
15661W        W35195   8.900  17.264  13.459 -0.1550  0.2038 -0.0790
15662W        W35196   1.663  14.268  11.535 -0.2654  0.1229 -0.0003
15663W        W35197  14.086  11.949  15.522 -0.0359 -0.0376  0.2765
15664W        W35198   8.406   9.419   4.089  0.1894  0.2223 -0.1016
15665W        W35199   5.775   5.584   0.819  0.0562 -0.1030 -0.0282
15666W        W35200   8.754   2.663   1.826  0.2238 -0.0828  0.2055
15667W        W35201   5.924   0.620   2.830  0.0730 -0.2048  0.0683
15668W        W35202   0.637  14.114   1.215  0.0564 -0.0187  0.5303
15669W        W35203  11.637  12.450   0.953  0.1536  0.1441 -0.2311
15670W        W35204  15.423   3.925   0.410 -0.0110  0.1601  0.2489
15671W        W35205  11.574   0.788  12.327  0.1778  0.1035  0.0810
15672W        W35206  16.952   9.575  15.292  0.2362  0.1282  0.1941
15673W        W35207  14.810   9.112  15.491  0.2903  0.0387 -0.0850
15674W        W35208  11.618   5.682  12.340  0.0307 -0.0542  0.0375
15675W        W35209   7.757   0.193  13.120  0.0873  0.3459 -0.3904
15676W        W35210  14.031  15.212   3.330  0.1814 -0.0373  0.2689
15677W        W35211   1.811   8.088   4.372  0.3557  0.4776  0.1355
15678W        W35212   2.572  12.295   0.018 -0.0290 -0.1584 -0.3143
15679W        W35213   1.150   8.898  14.641  0.0429 -0.2575  0.0156
15680W        W35214  16.264  12.543   1.771  0.0368 -0.0905  0.1628
15681W        W35215   7.116   2.859  12.262 -0.2807  0.0209  0.0112
15682W        W35216  10.395   7.771  13.521 -0.0017 -0.2297  0.3603
15683W        W35217   1.712   1.903   1.922  0.0692  0.0489 -0.0619
15684W        W35218   9.263  16.354   1.775 -0.1363 -0.4505 -0.2390
15685W        W35219   8.994   0.105   4.789  0.1177  0.0263  0.0664
15686W        W35220   1.246  17.402  13.283  0.0298  0.1351  0.0744
15687W        W35221  15.419   6.559  12.585  0.3587  0.2944  0.3001
15688W        W35222  18.128   5.096  10.599 -0.0444 -0.1656 -0.0337
15689W        W35223   5.889  16.870   3.380 -0.1731 -0.0523 -0.1964
15690W        W35224   6.222   5.553  11.316  0.0469 -0.1016  0.0207
15691W        W35225   9.892   7.216  12.289 -0.1787  0.1758  0.0213
15692W        W35226   2.146  17.809  12.280  0.1517 -0.3183 -0.0670
15693W        W35227   7.190  11.357  15.283  0.1407 -0.0952 -0.3097
15694W        W35228  10.107   9.138   0.668  0.1189 -0.0654  0.1791
15695W        W35229   8.775   5.799   4.098 -0.0531  0.3172 -0.3657
15696W        W35230  16.216  12.572  13.523 -0.1979 -0.0711  0.1256
15697W        W35231   8.995   1.225  15.620 -0.3645  0.0733 -0.2141
15698W        W35232  11.835  13.737  12.489  0.1392  0.0136  0.0237
15699W        W35233  10.841  13.483   3.434  0.1026 -0.0372 -0.2595
15700W        W35234   4.103  13.274  14.123 -0.1697  0.2390  0.1176
15701W        W35235  14.457  15.981  11.177 -0.2564  0.0841  0.0693
15702W        W35236  17.654   7.304  15.808  0.1144 -0.1815 -0.3461
15703W        W35237   4.040  12.053  14.404  0.1438 -0.0261 -0.2295
15704W        W35238  10.247   8.289  13.290  0.0775 -0.0627  0.0687
15705W        W35239  16.343   3.457  13.651  0.1628 -0.1785 -0.0786
15706W        W35240   2.998   9.020   3.117  0.0358  0.1901 -0.0013
15707W        W35241   0.981   5.734   0.594 -0.2121  0.0096  0.1282
15708W        W35242  15.424  14.590  12.538  0.2616  0.1351 -0.1790
15709W        W35243   1.120  11.755   1.130  0.1012  0.1451  0.0564
15710W        W35244  16.954   4.529  13.002 -0.0990  0.1366 -0.2454
15711W        W35245  15.488   2.859   2.677  0.0502 -0.2320  0.0683
15712W        W35246   8.463   3.783  14.055 -0.1664  0.1728  0.1295
15713W        W35247   1.805   9.147   0.061 -0.0480  0.2868 -0.0052
15714W        W35248  11.723  17.656   2.704  0.0649 -0.1677  0.0976
15715W        W35249  17.349  15.564  12.520 -0.2855 -0.4928 -0.0075
15716W        W35250  10.550   7.297   2.929 -0.0887 -0.4535  0.1100
15717W        W35251  16.074  11.431  11.558  0.1887 -0.1613 -0.0467
15718W        W35252   1.714  13.212   2.744 -0.0164 -0.3448  0.1445
15719W        W35253   5.009   0.253  15.769  0.0274 -0.0918  0.1120
15720W        W35254  11.212   5.124  13.327 -0.1035  0.3385 -0.2221
15721W        W35255   5.630   5.176  14.197  0.1153 -0.0334 -0.1930
15722W        W35256   6.491   1.695  11.657 -0.3399 -0.1474 -0.0415
15723W        W35257   0.293  16.821  15.034 -0.3091  0.0005  0.2602
15724W        W35258  14.141  17.823  12.102  0.0381 -0.1197  0.1067
15725W        W35259   7.080   5.457   3.919  0.0661  0.2531 -0.2341
15726W        W35260  17.226   9.302  11.978 -0.1658  0.2911  0.0705
15727W        W35261   0.241   8.902   9.936 -0.0431 -0.0765  0.2343
15728W        W35262   4.569   3.184   4.690 -0.1741 -0.2555  0.0271
15729W        W35263   5.734   3.997   3.937 -0.2522  0.0446  0.1595
15730W        W35264   1.259   7.372   1.091  0.0114  0.2324 -0.1622
15731W        W35265  10.145  11.397   4.160  0.0974  0.1010 -0.2121
15732W        W35266   7.388   8.506  12.879  0.0901  0.2728 -0.0119
15733W        W35267  16.835   4.936  13.280  0.0381  0.1833 -0.1332
15734W        W35268   6.747   2.563   0.807  0.0170 -0.0388 -0.1961
15735W        W35269   4.699  12.753  14.205 -0.1375 -0.0020  0.3758
15736W        W35270   3.178   5.992   3.525  0.2721 -0.2829  0.0674
15737W        W35271   0.637  17.994   2.228  0.2918  0.2092 -0.0303
15738W        W35272  10.460  15.453  14.785  0.1182  0.2662  0.0777
15739W        W35273   0.109  14.210  15.712  0.1934 -0.0201 -0.1553
15740W        W35274   6.489   9.216   2.159  0.1787 -0.1989 -0.0954
15741W        W35275  16.570   3.964  12.766  0.0228 -0.0440 -0.0812
15742W        W35276  13.770   3.321  13.718 -0.0125 -0.2272  0.0385
15743W        W35277   4.642  11.185   4.562 -0.0446 -0.0669 -0.1942
15744W        W35278  16.105   1.528  13.867 -0.1468 -0.0698 -0.2830
15745W        W35279   3.683  16.190   3.514 -0.0267  0.2201  0.3314
15746W        W35280   4.728  14.040   4.485  0.1424 -0.0767  0.4734
15747W        W35281   9.497  13.742   3.967  0.0809 -0.1972  0.2901
15748W        W35282  10.176   8.331   0.524 -0.0279  0.2321 -0.1689
15749W        W35283   4.381  11.597   4.568 -0.0075  0.1836 -0.1467
15750W        W35284  16.695  15.754   1.811  0.1675 -0.3494 -0.0484
15751W        W35285  17.976   9.239  14.371 -0.1692  0.0896 -0.1996
15752W        W35286   3.417   9.177  13.900 -0.2004  0.2118 -0.2925
15753W        W35287  14.671   5.908  14.177 -0.5445  0.0130 -0.0943
15754W        W35288   5.791   2.398   1.122  0.0386 -0.2240  0.0795
15755W        W35289  18.111   0.539  13.949  0.0199 -0.1538  0.2575
15756W        W35290   2.652   7.390   3.713 -0.1728 -0.2500 -0.2039
15757W        W35291  15.915  15.676   2.691 -0.0856  0.0893  0.1088
15758W        W35292  17.962   1.379  15.667 -0.1487  0.2649  0.5781
15759W        W35293  14.269  16.784  15.009  0.0436  0.0143 -0.0206
15760W        W35294  11.546  13.547   1.644 -0.0432  0.0996  0.1707
15761W        W35295   3.998   6.020  15.181 -0.0903  0.2758 -0.2118
15762W        W35296  10.946   4.147   2.176  0.0790  0.0270  0.2140
15763W        W35297  10.029   9.542   1.009 -0.0792 -0.3070 -0.0239
15764W        W35298  15.020  17.973   4.315 -0.3469  0.2494 -0.0739
15765W        W35299  18.179   0.371   0.397 -0.0514  0.0208  0.0198
15766W        W35300  12.029  11.519  11.449 -0.1799  0.2167 -0.0038
15767W        W35301  14.247  17.424   4.670  0.0427  0.1953 -0.0800
15768W        W35302   4.260   7.781  12.305  0.0101 -0.0945 -0.1394
15769W        W35303   9.809   4.642  13.594 -0.1332 -0.0716  0.0172
15770W        W35304  12.556   5.401   1.581  0.1250 -0.1201  0.0955
15771W        W35305   6.010  18.365   2.024 -0.0198 -0.1568 -0.0001
15772W        W35306   5.371   7.596   0.516 -0.0236  0.0905 -0.0804
15773W        W35307  14.700   4.283  14.812  0.1533 -0.1684 -0.2643
15774W        W35308   6.729   7.512   0.992  0.1346  0.1179 -0.0876
15775W        W35309   6.718   4.247   5.126 -0.1875  0.3718  0.1260
15776W        W35310   0.697  15.039   0.163 -0.4003 -0.0739 -0.2232
15777W        W35311  11.478  11.391  13.893 -0.1653  0.2611 -0.1757
15778W        W35312   9.062   3.507   4.486 -0.3678 -0.2289 -0.0539
15779W        W35313  18.165   8.437  10.133 -0.0053 -0.1091 -0.0633
15780W        W35314   6.876  18.396   1.853  0.2484  0.1582  0.0721
15781W        W35315  16.714  16.312   3.591  0.0152  0.2371  0.2883
15782W        W35316  16.071   2.931  14.918 -0.1391  0.3255  0.0135
15783W        W35317   2.166  11.583  14.849  0.1854  0.0651 -0.0846
15784W        W35318  10.277   6.444  15.771 -0.2971  0.0932  0.2824
15785W        W35319   5.717  17.140  12.553 -0.0919 -0.0825 -0.1293
15786W        W35320  15.777  18.386   1.036 -0.0594  0.2090  0.0084
15787W        W35321  12.778   2.572   5.503  0.2040 -0.2245 -0.0171
15788W        W35322  12.592  15.860   2.824  0.1442  0.1979 -0.3687
15789W        W35323  11.348   3.406   4.692 -0.0292 -0.1657  0.4888
15790W        W35324   4.520   4.134  12.416 -0.1565 -0.2512 -0.0924
15791W        W35325  15.824  15.020   3.622  0.1856 -0.2240  0.1639
15792W        W35326  15.518   4.570  13.324 -0.3136  0.0437  0.0509
15793W        W35327   7.511  15.568  12.846  0.1177  0.0271 -0.0021
15794W        W35328  11.318  18.344   1.709  0.0788  0.4526 -0.1162
15795W        W35329   6.882  16.342  12.420 -0.2166  0.0765  0.3914
15796W        W35330   6.006  12.752   1.621 -0.1378  0.3468  0.2144
15797W        W35331  10.644  17.552  11.750 -0.0055  0.1032  0.1144
15798W        W35332  17.047   8.393  14.317  0.0077  0.1625 -0.1967
15799W        W35333  14.670  14.143   4.846  0.0222 -0.0012 -0.0889
15800W        W35334   6.229  13.365  15.014 -0.0043  0.2886 -0.2582
15801W        W35335  15.773  14.682  14.688 -0.0478  0.0366  0.1766
15802W        W35336  17.817  18.011   0.240 -0.3449  0.1620  0.1215
15803W        W35337   4.751  11.072   3.768  0.0407  0.1683 -0.1722
15804W        W35338  15.159  15.658  12.103 -0.0405  0.0673 -0.0396
15805W        W35339  16.076   8.874  15.027  0.1106  0.3438 -0.0999
15806W        W35340   3.918   5.126  14.970 -0.0869  0.1093  0.0956
15807W        W35341  13.997   4.327   2.173  0.1663 -0.1279  0.0426
15808W        W35342  10.635   7.134   4.449 -0.0488 -0.0536  0.2014
15809W        W35343   1.341   6.869  14.102 -0.1095 -0.2724 -0.1902
15810W        W35344  13.383  12.122   3.057  0.1121  0.2451  0.0702
15811W        W35345  15.996   3.859   5.373 -0.0982 -0.0571  0.0602
15812W        W35346  16.509   8.535   3.119 -0.3658 -0.0290  0.1597
15813W        W35347   9.943   1.734   2.914 -0.0863  0.1670 -0.1410
15814W        W35348   3.410  14.458   1.570  0.1939  0.1610 -0.4046
15815W        W35349   4.670  14.860   0.159 -0.0988 -0.2535  0.0846
15816W        W35350  15.076   6.573  13.581  0.0172 -0.0386 -0.0730
15817W        W35351   3.819  13.633   3.573  0.2708  0.1230 -0.0182
15818W        W35352  14.363  11.839  13.083  0.3278 -0.0315 -0.2686
15819W        W35353   8.566  16.347   0.466  0.3330 -0.1447  0.2035
15820W        W35354  16.370   9.175   0.463  0.0866  0.1500 -0.2519
15821W        W35355  11.007   2.355   4.904 -0.1477 -0.0257 -0.0278
15822W        W35356  11.440  10.748   4.885 -0.1112  0.0037 -0.2184
15823W        W35357   0.404   8.145   0.237 -0.3320  0.2099 -0.0034
15824W        W35358  15.534  10.027  13.580 -0.0939  0.1176  0.1481
15825W        W35359  15.256  10.867   1.664 -0.0356  0.1437  0.0154
15826W        W35360  17.907  17.411   2.651  0.2199 -0.2229  0.2297
15827W        W35361   3.238  13.186  12.285 -0.0201 -0.0150 -0.2146
15828W        W35362   0.237   0.387  11.017  0.0601  0.0864 -0.1613
15829W        W35363  13.739  14.915   4.225 -0.2048 -0.0369  0.0663
15830W        W35364   5.732  10.238  14.999  0.5940  0.1245 -0.1451
15831W        W35365   9.186  17.670  14.326  0.1557 -0.1054  0.1197
15832W        W35366  13.363  17.761   0.579  0.0934  0.0841 -0.1168
15833W        W35367  15.962  13.435  11.553  0.0315 -0.2997 -0.1396
15834W        W35368   4.125  15.452  12.533 -0.2396 -0.1232 -0.1889
15835W        W35369  10.350   2.069  12.991 -0.0642  0.0647  0.0656
15836W        W35370   9.917   9.696   3.846 -0.2693  0.2192 -0.0320
15837W        W35371   1.634  14.325  13.784 -0.2763  0.1178 -0.1238
15838W        W35372   2.411  12.356  12.780  0.1936  0.0220 -0.0672
15839W        W35373   6.094  13.469  13.044 -0.0614  0.0834 -0.0242
15840W        W35374  17.371   8.646  14.577  0.0013  0.0228 -0.2281
15841W        W35375   4.882   8.936   4.066 -0.1898  0.0684 -0.2359
15842W        W35376  16.454   2.165  14.595 -0.1447 -0.4136  0.0673
15843W        W35377  10.682   0.049  12.791  0.1481  0.0395  0.1565
15844W        W35378   9.560   7.825   0.091  0.1076  0.0546  0.2746
15845W        W35379   2.352   4.012  14.740  0.1630  0.0381 -0.1052
15846W        W35380   4.225  10.783  15.654 -0.2002  0.0051  0.0226
15847W        W35381  16.405   4.858   4.501  0.0464 -0.1374  0.4236
15848W        W35382   6.920   4.093  13.716 -0.2432  0.0922 -0.1423
15849W        W35383  16.399   9.396  13.847 -0.0445 -0.3193 -0.0765
15850W        W35384  14.015  18.321   2.957 -0.0411 -0.0602 -0.0784
15851W        W35385  12.499   5.030   2.716  0.2977 -0.3643  0.1089
15852W        W35386   0.603  14.158  12.946  0.2809  0.3132 -0.0924
15853W        W35387   8.721   7.953  12.353 -0.1372  0.1781 -0.0822
15854W        W35388  10.369  16.266  14.135 -0.0812 -0.3190  0.0549
15855W        W35389   4.691   8.653   3.641 -0.1169  0.0383 -0.0709
15856W        W35390   5.851   5.447   3.545 -0.0815 -0.2467  0.1913
15857W        W35391   3.104   8.124  15.735  0.0535  0.0104  0.1112
15858W        W35392  11.468   4.301  15.499  0.0835 -0.0398 -0.1503
15859W        W35393   4.352   3.669   4.562 -0.1502  0.1180  0.0253
15860W        W35394   3.167  10.936   1.094  0.0322 -0.3238  0.1629
15861W        W35395   4.043   1.821   2.652 -0.1754  0.0529  0.1010
15862W        W35396   8.580  14.835  13.497  0.0548 -0.0242 -0.2433
15863W        W35397   3.922   9.142  11.774  0.2761 -0.1136  0.1339
15864W        W35398   8.513   7.868   2.216 -0.2791  0.2275 -0.0225
15865W        W35399   9.985   2.554   3.407 -0.0040  0.2535  0.2210
15866W        W35400  15.695  12.471  13.398  0.0003  0.1257  0.2170
15867W        W35401   7.402  11.726  12.830  0.0384 -0.1553 -0.1345
15868W        W35402   8.627   8.632  14.654 -0.1012 -0.5820 -0.1531
15869W        W35403   0.531  12.454  12.438 -0.1645  0.1026  0.3481
15870W        W35404  16.608  16.156   0.902  0.0622  0.0825 -0.0476
15871W        W35405   8.849  11.750  11.252 -0.1759 -0.2015 -0.1730
15872W        W35406   7.634   9.890   2.462 -0.0965 -0.0515  0.1020
15873W        W35407   0.730   2.054  10.653 -0.0098  0.2112 -0.1021
15874W        W35408  18.192  10.543   0.453  0.1266 -0.1704 -0.0946
15875W        W35409  16.173   2.643  11.485  0.0380 -0.0257  0.2390
15876W        W35410  11.851   8.166   1.042 -0.1221 -0.1381 -0.0965
15877W        W35411  13.662   6.944   1.835  0.1880 -0.3339 -0.2965
15878W        W35412   4.485  12.319   1.424  0.0640  0.0007  0.0458
15879W        W35413   3.829   3.299  14.365  0.0474  0.3599 -0.3116
15880W        W35414   5.432  11.948   1.689 -0.0885  0.0623 -0.1200
15881W        W35415  18.171  10.661   3.580 -0.1873 -0.1277  0.0616
15882W        W35416  12.113   3.842   0.833 -0.1439 -0.0174  0.2825
15883W        W35417  15.540  11.750  12.225 -0.0636 -0.2205  0.1850
15884W        W35418   3.298   8.878   1.423 -0.0732  0.1527  0.1921
15885W        W35419   7.125  11.953   1.570 -0.0067 -0.0196 -0.0292
15886W        W35420   2.540   4.024   2.312  0.0945 -0.0659  0.1786
15887W        W35421   7.139   2.240   1.003  0.0808 -0.1536 -0.1548
15888W        W35422   3.228   7.030   4.451  0.0883 -0.1604 -0.1249
15889W        W35423   2.689  10.804   2.219  0.1028  0.2023 -0.0064
15890W        W35424   2.949   3.423   1.840 -0.2842 -0.3582 -0.0189
15891W        W35425  17.195   1.266   2.782  0.0402 -0.1143 -0.1241
15892W        W35426   7.207   1.348  13.768 -0.0066  0.1667  0.3012
15893W        W35427   9.514   0.550  13.956 -0.2425  0.0433  0.0261
15894W        W35428  13.093   6.871  12.254 -0.1359  0.1420 -0.0108
15895W        W35429  15.172   8.674   1.401 -0.2687 -0.0634 -0.1556
15896W        W35430   6.019  18.078  12.304 -0.2101  0.1061 -0.2647
15897W        W35431   0.123  11.699  15.767  0.1069 -0.3499 -0.3594
15898W        W35432   1.266   4.807  14.035 -0.0401 -0.1567 -0.0486
15899W        W35433  13.774  15.850  15.532  0.1360  0.2953  0.0400
15900W        W35434   9.604   9.951   1.004 -0.1575  0.0015 -0.3745
15901W        W35435  10.942  18.229  11.269  0.0193 -0.0155  0.1935
15902W        W35436  15.097   9.876  11.927  0.0687 -0.0169 -0.1173
15903W        W35437   2.244   7.823   4.264  0.1985 -0.2843  0.1500
15904W        W35438   2.139  16.255   3.681 -0.1140  0.3411 -0.2582
15905W        W35439  11.063  10.509  11.221  0.2508 -0.0018  0.1703
15906W        W35440   6.823  11.327  11.796 -0.0520  0.0600 -0.2174
15907W        W35441   4.539   9.849  13.258  0.0349 -0.2334  0.0347
15908W        W35442  14.651   6.323  14.923  0.1374  0.1449  0.0778
15909W        W35443  12.740   9.360  11.805  0.0179  0.0103  0.0704
15910W        W35444  10.992  12.728  15.041 -0.0175  0.1424  0.0280
15911W        W35445   5.319  12.767  12.605  0.4176  0.1297  0.1343
15912W        W35446   3.127  15.169   2.965  0.2224  0.1463 -0.1308
15913W        W35447   2.814   7.251   2.880 -0.3221 -0.0191  0.1150
15914W        W35448  12.906   1.883   1.827 -0.1370 -0.0572  0.2127
15915W        W35449   5.209  16.467   0.251 -0.1822 -0.0492 -0.2463
15916W        W35450  12.668   5.624  15.473 -0.1301 -0.0087 -0.0263
15917W        W35451   0.704   3.318  10.052 -0.0473  0.1339 -0.0813
15918W        W35452  16.528  16.683   4.411  0.3274  0.4263 -0.1195
15919W        W35453  11.463   8.272  11.882 -0.1330 -0.1835  0.0162
15920W        W35454  10.826  11.642   1.639  0.1991 -0.1113 -0.3843
15921W        W35455  12.070  10.129  12.078 -0.1175  0.2041 -0.0976
15922W        W35456  17.919   8.896   3.929  0.1838 -0.0524  0.2401
15923W        W35457  12.218  14.437   2.087  0.3926 -0.1681  0.3410
15924W        W35458   5.970  11.295   3.794  0.0693  0.2886 -0.2524
15925W        W35459   1.686   2.564  14.043 -0.0485  0.0688 -0.0589
15926W        W35460  11.905  17.560   3.833 -0.2201 -0.0250  0.1889
15927W        W35461   9.113   0.086   1.340 -0.3303  0.0272 -0.1870
15928W        W35462  14.463  16.965   4.673 -0.0090  0.0208 -0.1652
15929W        W35463   9.531  13.165   4.017 -0.2016 -0.0845  0.0063
15930W        W35464  14.330  10.647   3.669  0.0501 -0.2419  0.1072
15931W        W35465   1.073   0.340   0.842  0.1603 -0.0655 -0.0948
15932W        W35466  13.874   6.399  13.665  0.2527 -0.2070 -0.2699
15933W        W35467   8.664   3.040  13.699  0.4611 -0.1923  0.1773
15934W        W35468   0.567   7.630   3.723  0.0264 -0.2180  0.1448
15935W        W35469   1.941   8.606   1.763 -0.2349  0.2208  0.2362
15936W        W35470  16.534  16.815   3.850  0.2700  0.0437  0.0928
15937W        W35471   2.927  14.444   2.478 -0.0706 -0.0558  0.0034
15938W        W35472   1.751   7.181   2.334 -0.0460 -0.0259  0.3357
15939W        W35473   8.250   3.901   1.019  0.0299 -0.0807 -0.3672
15940W        W35474   7.286   1.533  12.794 -0.1875 -0.0376  0.1800
15941W        W35475  12.180  17.826   1.008 -0.2656 -0.1926  0.0265
15942W        W35476   1.657   1.568   3.159  0.1371 -0.0570 -0.3952
15943W        W35477   1.031   0.110   0.327  0.0284 -0.0386  0.0574
15944W        W35478   1.740  10.318  12.827  0.2908 -0.0407 -0.1639
15945W        W35479  14.029   5.098  13.060  0.1996  0.1143 -0.0637
15946W        W35480   1.855  17.372   3.713 -0.0461  0.1748 -0.2335
15947W        W35481   8.899   3.303   0.910  0.2685  0.2126  0.1386
15948W        W35482   7.950   2.144  13.117 -0.2419  0.1363 -0.2947
15949W        W35483   6.627  15.854   3.679 -0.0631  0.3191  0.1644
15950W        W35484   6.503  17.713  12.643 -0.1583 -0.1702 -0.0114
15951W        W35485   5.102   5.451   1.891  0.0365  0.1033 -0.1849
15952W        W35486  14.928   0.703  11.532  0.1080  0.1728  0.3720
15953W        W35487  18.032   4.761  14.557  0.3582 -0.2348  0.1714
15954W        W35488  17.916   4.005  14.540  0.1822 -0.1444 -0.2388
15955W        W35489  16.963  16.504  13.382  0.2822 -0.1103 -0.0488
15956W        W35490  16.775  17.287  12.744 -0.1042 -0.1336  0.2266
15957W        W35491  10.959  17.885  13.637 -0.0669  0.1942  0.0060
15958W        W35492  17.852   7.820  12.645  0.2270  0.1442  0.2512
15959W        W35493   6.655   9.105  11.933 -0.0472  0.0688 -0.2339
15960W        W35494   3.584  11.110  13.444  0.0714 -0.1973 -0.0825
15961W        W35495  11.047  10.105  14.018  0.0831 -0.0023 -0.1484
15962W        W35496   6.771   0.754  13.566  0.3596 -0.0892  0.0839
15963W        W35497  12.106  12.513   4.573 -0.2443  0.0093 -0.1086
15964W        W35498  16.104   2.742   0.403 -0.2964  0.0122  0.1485
15965W        W35499   7.948  15.362   4.583  0.1333 -0.1986 -0.0235
15966W        W35500  14.718   9.286   3.378 -0.1605 -0.1864  0.0364
15967W        W35501  10.748   9.070   2.773  0.1578 -0.2009  0.1843
15968W        W35502  16.715  16.878  15.148 -0.0728 -0.0874  0.0335
15969W        W35503   6.436   3.412   4.003  0.2639 -0.0185 -0.3912
15970W        W35504   0.677  10.574  15.256  0.0286 -0.0976  0.0928
15971W        W35505   1.777   9.163  13.849  0.1589 -0.1711  0.0643
15972W        W35506  12.724   4.212   3.055 -0.0454 -0.1599  0.2184
15973W        W35507   0.695   5.970  13.934 -0.0824  0.0171 -0.0869
15974W        W35508  16.014  16.364  13.600 -0.1230 -0.2973 -0.2116
15975W        W35509  11.768  15.072   3.436  0.1621 -0.1978  0.1064
15976W        W35510  17.472   4.530  12.858 -0.1159  0.2129 -0.2928
15977W        W35511   1.014  14.425  12.972 -0.0480  0.1293 -0.0968
15978W        W35512   8.305   0.409   2.724 -0.0889  0.1131  0.0333
15979W        W35513  12.218   1.769  13.795  0.3372 -0.1004  0.1014
15980W        W35514  17.703   0.247  12.668  0.0680  0.0370 -0.1616
15981W        W35515   2.965   2.864   3.890  0.1676 -0.3051 -0.1895
15982W        W35516   0.339   1.935   1.946  0.1329 -0.2010  0.0343
15983W        W35517  10.457  13.785   3.448  0.1075  0.3605 -0.0021
15984W        W35518   7.876   7.907   1.343  0.2280  0.0403 -0.1155
15985W        W35519  16.678   4.427   3.756 -0.2851 -0.1199 -0.1253
15986W        W35520  15.533   8.818   3.937 -0.0847  0.2839  0.0755
15987W        W35521  11.710  16.872  12.535 -0.0870  0.0960 -0.1487
15988W        W35522   8.180   5.274  11.829 -0.1665  0.1685 -0.1032
15989W        W35523  14.129   4.578   3.038  0.2398 -0.2101 -0.4016
15990W        W35524   7.663  10.001  14.459  0.0987  0.0140 -0.2427
15991W        W35525  16.855  16.901  11.420  0.0254 -0.2544  0.0630
15992W        W35526   6.812  12.647  11.659  0.1148  0.1397  0.1363
15993W        W35527   2.369  15.004   0.260 -0.0364  0.1292  0.2743
15994W        W35528  14.278  18.073  14.534 -0.2401 -0.1951  0.1835
15995W        W35529  11.007  13.512  12.821 -0.1758  0.2384 -0.0570
15996W        W35530   1.101   0.649   3.357 -0.0083 -0.2394  0.1669
15997W        W35531  15.481   5.307  15.697  0.2655 -0.1908  0.0352
15998W        W35532   6.680  15.035  13.600 -0.0159  0.0228 -0.1807
15999W        W35533   7.933   8.584   0.664  0.0095 -0.1248 -0.2426
16000W        W35534  16.084  13.940   3.330 -0.1477 -0.1837  0.2845
16001W        W35535   0.716   7.341  14.298  0.3465  0.1919  0.2309
16002W        W35536  17.422  14.084   2.913 -0.0645 -0.0893 -0.3184
16003W        W35537   9.839  11.704   4.406 -0.3617 -0.0842 -0.0464
16004W        W35538   8.008  17.412  15.247 -0.0013 -0.1051 -0.0940
16005W        W35539  14.296  11.102  12.304 -0.0508 -0.2068  0.1245
16006W        W35540   2.345  10.256   0.019 -0.1425 -0.0178  0.1800
16007W        W35541   1.513   2.321   1.694 -0.0652 -0.2950 -0.3294
16008W        W35542   2.138  15.325   3.789 -0.0472 -0.2391  0.3045
16009W        W35543  11.507   2.646   0.033  0.1474  0.4855 -0.2167
16010W        W35544  12.964   4.604  10.501  0.3186  0.0961  0.1779
16011W        W35545   2.113  11.654   0.935 -0.2350  0.1037  0.1230
16012W        W35546   2.371   2.563   2.121  0.4065 -0.0983  0.1674
16013W        W35547   5.020  12.347   4.433  0.2494 -0.2716  0.1123
16014W        W35548   4.416  11.247   4.099  0.0093  0.1867  0.1938
16015W        W35549  15.292  14.813  14.786  0.1226 -0.1261 -0.1347
16016W        W35550  13.491   3.720   4.366 -0.1221 -0.1235  0.3134
16017W        W35551   7.644   6.882  13.873 -0.0831  0.2011 -0.0024
16018W        W35552   8.419   7.838   0.054 -0.1166 -0.2523 -0.2945
16019W        W35553   7.724   8.432   1.246  0.0597  0.0871 -0.0471
16020W        W35554   2.718   9.125   1.149 -0.6340 -0.1352  0.2427
16021W        W35555  15.750   7.911   1.439 -0.1076 -0.0663  0.3191
16022W        W35556   4.684   8.192  12.597 -0.3418  0.0066 -0.1661
16023W        W35557   6.483  11.872   0.788  0.1540  0.1845  0.2657
16024W        W35558  12.526   1.385  15.748 -0.1168 -0.1636 -0.0002
16025W        W35559   7.446  12.623   0.515 -0.1575  0.1040 -0.4048
16026W        W35560  13.150   9.108   3.866  0.2411 -0.1792  0.0243
16027W        W35561   6.199  16.403   3.785 -0.2066  0.2022 -0.1693
16028W        W35562   3.916   4.095  11.281  0.2290 -0.1396 -0.1086
16029W        W35563  15.421   8.234   3.764  0.1390 -0.0368  0.2254
16030W        W35564  13.117  14.185   0.104 -0.1767 -0.2742 -0.1425
16031W        W35565  12.673   9.464  13.652 -0.0475 -0.2488 -0.0640
16032W        W35566   7.284  12.432  14.266  0.1187 -0.1424  0.0658
16033W        W35567   7.382   9.078  12.831 -0.1812  0.2276 -0.2142
16034W        W35568   5.783  15.052   2.550  0.3030  0.1359  0.0961
16035W        W35569   0.506   0.924  15.505 -0.1842  0.0624  0.2172
16036W        W35570  17.693   8.164   2.255  0.0384 -0.1897  0.0750
16037W        W35571  14.566  14.600  12.195  0.2650  0.1200  0.3277
16038W        W35572  10.117   9.452   4.268  0.2783 -0.0248 -0.2448
16039W        W35573  14.735   9.941  11.197 -0.0669  0.0923  0.0175
16040W        W35574   7.901   8.965   3.636 -0.0947 -0.4815 -0.0995
16041W        W35575   9.790   1.488   1.223  0.0603  0.0012 -0.3042
16042W        W35576   2.537   8.737   2.951 -0.2789 -0.2658 -0.2004
16043W        W35577   5.163  17.761  12.172 -0.0030 -0.4993 -0.0518
16044W        W35578  12.265  17.266  14.070 -0.1738  0.0837  0.0365
16045W        W35579  13.013  14.937  13.118  0.0227  0.1042 -0.1611
16046W        W35580   6.256  17.240   3.396  0.1309  0.1277 -0.1350
16047W        W35581  15.259   9.553  13.052  0.2985  0.1446 -0.0406
16048W        W35582  10.855   9.897   2.495  0.1102 -0.2304 -0.1988
16049W        W35583   1.217  18.283  14.192  0.4102 -0.1205 -0.2004
16050W        W35584  11.605  10.281  13.577 -0.0403 -0.2232  0.1061
16051W        W35585  16.916   2.737   3.774 -0.4686  0.0779 -0.1248
16052W        W35586   6.173   5.746  12.745  0.2116  0.0169  0.2088
16053W        W35587  18.257  10.196  12.072  0.2486  0.2218  0.0478
16054W        W35588  15.079   4.395   0.251  0.0461 -0.0382  0.1327
16055W        W35589   8.305   2.713   1.552 -0.2777  0.1315  0.1622
16056W        W35590  12.491  14.314   1.550  0.1541 -0.0180  0.1318
16057W        W35591   1.332   4.004  14.579 -0.0323  0.1051  0.0279
16058W        W35592  15.417   3.530   0.030  0.0651  0.0729 -0.1202
16059W        W35593  14.879  11.036  11.118 -0.0310 -0.0448  0.0029
16060W        W35594   2.908  11.310   2.040  0.0165 -0.2362  0.1829
16061W        W35595  14.622  12.821  11.103 -0.1998 -0.2148 -0.0627
16062W        W35596   7.621   5.372   0.346  0.2512  0.0603  0.0358
16063W        W35597  11.237  13.874   5.385  0.1630  0.2973 -0.1991
16064W        W35598   0.228   6.314  15.235  0.1277  0.1027 -0.0583
16065W        W35599   5.831   6.304   3.126 -0.0250  0.1323  0.0040
16066W        W35600   0.919  11.641   1.696 -0.1979  0.0231 -0.0897
16067W        W35601  13.865  15.347  15.319  0.0186 -0.2067  0.2159
16068W        W35602   8.838   6.354  12.624 -0.1184  0.1191  0.1198
16069W        W35603  15.542  14.418   0.833 -0.2441 -0.0608  0.1268
16070W        W35604   8.932   8.295   0.017  0.2739 -0.0277  0.1284
16071W        W35605   3.363  15.036  15.268 -0.1716  0.0237  0.3455
16072W        W35606  10.333  17.007   4.866  0.0421  0.1146 -0.2251
16073W        W35607  12.533   8.500  11.776 -0.0023 -0.0371 -0.1677
16074W        W35608   3.993   5.962  15.754  0.0944 -0.1466 -0.0046
16075W        W35609  17.989  12.541   1.434  0.1873 -0.2803 -0.0690
16076W        W35610   1.522  10.701  14.338  0.0154 -0.3902 -0.2537
16077W        W35611   7.883  12.033   0.602 -0.3266 -0.0727 -0.0728
16078W        W35612  15.513   1.026  15.393 -0.2417 -0.1251 -0.0938
16079W        W35613   9.625   5.214   4.686  0.3169 -0.0769  0.1100
16080W        W35614   5.652  17.571   2.354 -0.1621  0.3721 -0.0274
16081W        W35615   7.072   9.408  13.034  0.0568 -0.0894  0.2027
16082W        W35616  10.307  15.724   3.534  0.0096  0.0709  0.0609
16083W        W35617   1.675  11.973   0.187 -0.1995 -0.2290 -0.0584
16084W        W35618   6.775  12.492  14.845 -0.0297  0.0428  0.0558
16085W        W35619   7.464   8.122   0.393 -0.1959 -0.4614 -0.3039
16086W        W35620   6.023  15.288   1.273 -0.2264  0.0111  0.0817
16087W        W35621  13.243  13.795  13.185  0.1307 -0.0577  0.2790
16088W        W35622  14.414   1.623  13.652  0.1434  0.0360  0.0374
16089W        W35623  16.253   2.103  11.291 -0.2091 -0.3364  0.3281
16090W        W35624  16.745   7.166  15.359  0.0777 -0.3173  0.4499
16091W        W35625  17.599   0.312  14.696  0.1408 -0.0543  0.1623
16092W        W35626   3.804  16.104  11.739 -0.2031 -0.0081 -0.2332
16093W        W35627   3.362   1.029  14.350 -0.2271  0.0495  0.2311
16094W        W35628   9.428   9.963  12.453 -0.0014 -0.1790  0.0326
16095W        W35629  14.965   3.582  15.575 -0.2469 -0.0666  0.1655
16096W        W35630   5.075   8.809   2.351  0.0641  0.2498 -0.2527
16097W        W35631   2.746  13.096  13.192  0.0885 -0.0349  0.0152
16098W        W35632   5.234   6.362  14.552  0.0987 -0.1517  0.2206
16099W        W35633  15.382  13.559   0.945  0.0783  0.0028 -0.2851
16100W        W35634   5.023  17.237  15.729 -0.1044  0.1056 -0.1376
16101W        W35635  12.899   4.096  10.841 -0.1611 -0.2432  0.0522
16102W        W35636  16.577   3.866  15.280 -0.0237  0.0093 -0.2019
16103W        W35637   6.799   7.755  12.659  0.2729 -0.2279  0.0409
16104W        W35638  15.178   5.774  12.154  0.0683 -0.0936  0.3632
16105W        W35639  10.161  17.040   4.028  0.1528 -0.0024 -0.0592
16106W        W35640   8.842  11.883   2.166  0.2629 -0.1750  0.0942
16107W        W35641   0.003   9.581  14.610  0.1939  0.2016  0.1087
16108W        W35642   2.827  17.763   2.801 -0.0538 -0.0614  0.2729
16109W        W35643  12.666   5.955  13.128  0.0776  0.1920 -0.2496
16110W        W35644  17.637   4.420   1.188 -0.0085  0.1800  0.1289
16111W        W35645   6.561   7.348   2.360  0.2584  0.1447 -0.1767
16112W        W35646   8.573   4.779  15.466  0.0771 -0.1987 -0.1572
16113W        W35647   8.758   1.877   0.483  0.0402  0.0528  0.0171
16114W        W35648  14.398   8.150   0.345  0.0192  0.0173 -0.0225
16115W        W35649  14.721   8.960  13.296 -0.0316 -0.2636  0.0731
16116W        W35650  15.864  17.045   3.113  0.1971  0.0611  0.1518
16117W        W35651   4.927   5.208   2.879 -0.2820 -0.1192 -0.0155
16118W        W35652  10.626  13.930  13.586  0.1381 -0.2463  0.0471
16119W        W35653  14.076  18.042  15.385  0.1777  0.2068  0.2424
16120W        W35654   4.489   7.011   5.087  0.1479 -0.2712 -0.0733
16121W        W35655  14.529   6.504  13.105 -0.2645  0.1751 -0.1275
16122W        W35656  11.105  14.467   3.839 -0.2521  0.0774  0.1775
16123W        W35657   3.537   1.871  15.536  0.0467 -0.2488  0.1178
16124W        W35658  10.646  12.640   0.656  0.3077 -0.1551  0.0214
16125W        W35659  16.772   7.660   3.578 -0.0231  0.0637  0.1872
16126W        W35660  17.950  16.221  13.556  0.2037  0.4108 -0.1260
16127W        W35661  12.392  13.504  11.632  0.0506  0.1094 -0.1572
16128W        W35662   6.924  12.412   1.466 -0.4082  0.0392  0.1834
16129W        W35663   3.418   4.968  14.969  0.1734  0.0521  0.1456
16130W        W35664  11.625  17.036  15.354  0.0379  0.1668  0.0883
16131W        W35665  11.337   5.615   3.824  0.1020  0.3418 -0.0737
16132W        W35666   9.091  12.097   0.600 -0.2836 -0.1365 -0.3325
16133W        W35667  18.146  15.155  12.630  0.1099 -0.0072  0.0708
16134W        W35668  16.072  16.289  12.552  0.3379 -0.4720  0.1634
16135W        W35669   4.849  13.572   2.146  0.1360 -0.0623  0.4429
16136W        W35670   8.134   6.633   2.592 -0.2762 -0.2092 -0.3244
16137W        W35671  17.890  17.149   3.940  0.0792 -0.1399  0.2866
16138W        W35672  11.440   8.003   0.297  0.2343  0.0788  0.1394
16139W        W35673   6.622  18.144   0.456  0.1739 -0.1384 -0.1033
16140W        W35674   4.300  11.768  14.837  0.1545  0.0721  0.2161
16141W        W35675   9.555   7.921  15.441 -0.1054 -0.3932  0.0947
16142W        W35676  17.079  11.395   1.209  0.3502 -0.0285 -0.0262
16143W        W35677  14.681  17.673   4.482 -0.3440  0.0131  0.0820
16144W        W35678   0.031   9.407   1.403 -0.0043 -0.1375  0.0255
16145W        W35679   3.558   4.343   1.974  0.0114 -0.0969  0.1468
16146W        W35680   5.589   6.739  15.412  0.0779 -0.0468 -0.3007
16147W        W35681   8.635  17.385   4.879 -0.1226 -0.0191 -0.0340
16148W        W35682  14.791   9.272  12.328 -0.1298 -0.0992 -0.2206
16149W        W35683   5.710  10.673  10.307 -0.1116 -0.0880 -0.1344
16150W        W35684  17.984   0.049  14.395 -0.1052 -0.2338 -0.0418
16151W        W35685  11.246   2.238   5.616 -0.4172 -0.1897  0.1558
16152W        W35686  15.217   2.476   0.696  0.0714 -0.4328  0.1262
16153W        W35687  11.548   9.797  12.812  0.2295  0.0837  0.0478
16154W        W35688   9.609   9.261   4.355 -0.0650  0.0064 -0.2664
16155W        W35689   9.649   3.919   0.610  0.0966 -0.2683 -0.0290
16156W        W35690   7.066  17.818  11.170  0.4241 -0.1162 -0.0924
16157W        W35691   1.279  16.411  11.770 -0.0841 -0.2248  0.1922
16158W        W35692   8.220  17.447  13.980 -0.1678  0.1901  0.3812
16159W        W35693   5.108  15.230  15.726 -0.0674  0.0275  0.4241
16160W        W35694  10.561   9.274   2.282  0.0438 -0.4024  0.1139
16161W        W35695  11.918   5.056   2.743 -0.1231  0.0633 -0.1227
16162W        W35696   1.674   4.492  12.987 -0.0660  0.1366 -0.0226
16163W        W35697  13.698   2.490   1.557  0.0324 -0.4267  0.2955
16164W        W35698   7.305   5.002   3.772  0.0837  0.2564 -0.0166
16165W        W35699  13.778   7.600  15.763  0.1600  0.1149  0.1427
16166W        W35700  13.943   8.543  12.631 -0.1154  0.0207 -0.2791
16167W        W35701   9.985   7.990   4.637 -0.1270 -0.2133  0.1375
16168W        W35702  17.396  17.241   3.589  0.1215  0.3301  0.4998
16169W        W35703  11.375   9.404  15.221 -0.0795 -0.2413 -0.0304
16170W        W35704  14.250  13.705  12.634 -0.1145  0.1120  0.0693
16171W        W35705   6.031  14.411   1.770 -0.1126  0.0734 -0.0477
16172W        W35706   1.544  15.543   4.289  0.0891 -0.0810 -0.2268
16173W        W35707  10.009  12.795  12.163  0.0855  0.1480 -0.4670
16174W        W35708  10.455  10.268  10.612 -0.1378 -0.1451  0.2174
16175W        W35709   4.586  14.648  15.420  0.3016  0.0619 -0.3427
16176W        W35710   9.371   2.600  12.374 -0.0972  0.2495  0.1500
16177W        W35711  11.235  15.013  14.736 -0.0238 -0.3567  0.0776
16178W        W35712  18.177   2.905   2.867  0.4342 -0.2265  0.2776
16179W        W35713   7.229   8.080  12.631  0.0234 -0.0587 -0.0986
16180W        W35714  17.213   8.752   0.922 -0.0240  0.2456  0.0533
16181W        W35715  16.391  13.894  14.694  0.1127 -0.3550 -0.2781
16182W        W35716  11.912   9.055  11.824  0.0329  0.2585  0.0034
16183W        W35717   2.248  11.970   2.790 -0.0993 -0.0480 -0.2423
16184W        W35718   6.539  14.920  14.398  0.0300 -0.3097 -0.1218
16185W        W35719   3.584   1.579  13.973 -0.1141 -0.1061  0.1603
16186W        W35720  11.268   3.480   0.558 -0.1791 -0.1523  0.0584
16187W        W35721   1.896   9.532  15.574  0.1037 -0.0074 -0.0482
16188W        W35722   6.767   2.747   3.369  0.3662  0.1306 -0.1294
16189W        W35723   2.803  12.342   0.979  0.0237  0.0251  0.0726
16190W        W35724  14.237  12.379  11.431  0.1800 -0.1376 -0.1217
16191W        W35725   3.239  14.209   0.049 -0.0920 -0.3136 -0.0323
16192W        W35726   4.282   0.142  13.525  0.1008 -0.1919 -0.0269
16193W        W35727   0.668  12.935  15.266 -0.1753 -0.1715 -0.1850
16194W        W35728  15.013  15.641  13.940  0.1507 -0.1208  0.2110
16195W        W35729   6.402   1.635  15.188  0.0893  0.1609  0.1254
16196W        W35730  12.687  12.490  13.634  0.0018  0.0862 -0.4095
16197W        W35731  17.613   3.101   2.762 -0.2296 -0.0117 -0.2042
16198W        W35732   9.536   0.211  12.904  0.1582  0.0737  0.0481
16199W        W35733   9.495  15.939  13.304 -0.3426 -0.2310 -0.1046
16200W        W35734  12.852  13.026   3.711  0.1392  0.0115  0.2537
16201W        W35735   3.194   0.633   4.629 -0.0835 -0.0250  0.1131
16202W        W35736  18.224   1.783   1.974 -0.1135  0.1348  0.1644
16203W        W35737  17.903  10.698  13.730 -0.0635 -0.1753 -0.0534
16204W        W35738   5.867  13.069  13.105  0.1480 -0.1942 -0.1589
16205W        W35739  18.350  17.886   0.048  0.1232 -0.0061 -0.2770
16206W        W35740   1.099  11.234   4.370 -0.0721 -0.2618  0.1327
16207W        W35741   4.811   9.162  10.323 -0.0244  0.1103 -0.3080
16208W        W35742   2.966  14.834   5.203  0.0884  0.1068 -0.1106
16209W        W35743   3.214  12.089   2.634 -0.0036  0.2402  0.0812
16210W        W35744  17.040   5.124  12.407 -0.0623 -0.0034 -0.0909
16211W        W35745   6.410  10.620   4.093  0.0783 -0.1651  0.1344
16212W        W35746   3.961   2.307   2.658  0.2005  0.0828  0.3810
16213W        W35747   2.503  15.754  14.128  0.0364  0.3037  0.1803
16214W        W35748  17.728  14.716   0.158 -0.3721 -0.0674  0.1982
16215W        W35749   4.882   6.140  15.414  0.3238  0.0349  0.0531
16216W        W35750   1.415   2.123  13.907  0.0775  0.3279 -0.1512
16217W        W35751  13.201  15.443   0.096  0.0779  0.1982 -0.0077
16218W        W35752   7.010   2.250  12.167  0.1195 -0.0192 -0.1533
16219W        W35753   8.643  15.157   2.197  0.0029  0.0142  0.1170
16220W        W35754   1.113  13.178  13.796 -0.1993  0.0470 -0.0320
16221W        W35755  17.177   4.281  14.119 -0.1031  0.0456  0.0610
16222W        W35756  15.382  12.381  12.968  0.0096  0.1165 -0.0850
16223W        W35757   6.317  15.139  13.970  0.1940 -0.1110 -0.2073
16224W        W35758  15.923   6.834  15.227  0.1711 -0.0128 -0.0217
16225W        W35759   1.356   1.675   4.028 -0.0108 -0.1425 -0.0803
16226W        W35760   4.313   2.880   0.631  0.2019  0.1682 -0.4623
16227W        W35761   0.504   8.187  12.145  0.0084 -0.3325 -0.1512
16228W        W35762   5.878  11.028  11.281  0.1568 -0.0871 -0.1142
16229W        W35763  14.226   6.095  12.208 -0.0606 -0.0569  0.0815
16230W        W35764   5.224  10.705  11.150  0.5337 -0.1798 -0.1103
16231W        W35765  14.539   1.946  12.896 -0.0515  0.1895  0.2114
16232W        W35766  17.729  17.622  14.842  0.2899 -0.0844 -0.0281
16233W        W35767  18.327  16.298   5.706  0.3391  0.2213 -0.2448
16234W        W35768   1.668   1.209   0.214  0.2036  0.0587 -0.0032
16235W        W35769   5.784  17.541  11.696 -0.1159  0.1143  0.1676
16236W        W35770  11.660  15.771   0.584 -0.2710 -0.0897  0.3891
16237W        W35771   4.944  17.868  11.305  0.1288  0.0697  0.0663
16238W        W35772   6.404  13.331  11.973  0.1248 -0.0771 -0.0135
16239W        W35773   5.981  16.649   0.918  0.2049  0.1079  0.0420
16240W        W35774   6.971  10.331  14.868  0.4926 -0.0260  0.0924
16241W        W35775   3.259   4.756   1.728 -0.1888 -0.2154 -0.0511
16242W        W35776  12.437  16.111  15.570  0.0898  0.1238  0.0874
16243W        W35777   0.839  14.191  14.689 -0.0243  0.0686  0.0417
16244W        W35778   0.898  13.187   2.495  0.0652 -0.0348 -0.1429
16245W        W35779  13.933   9.920   3.293 -0.2881 -0.1012  0.2450
16246W        W35780   1.369   0.038  12.061  0.0695  0.0421  0.1021
16247W        W35781   4.948  10.308  12.486  0.0895 -0.0402  0.0519
16248W        W35782   0.270   8.523   2.824  0.0423  0.3529 -0.1074
16249W        W35783   7.598  17.814   1.940 -0.4034  0.1185  0.0042
16250W        W35784   4.286   6.931  13.233  0.0430  0.0090 -0.2438
16251W        W35785  10.869  17.366   0.634  0.0089 -0.1907 -0.1449
16252W        W35786   4.466   5.069   3.197  0.0258  0.0454  0.1196
16253W        W35787   9.106   9.772  11.703  0.0888  0.0914 -0.1007
16254W        W35788  14.022   8.501   1.677  0.0953  0.0467  0.0495
16255W        W35789  12.451   9.748  11.875  0.1572 -0.0047 -0.0853
16256W        W35790   3.420   1.626   4.197 -0.0492  0.2412 -0.1149
16257W        W35791   1.221   2.394  14.303 -0.1991  0.0909  0.3268
16258W        W35792  16.744  13.091   1.871 -0.0828 -0.1100 -0.1641
16259W        W35793  10.860   2.334   3.812  0.1097  0.4741 -0.0525
16260W        W35794   1.528  16.615   2.703  0.3653 -0.2740  0.0698
16261W        W35795   1.248  14.665   2.651  0.1811  0.0892  0.2055
16262W        W35796   6.057  12.154   2.212  0.3851 -0.2576 -0.1176
16263W        W35797   9.306   4.710  13.713  0.0463 -0.2947 -0.0734
16264W        W35798  14.218   4.421   1.191  0.1344  0.2988  0.0219
16265W        W35799  10.758   9.615  12.115 -0.2059 -0.2020  0.2647
16266W        W35800  15.189  16.593  13.582  0.0633  0.1122 -0.2748
16267W        W35801   9.605   3.093  15.239  0.4227  0.1301  0.0032
16268W        W35802   9.451   1.528  13.247 -0.0750  0.2438  0.0507
16269W        W35803  11.416   7.501  14.092  0.2344 -0.1399 -0.1155
16270W        W35804   8.795  16.329   1.350 -0.2357  0.1062  0.1584
16271W        W35805   1.825   5.725  12.293  0.2162 -0.0533 -0.5246
16272W        W35806   7.604   5.572  13.513 -0.2294  0.0352  0.0680
16273W        W35807  11.161   6.570  12.463 -0.0852 -0.2520  0.0034
16274W        W35808  14.027   4.017   2.974  0.2814 -0.0185 -0.2881
16275W        W35809  11.064   8.706  12.769 -0.2076  0.0381  0.1773
16276W        W35810   1.815  13.550  11.836 -0.0926  0.1173 -0.0177
16277W        W35811   0.180   0.727  11.434 -0.0531 -0.0307  0.2285
16278W        W35812   5.921   1.805  13.547  0.3617  0.0921 -0.0284
16279W        W35813  10.713  11.447   2.235 -0.0184 -0.4490  0.2237
16280W        W35814   5.787  10.700  12.061 -0.0846 -0.2455  0.3823
16281W        W35815  18.192  17.396  14.891 -0.0249 -0.2407  0.0596
16282W        W35816  10.186   6.268   3.093  0.0866 -0.2237 -0.2517
16283W        W35817   0.125  13.302   1.100 -0.1048  0.1555  0.1242
16284W        W35818  15.717  15.259   0.744  0.1533  0.0286 -0.1121
16285W        W35819  15.893  16.340  12.039  0.1782 -0.0341 -0.1513
16286W        W35820   9.930  13.902   1.103  0.0648 -0.0397  0.0184
16287W        W35821   3.943  14.613   2.558  0.1948 -0.1227 -0.3192
16288W        W35822   2.955   1.717  13.772  0.0768  0.5098  0.1918
16289W        W35823  14.922  10.799  15.366  0.2784 -0.4332  0.1183
16290W        W35824  18.040   7.163   3.149  0.0694 -0.3918  0.0451
16291W        W35825  14.549  11.528   4.321 -0.0263  0.2596  0.4220
16292W        W35826   1.206   9.925   2.555  0.0718 -0.0103 -0.2534
16293W        W35827  13.124  14.154  15.411 -0.0381 -0.0460  0.1617
16294W        W35828  13.630   3.208   0.034 -0.0540  0.0777  0.0907
16295W        W35829  16.711   4.332  13.989  0.3447  0.1692 -0.0435
16296W        W35830   7.510  17.825  12.566 -0.0436 -0.2625  0.1859
16297W        W35831  17.247   5.553  13.665 -0.0798  0.2389  0.2212
16298W        W35832  11.500   9.021  11.022  0.0551  0.1459  0.2629
16299W        W35833  10.180  10.127   5.246 -0.1550 -0.3203 -0.0691
16300W        W35834   1.543   3.509   2.139 -0.3009 -0.0144  0.0117
16301W        W35835  12.637   4.722   4.362  0.1638  0.0764  0.3060
16302W        W35836   7.009   0.064  11.621 -0.1033  0.1675  0.0721
16303W        W35837  17.840  14.807  13.614 -0.1888 -0.2637 -0.1342
16304W        W35838  10.037  17.179   4.516 -0.1253 -0.1101 -0.0813
16305W        W35839   0.553  10.762  11.907 -0.2432 -0.3054 -0.3066
16306W        W35840   9.641   4.798   2.080 -0.2267  0.2034  0.0129
16307W        W35841  14.531  12.646   5.290 -0.2045 -0.0766 -0.3296
16308W        W35842   8.545  11.504  14.148  0.1654  0.0174  0.2238
16309W        W35843  12.351  14.777   1.627  0.1388 -0.1627  0.0317
16310W        W35844  10.466  13.281  14.550  0.5875 -0.1572 -0.0552
16311W        W35845  17.362   5.977   2.702  0.0957 -0.1876  0.2667
16312W        W35846   9.036  14.809  13.315 -0.1130  0.1721  0.3773
16313W        W35847  12.695  12.976  11.613  0.1371 -0.2170  0.0116
16314W        W35848   8.313  14.360  13.111  0.1641 -0.1511 -0.0219
16315W        W35849   9.505   0.665  12.670  0.1941  0.0284 -0.1910
16316W        W35850   8.546   8.062   4.002 -0.1496 -0.3382 -0.1072
16317W        W35851   6.291   1.546  11.187  0.0802  0.0839  0.0748
16318W        W35852   6.458   8.270   5.573 -0.0869 -0.0414  0.0113
16319W        W35853   0.076   0.453  13.546  0.1518 -0.1005  0.0253
16320W        W35854  11.856  10.720   3.422 -0.1212 -0.0455 -0.1638
16321W        W35855  15.718  16.937   2.553  0.1980  0.0366 -0.1185
16322W        W35856  16.596   5.933  12.573  0.0379  0.2037  0.0489
16323W        W35857   0.956   4.064  12.728 -0.0301 -0.0310 -0.0676
16324W        W35858  11.054  16.489  12.020  0.1153 -0.1407  0.2919
16325W        W35859  18.100  13.782   2.170 -0.0461  0.0391 -0.1754
16326W        W35860  15.348   6.383   1.848 -0.2298  0.0605 -0.1006
16327W        W35861  12.158  16.627   0.873 -0.1734 -0.1322 -0.0179
16328W        W35862  14.194   3.772  12.315 -0.0385 -0.1843 -0.1953
16329W        W35863   8.696   8.830  13.494  0.2629 -0.2123 -0.2472
16330W        W35864   0.303   2.335   0.069  0.3089 -0.1790 -0.2322
16331W        W35865  12.205   4.912  12.642  0.3819 -0.0290  0.2428
16332W        W35866  10.967   4.253  11.564 -0.1802 -0.2641  0.2618
16333W        W35867   3.378   5.740  14.887 -0.0375 -0.0678 -0.1097
16334W        W35868   3.121  14.352  15.076  0.3307 -0.0231  0.0300
16335W        W35869  17.266   3.538   2.252  0.0585 -0.3110 -0.1268
16336W        W35870  16.061  17.527  13.019  0.0342  0.0383 -0.3062
16337W        W35871   3.830  18.206   0.781 -0.0097 -0.4336 -0.0206
16338W        W35872  13.434   3.722  13.595  0.1980  0.0018 -0.0814
16339W        W35873   7.419   3.773   0.801  0.1700 -0.1544 -0.0338
16340W        W35874  10.674   3.761  15.314  0.0032 -0.1373 -0.0238
16341W        W35875  11.346  10.769   2.582  0.0088 -0.2672  0.0467
16342W        W35876   1.140   4.002   2.111  0.0756 -0.1501  0.0731
16343W        W35877  17.336   0.340  13.828 -0.2455  0.1254  0.1369
16344W        W35878  14.538   6.194  12.619 -0.1851  0.0411 -0.0352
16345W        W35879  16.325  17.333  13.942 -0.3749 -0.2665 -0.0382
16346W        W35880  17.712   3.373   2.106  0.2446 -0.3761  0.1251
16347W        W35881   8.902  18.096   0.186 -0.1200  0.1438 -0.1200
16348W        W35882   6.439  13.531   3.720 -0.1765  0.0062  0.0557
16349W        W35883   9.371   5.628  15.426  0.0909 -0.0197  0.1093
16350W        W35884  17.203   4.340  12.026  0.2030 -0.2963  0.1158
16351W        W35885   9.719   6.436  14.252 -0.0792  0.0784  0.1186
16352W        W35886   1.801  16.848   3.754  0.1043 -0.1432 -0.0266
16353W        W35887   4.651  14.460  13.766  0.0086  0.0036  0.1900
16354W        W35888   4.268  11.342  11.795 -0.2012 -0.0559 -0.0456
16355W        W35889   3.867   4.685   2.383  0.1721 -0.0043  0.0965
16356W        W35890   0.419  13.026  11.922 -0.1370  0.0332 -0.0760
16357W        W35891   2.586   8.016  15.644 -0.2922 -0.0151 -0.0944
16358W        W35892  14.027   1.024  13.164  0.0728 -0.1472 -0.3577
16359W        W35893   3.032   4.894   2.662  0.0382 -0.0515  0.0634
16360W        W35894   5.376  12.093   1.229  0.0838 -0.0532 -0.2916
16361W        W35895   8.832  13.707  12.174  0.0335 -0.2896  0.1569
16362W        W35896  10.905   0.746   2.731 -0.0225 -0.2252 -0.1200
16363W        W35897   1.336   1.138  14.962 -0.1670 -0.0299 -0.1056
16364W        W35898   6.866   4.389  14.632  0.0270  0.0234  0.0514
16365W        W35899  16.529  13.216   2.993 -0.0068  0.0075 -0.2799
16366W        W35900   6.547  13.857   1.027 -0.0256 -0.2302 -0.1481
16367W        W35901  15.175  15.402  14.409 -0.0000  0.3096 -0.1262
16368W        W35902   5.366  16.449   2.071  0.1536  0.2190  0.1055
16369W        W35903  14.119  10.115   1.455 -0.5102 -0.2145 -0.0362
16370W        W35904  10.794  13.183  11.445  0.4777  0.0120  0.0340
16371W        W35905  13.750   8.824   1.439  0.0622 -0.1064  0.0027
16372W        W35906   1.946   2.235  12.795  0.0240 -0.0525 -0.3085
16373W        W35907   0.205  13.458  11.702 -0.1223 -0.1725 -0.2103
16374W        W35908   7.308   8.041  14.501 -0.2783  0.1242  0.1225
16375W        W35909   8.475   5.179   0.044  0.0941  0.0014 -0.2553
16376W        W35910  17.851   9.752   3.789  0.1980 -0.2324 -0.1213
16377W        W35911   8.597  11.743   1.339 -0.0900  0.0691 -0.0912
16378W        W35912   6.312   2.500   0.963  0.2700 -0.3051 -0.2264
16379W        W35913   3.023   5.365   2.485  0.2213  0.1626  0.2182
16380W        W35914   3.178  16.850   2.642 -0.3425 -0.1217 -0.1577
16381W        W35915  17.688  13.515   3.468  0.1358 -0.3268 -0.0658
16382W        W35916  11.525  18.254  12.446  0.0953  0.0271 -0.1743
16383W        W35917  17.186   9.409  13.779  0.4040 -0.5170 -0.0115
16384W        W35918  14.259  15.065  14.324  0.3166 -0.0884  0.0319
16385W        W35919   4.842   4.968   0.522 -0.0607 -0.1273  0.2931
16386W        W35920  11.896   8.665   4.003  0.3299 -0.1525 -0.2219
16387W        W35921   2.971  12.532   1.871 -0.0848  0.1258  0.0851
16388W        W35922   2.033  13.310   0.248  0.1302  0.1243  0.2131
16389W        W35923  14.067  15.236   1.850 -0.1372 -0.2280  0.0714
16390W        W35924  13.508  14.134   0.455  0.3336  0.1154 -0.0014
16391W        W35925   5.590  16.150   0.634 -0.0880  0.0674  0.1521
16392W        W35926   9.613   2.511  14.566 -0.2166  0.0729 -0.3358
16393W        W35927  16.504   7.997   3.308 -0.0974  0.2288  0.1197
16394W        W35928   4.895   2.774   4.721  0.2527  0.2160  0.0722
16395W        W35929  11.810   1.222   4.613 -0.1393 -0.2117 -0.0615
16396W        W35930   5.012   7.165  12.525  0.5391  0.2839 -0.1564
16397W        W35931  13.938   7.234  12.132 -0.0092  0.2408 -0.0033
16398W        W35932  14.006   6.037  12.659 -0.0003  0.4195 -0.2322
16399W        W35933   5.094   2.412   4.428 -0.0142 -0.3834  0.2017
16400W        W35934  15.371  15.682   1.938  0.1195 -0.0152 -0.2364
16401W        W35935   5.621   5.667  15.073  0.1439  0.4499 -0.1282
16402W        W35936  10.589  10.503   0.359 -0.1493  0.2417 -0.2013
16403W        W35937   3.262   5.862  13.157 -0.0299  0.3738 -0.2848
16404W        W35938   5.720   3.747   2.881  0.0601  0.1122  0.2040
16405W        W35939  12.735  17.175  13.840 -0.1112  0.3102  0.0909
16406W        W35940   2.047  15.158  13.613  0.1565  0.4636  0.0058
16407W        W35941  14.614   7.313   4.443 -0.1887  0.1142  0.1684
16408W        W35942   7.527   8.735  11.435 -0.0835  0.3131 -0.3604
16409W        W35943   0.265  16.333  10.474 -0.3438 -0.1225  0.0337
16410W        W35944  10.640   7.556   1.397  0.0123  0.0479  0.1596
16411W        W35945   6.081  16.917   3.855 -0.1501  0.1320  0.1320
16412W        W35946  11.612   2.352   2.662  0.1321  0.1119 -0.1443
16413W        W35947  13.232  11.830   0.611  0.1194 -0.0379 -0.0917
16414W        W35948  10.280  16.154   3.158 -0.2919  0.2561  0.3814
16415W        W35949  17.077   3.014  10.182 -0.1098 -0.4802  0.3129
16416W        W35950  17.603  15.111   2.748 -0.1323  0.2341  0.0931
16417W        W35951   1.673   6.240  12.594 -0.0259  0.2487 -0.1669
16418W        W35952  16.617  14.025  11.404 -0.1807 -0.0418 -0.0883
16419W        W35953  14.078   5.303  12.267  0.0992  0.0713  0.1669
16420W        W35954  15.967   8.571   1.805 -0.0609 -0.0177 -0.1178
16421W        W35955   8.929  13.759   0.373 -0.1308 -0.2932  0.1094
16422W        W35956  13.861  13.444   3.329  0.2780 -0.0480 -0.3130
16423W        W35957   2.485   6.973   5.400  0.1947  0.2129  0.2086
16424W        W35958   1.634   5.204   3.601 -0.0391 -0.1969 -0.2359
16425W        W35959   6.188  12.226   0.990  0.1621 -0.1012  0.1065
16426W        W35960  13.590  17.606  15.129 -0.0049  0.1674  0.1587
16427W        W35961  15.668  10.129  14.810 -0.1106  0.1073  0.2141
16428W        W35962   1.736   6.634   3.700  0.2315 -0.1118 -0.1089
16429W        W35963   1.282  13.847  13.838  0.0190  0.0351  0.3638
16430W        W35964   7.979   3.424   1.921  0.0303  0.0085  0.1740
16431W        W35965  18.218  14.914   0.244 -0.0123 -0.2229 -0.1470
16432W        W35966   9.449   9.087  11.229 -0.2583 -0.1394  0.1495
16433W        W35967  10.115   0.070   1.309  0.2882  0.3387  0.1940
16434W        W35968  16.018   1.772   2.198  0.0933  0.2404  0.1364
16435W        W35969  16.511  11.767  11.768 -0.1871 -0.1230  0.0486
16436W        W35970   1.260   6.018   0.903 -0.0062 -0.2493 -0.1260
16437W        W35971  14.462  11.943  15.066 -0.3483 -0.0027  0.1483
16438W        W35972  10.142  14.041  13.540 -0.0261 -0.0546 -0.1611
16439W        W35973   4.960  17.429   1.084  0.2496  0.1228 -0.0841
16440W        W35974   4.334  12.436   0.357 -0.4075 -0.2252 -0.0140
16441W        W35975  17.044  13.727  13.337 -0.2458  0.1828 -0.0833
16442W        W35976  14.328  13.991  14.127 -0.1937 -0.0932  0.0935
16443W        W35977   4.862   9.728   3.588  0.1524 -0.0502 -0.1463
16444W        W35978   2.774  11.188   2.530 -0.0731  0.0412  0.2067
16445W        W35979   2.245   4.509  14.691  0.0693  0.1143 -0.0248
16446W        W35980   4.088   7.190   2.774 -0.1676 -0.3368 -0.0780
16447W        W35981  14.900   1.942   2.851  0.3746 -0.3669 -0.2351
16448W        W35982   6.649   8.217   0.779  0.0660 -0.1343  0.1253
16449W        W35983  10.452  16.015  10.599  0.2766 -0.0196 -0.0594
16450W        W35984  18.007  18.292   0.608  0.0558  0.1532  0.1095
16451W        W35985   4.463  12.735   3.085 -0.1627  0.1562 -0.1955
16452W        W35986   8.095  15.349  13.803  0.0972 -0.1533  0.4031
16453W        W35987  15.479   4.086   0.871  0.1224  0.0710 -0.1270
16454W        W35988  13.027   7.901  11.884  0.0182  0.1272 -0.5179
16455W        W35989  13.959  11.203   3.970 -0.0728 -0.0810  0.1455
16456W        W35990  16.368  10.310  11.288  0.2224  0.0819  0.2524
16457W        W35991   5.425   0.123   0.680 -0.0533 -0.3868 -0.1197
16458W        W35992  14.366  11.546  14.712 -0.0228 -0.0424 -0.0431
16459W        W35993   1.018   6.772  14.662  0.3918 -0.0462  0.0067
16460W        W35994  13.362  15.172  13.431  0.0695 -0.0508  0.0790
16461W        W35995  18.371  12.858   4.484 -0.0699 -0.1100 -0.0125
16462W        W35996  11.007   9.485   2.270 -0.3914 -0.1905  0.2188
16463W        W35997  17.502  11.654  14.876  0.0371 -0.1222  0.1022
16464W        W35998  11.496   3.032  12.253 -0.0431 -0.0512  0.2436
16465W        W35999  11.052   7.517   4.435  0.1277  0.1384 -0.2846
16466W        W36000   5.430  11.511   2.916 -0.2644  0.2060 -0.2954
16467W        W36001  10.425   8.812   0.485 -0.2106  0.1042 -0.3497
16468W        W36002   2.759   0.278  11.990 -0.0046 -0.2743  0.1919
16469W        W36003  12.921  13.435   0.737 -0.0989  0.2291 -0.0106
16470W        W36004   3.983  12.597   3.201 -0.0869 -0.0013 -0.3319
16471W        W36005  16.347   4.651   0.991 -0.0168 -0.0752  0.3463
16472W        W36006   3.152  11.730  11.292  0.0864 -0.0694 -0.1402
16473W        W36007  13.088   1.232  11.873 -0.2743 -0.0134 -0.1425
16474W        W36008  14.319  16.567   1.518 -0.1982 -0.3515 -0.0269
16475W        W36009  13.360   2.960   3.109  0.0161 -0.0062 -0.0716
16476W        W36010  17.149   1.370  14.509  0.1139  0.0617 -0.1129
16477W        W36011   4.988   9.380  15.445 -0.3707  0.0426  0.1061
16478W        W36012   5.105  17.998   3.892 -0.1630  0.0557  0.1318
16479W        W36013  13.280   6.416   2.783  0.0667 -0.1288 -0.1686
16480W        W36014   9.490  12.381   1.626  0.0332 -0.2050  0.0179
16481W        W36015  14.085   1.510  15.624 -0.2217  0.0720  0.0940
16482W        W36016  11.806   4.062  13.386  0.1415 -0.0266  0.0137
16483W        W36017  15.028   1.213  13.018 -0.0782  0.2421 -0.1003
16484W        W36018   5.618  11.159   2.051 -0.2214 -0.1912 -0.0014
16485W        W36019   0.474  10.075   3.877  0.0596  0.0636 -0.2152
16486W        W36020  16.014  12.421   3.337  0.3272  0.1969 -0.1573
16487W        W36021   6.701  10.716   2.060  0.0080 -0.2231  0.2264
16488W        W36022  13.861   6.945   3.013  0.0440  0.2372  0.0870
16489W        W36023   7.229  14.433  11.833 -0.1952 -0.1622 -0.2212
16490W        W36024  10.920  13.624  12.330  0.0621 -0.1644  0.1769
16491W        W36025  11.179   6.016  12.688  0.1223  0.0725  0.0757
16492W        W36026   1.381  16.708   1.392  0.0438  0.0184  0.2595
16493W        W36027   9.990   9.446   2.586  0.1509 -0.0608 -0.0305
16494W        W36028   3.863   2.068   2.190  0.1643  0.3117  0.1008
16495W        W36029  17.439   2.144   2.810 -0.2045  0.4109  0.2773
16496W        W36030  14.516  14.508  13.178  0.3609 -0.0895 -0.1908
16497W        W36031  10.593   0.157   1.818 -0.1670 -0.1491  0.0869
16498W        W36032  17.063   0.851  14.485 -0.0323  0.1369  0.1173
16499W        W36033  11.323   6.601  15.602  0.2229 -0.1234 -0.2527
16500W        W36034   3.666   2.623   0.238  0.0897  0.0785 -0.2321
16501W        W36035  14.213  14.564   0.115 -0.0565 -0.4216  0.1014
16502W        W36036   6.805   6.462  14.870  0.1488  0.3747 -0.1988
16503W        W36037  11.952   6.661  13.599  0.2720 -0.0367 -0.1212
16504W        W36038   9.182   5.891  15.822 -0.2509  0.1583  0.0013
16505W        W36039   3.334  15.598  13.720  0.0060  0.4149  0.1118
16506W        W36040  11.431  14.802   4.109 -0.0784 -0.2507 -0.0400
16507W        W36041  10.627   0.035  11.923  0.0666 -0.4265  0.1152
16508W        W36042  18.255   4.855   1.594  0.0756 -0.1979  0.0067
16509W        W36043  13.713  18.174   4.662  0.1059  0.1959  0.2027
16510W        W36044   8.605  11.006   3.446  0.1243  0.0751 -0.1646
16511W        W36045   5.591  15.398  14.890  0.2763 -0.2314 -0.0390
16512W        W36046   7.209   6.627  13.356  0.0913 -0.1347  0.2178
16513W        W36047   0.770  16.631   3.861 -0.0970  0.1279 -0.0792
16514W        W36048   8.132  11.741   2.373 -0.1865  0.2660  0.1195
16515W        W36049   3.417  13.754   0.067 -0.0803  0.0241  0.3285
16516W        W36050   6.761  10.829   1.555  0.2190  0.0042  0.2091
16517W        W36051  16.837  16.531  14.213  0.2992 -0.2978 -0.0246
16518W        W36052  12.746  16.289   4.404 -0.1794 -0.0217 -0.0348
16519W        W36053   1.706  11.245   1.788  0.1436 -0.2423 -0.0179
16520W        W36054  11.377   4.302   0.677  0.0735  0.0610  0.0642
16521W        W36055  12.791  16.063  11.048  0.0745 -0.0438 -0.2436
16522W        W36056   6.492   1.088   4.583 -0.1909 -0.2601 -0.0633
16523W        W36057  10.524   6.404  13.224  0.2180  0.1351  0.2277
16524W        W36058  14.241   9.386  11.618  0.2627 -0.1209 -0.1040
16525W        W36059   9.708   5.519   0.713  0.1237 -0.2146  0.0900
16526W        W36060   9.373  10.456   0.779  0.0866 -0.1551 -0.4399
16527W        W36061   6.835   8.445  12.630  0.0676  0.1148 -0.0360
16528W        W36062   5.219  17.489  13.345  0.0778 -0.1573 -0.1104
16529W        W36063   6.546   7.343  14.466  0.0366 -0.0062 -0.0374
16530W        W36064   0.526   8.549   1.129  0.0015  0.4159 -0.0082
16531W        W36065  10.574   0.810   1.242 -0.0736 -0.5513 -0.3441
16532W        W36066   8.908  17.624   2.169  0.0388 -0.2286 -0.1177
16533W        W36067   9.137  17.736  15.379  0.0176 -0.2001 -0.1834
16534W        W36068   3.646   9.277  13.425 -0.1356  0.0070  0.1339
16535W        W36069  10.570  17.101   4.402 -0.2597  0.1025 -0.0528
16536W        W36070  10.770   8.431  15.028 -0.0219  0.3002  0.0821
16537W        W36071   7.016   1.112  12.004 -0.1508  0.1302  0.0995
16538W        W36072  17.069   0.348   3.410  0.1639 -0.0598 -0.2372
16539W        W36073  10.804   7.510   0.541  0.1362  0.0405  0.0690
16540W        W36074   3.273  15.549   4.203  0.1982  0.4540 -0.2152
16541W        W36075   9.300   0.865  15.735 -0.0141  0.0945 -0.4494
16542W        W36076   2.398  17.446  11.967  0.3071 -0.0085  0.1229
16543W        W36077   8.192  12.003   1.552  0.0343 -0.1905  0.1478
16544W        W36078  17.589  10.005  14.265 -0.1305  0.1169  0.0004
16545W        W36079   7.102   4.022   1.135 -0.0568 -0.0811  0.3318
16546W        W36080   8.830   5.694   1.317  0.1554  0.1055  0.0292
16547W        W36081   4.011   4.058   1.818 -0.1417 -0.0204  0.1727
16548W        W36082  11.405   9.469   0.635  0.0279  0.0892 -0.0261
16549W        W36083   9.321  16.670  11.923  0.1414 -0.0641  0.2331
16550W        W36084  16.620   5.180   2.404 -0.1009 -0.3845  0.1866
16551W        W36085  12.289  15.188   5.079  0.1793 -0.0312  0.6209
16552W        W36086   9.350   6.744  15.708 -0.0310 -0.0072  0.1699
16553W        W36087   1.206  15.738   1.829 -0.3952 -0.2454  0.0124
16554W        W36088   7.107  16.257   5.593 -0.0693  0.0468  0.0656
16555W        W36089  12.386   7.190   2.209 -0.1343  0.1909 -0.2753
16556W        W36090   2.656   0.323   0.720  0.1088 -0.0898  0.0910
16557W        W36091   9.576  11.668   2.997  0.2531 -0.2250 -0.2021
16558W        W36092   4.841  12.476   0.238  0.2581 -0.1142  0.1275
16559W        W36093  12.500   0.036   3.150  0.0028 -0.0207 -0.1131
16560W        W36094   6.002   1.546   0.650 -0.3069 -0.3403  0.0579
16561W        W36095   2.361  14.449   0.300  0.0693 -0.1551  0.0784
16562W        W36096   2.476   5.410   3.760  0.1770 -0.3226  0.0872
16563W        W36097  11.291  14.561   2.459  0.1206 -0.0911  0.1846
16564W        W36098   3.594   3.514  12.718  0.1239  0.1122 -0.1324
16565W        W36099  14.862  14.894   3.166 -0.4453  0.0243  0.0929
16566W        W36100  13.011   6.858   3.875 -0.0863 -0.0667 -0.1442
16567W        W36101   1.770   1.564  15.680 -0.1224 -0.1057  0.1903
16568W        W36102  10.130  12.595  15.066 -0.0758  0.0825 -0.4144
16569W        W36103  16.949   6.594  11.670 -0.3284 -0.1057 -0.1042
16570W        W36104   8.082  16.900  15.292 -0.1293  0.2711 -0.1499
16571W        W36105  17.572  10.672   1.768 -0.0261 -0.1458  0.2185
16572W        W36106   2.799   1.247  13.723  0.1419  0.2173  0.2150
16573W        W36107  18.381   2.916   3.335 -0.4603 -0.2653 -0.1314
16574W        W36108   7.801  14.620  13.989 -0.0469 -0.1417  0.0003
16575W        W36109   1.119   2.514  15.422  0.0947  0.0987 -0.0455
16576W        W36110  12.766   1.021   1.174  0.0076 -0.0950 -0.1897
16577W        W36111   8.422   5.571  13.255  0.0653  0.1225  0.3580
16578W        W36112  13.616  11.007   2.187 -0.0991 -0.1602 -0.0661
16579W        W36113  13.395   4.811  12.633  0.2997 -0.1010  0.1425
16580W        W36114   1.506  15.209  14.990 -0.4204 -0.1342  0.0860
16581W        W36115  18.391   1.709  11.708  0.0050 -0.1313  0.4754
16582W        W36116   2.562   1.929  15.680  0.0300  0.0108  0.1874
16583W        W36117  13.853   1.545  14.498 -0.2153  0.1692  0.0372
16584W        W36118  16.979   4.193   2.955 -0.1397  0.1043  0.0877
16585W        W36119  14.720  16.284  12.764 -0.0080  0.1123 -0.2367
16586W        W36120  13.577   0.071   0.335  0.1719  0.1811  0.0802
16587W        W36121   5.853  16.241  15.266 -0.1248  0.2449 -0.0253
16588W        W36122  11.976   7.589  11.071 -0.0708  0.3003  0.1611
16589W        W36123  17.115  11.605   2.888 -0.1223 -0.1312  0.0493
16590W        W36124  12.440   5.497  14.506  0.0582 -0.3511  0.3905
16591W        W36125  15.467  10.839  12.271 -0.0093  0.3530 -0.1232
16592W        W36126   0.654   4.184  13.755 -0.0820 -0.0227 -0.0571
16593W        W36127   7.528  12.145  13.311 -0.1744 -0.0749  0.0149
16594W        W36128   7.657   6.450  12.478 -0.2640  0.2403 -0.0235
16595W        W36129   4.028   3.621   1.019 -0.0169 -0.4401  0.0267
16596W        W36130  16.910  15.936  11.544  0.1702  0.0141  0.1848
16597W        W36131   3.504   8.845  14.284 -0.1117  0.0677 -0.2404
16598W        W36132   2.401   6.969   1.754 -0.3294 -0.0751 -0.0307
16599W        W36133   5.016  11.572   3.156  0.1743 -0.0110 -0.0133
16600W        W36134   4.892   8.365  14.495 -0.1432 -0.1894  0.0504
16601W        W36135   5.992   0.315  13.180 -0.2208 -0.0552 -0.2324
16602W        W36136  14.725  12.777  13.452 -0.2968  0.1626 -0.1666
16603W        W36137   2.032   9.981   2.267 -0.2015 -0.1118 -0.0251
16604W        W36138   0.688   6.681   2.290  0.1583 -0.1657  0.0156
16605W        W36139   7.499  16.368   0.377  0.1376  0.0937 -0.0458
16606W        W36140  11.371  15.083  13.748 -0.3853 -0.1179 -0.2349
16607W        W36141   7.449  16.807   0.099 -0.1915  0.1667 -0.0784
16608W        W36142   3.982  10.309  11.017  0.2734 -0.1158 -0.2584
16609W        W36143   6.317   1.303   0.377  0.4409 -0.1663 -0.1244
16610W        W36144   9.746   1.249  14.468  0.1289 -0.0142  0.1926
16611W        W36145   8.796   0.559  14.924 -0.1417  0.1404  0.1144
16612W        W36146   3.414   9.755   0.435  0.0248 -0.0499  0.1956
16613W        W36147   9.177  11.668   0.873 -0.0040 -0.0221  0.1004
16614W        W36148   1.708   5.505  14.080 -0.0304 -0.1074 -0.1821
16615W        W36149   5.936   1.613  12.523  0.2909 -0.1794 -0.2392
16616W        W36150   0.460   1.093  11.620 -0.0590  0.2236 -0.1110
16617W        W36151  11.788  16.405   3.561  0.1860 -0.0147 -0.1016
16618W        W36152  16.575  16.495   2.476  0.1376  0.2354 -0.1458
16619W        W36153   5.336  17.508  12.573 -0.1120 -0.1603  0.0155
16620W        W36154  13.427   4.673  11.186  0.1585 -0.2260  0.0914
16621W        W36155   8.763  12.614   3.712  0.2379 -0.0437  0.0544
16622W        W36156   8.507  17.580  11.647  0.3155 -0.3648  0.3368
16623W        W36157   3.244   5.208   2.024  0.1123  0.2322 -0.1473
16624W        W36158  11.153  16.754  12.417 -0.0814 -0.3087 -0.0175
16625W        W36159  18.041   1.689   1.109 -0.2742 -0.1437 -0.0551
16626W        W36160  14.252  17.221   0.476 -0.5281  0.0606  0.2777
16627W        W36161  14.029  16.955   1.612  0.0526  0.1630 -0.1366
16628W        W36162  10.878  16.599   1.994 -0.1018 -0.1281  0.0792
16629W        W36163  12.234   6.004  14.375 -0.0492 -0.1215 -0.1309
16630W        W36164  10.361   0.043   4.267 -0.0859 -0.0044  0.1229
16631W        W36165   6.581  12.608   3.979 -0.0557 -0.2398  0.0819
16632W        W36166   9.708  14.711  15.194  0.0124  0.0512 -0.0554
16633W        W36167   5.694  10.109   3.367 -0.0120 -0.1129  0.1144
16634W        W36168  11.447  15.877  13.102 -0.1525  0.2594 -0.1183
16635W        W36169   5.577  13.476  13.225 -0.2255 -0.1035  0.0703
16636W        W36170   7.327   1.891  12.459 -0.3317  0.0121  0.0902
16637W        W36171   1.540   8.781  15.574 -0.1198 -0.2814  0.1449
16638W        W36172  16.815   2.631   1.545 -0.4370  0.0942 -0.1633
16639W        W36173   7.533   3.773   3.232 -0.2282 -0.3937  0.2573
16640W        W36174  10.294   0.826  13.836 -0.1721 -0.0845  0.1595
16641W        W36175   2.404  17.544  15.119 -0.3578 -0.3456 -0.2036
16642W        W36176   0.925  13.844   1.633 -0.0088 -0.3204 -0.1655
16643W        W36177  15.914   4.681  14.378  0.2361  0.0158 -0.2631
16644W        W36178   3.689  10.254   3.219  0.1260 -0.0272 -0.0524
16645W        W36179  14.155   8.541  14.469 -0.0242  0.2068  0.1759
16646W        W36180   2.624   4.704   3.686 -0.1567 -0.2222 -0.1443
16647W        W36181   6.934   8.526   0.447  0.0821  0.1616 -0.1452
16648W        W36182   4.144   4.061   3.163 -0.3988  0.0509 -0.1341
16649W        W36183   0.458  16.114   3.104  0.1978  0.1731 -0.0738
16650W        W36184   0.745  16.596  12.968 -0.0498 -0.1961 -0.0751
16651W        W36185   5.954   6.092   4.709 -0.1475 -0.1968 -0.0627
16652W        W36186  17.081   4.145   0.311  0.1105  0.2413 -0.3020
16653W        W36187  13.372   7.065  14.998  0.5097  0.1064  0.1084
16654W        W36188  14.755  15.311  13.593 -0.0539  0.0071 -0.0055
16655W        W36189   9.789   0.727   2.273 -0.2236 -0.2442 -0.4667
16656W        W36190   2.674   3.293  13.015  0.2313  0.0020  0.0293
16657W        W36191   9.764   2.185  12.245 -0.3619 -0.1754  0.1268
16658W        W36192   4.857   6.627   2.530 -0.0116  0.0682  0.1772
16659W        W36193  12.748   9.011   3.581 -0.1733 -0.0398  0.0570
16660W        W36194  13.863  13.297   2.827 -0.1620 -0.0700 -0.4746
16661W        W36195   1.105   3.096   2.212  0.0620  0.0599 -0.3123
16662W        W36196  16.256   3.660   2.030 -0.0066 -0.0380 -0.5367
16663W        W36197  11.770   3.843   1.842 -0.0784 -0.1357 -0.2203
16664W        W36198  17.278  16.170   2.418 -0.0806 -0.0367 -0.2060
16665W        W36199  15.184   1.282   0.780  0.3897 -0.1663  0.3450
16666W        W36200   4.064  17.665  15.672 -0.1033 -0.1887 -0.2102
16667W        W36201   6.152   9.931  12.144  0.2100  0.0953  0.1002
16668W        W36202  10.993  10.560   1.254 -0.0067  0.2889  0.2152
16669W        W36203   8.624  18.249  13.142  0.2609 -0.2462 -0.0620
16670W        W36204   3.993  12.541   4.179 -0.1092 -0.0740  0.0634
16671W        W36205  11.085  14.500   1.602  0.0229 -0.0360 -0.0640
16672W        W36206  11.241  18.384   3.993  0.0839  0.0074  0.2745
16673W        W36207   9.497  15.704  14.752  0.1010  0.0358  0.0631
16674W        W36208  17.129   7.037  11.503  0.1364 -0.1461  0.0076
16675W        W36209   0.887  13.294  13.321 -0.1110 -0.1598 -0.0509
16676W        W36210   1.880  17.490   3.131 -0.0251  0.3038 -0.2730
16677W        W36211   0.547   6.996  14.640 -0.1637 -0.1016 -0.0730
16678W        W36212  13.433   1.101   1.855 -0.1997 -0.2086 -0.0265
16679W        W36213  17.985   2.469   0.118 -0.0645 -0.0528  0.0756
16680W        W36214   4.293   4.823   3.990  0.0630 -0.1166 -0.0249
16681W        W36215   4.110   8.096  11.230  0.2917  0.1788  0.3667
16682W        W36216  17.096  10.597  11.942  0.2261  0.0793 -0.3381
16683W        W36217   4.733  11.050   1.442  0.1558  0.1837  0.1339
16684W        W36218  14.880  10.277  15.500  0.3624  0.3261 -0.1702
16685W        W36219   4.166   2.527   3.555  0.2584  0.1513 -0.1923
16686W        W36220  11.571  16.933   0.052 -0.0048  0.0373 -0.0898
16687W        W36221   1.359  12.308   0.934 -0.0330  0.1728  0.2127
16688W        W36222   3.944   4.917  12.972 -0.2870 -0.3600  0.2411
16689W        W36223   0.527   2.015   0.919 -0.1198 -0.2055 -0.3299
16690W        W36224   3.231   0.665   2.664  0.2003 -0.2149  0.1798
16691W        W36225   3.616  12.235  12.618 -0.1402 -0.0655  0.0645
16692W        W36226   3.419   7.016   1.809 -0.1879  0.0287 -0.1709
16693W        W36227   1.642  13.809   4.562 -0.0358  0.0222  0.2816
16694W        W36228  13.006  17.537   3.235  0.0384 -0.0031  0.0019
16695W        W36229   9.586  11.198  12.882 -0.4719  0.1222  0.1639
16696W        W36230   7.215   8.329   2.900 -0.0724 -0.2341  0.3627
16697W        W36231  11.389   8.259   0.737  0.2708  0.1997  0.0187
16698W        W36232   9.535   1.722  12.298  0.2451  0.2774 -0.2358
16699W        W36233  14.132   3.484  14.109  0.0372 -0.0481  0.0402
16700W        W36234  15.662  11.561   3.372 -0.4249  0.3131  0.0017
16701W        W36235  17.124  15.773   2.192  0.2884  0.1217  0.1223
16702W        W36236  12.774   9.282   2.604  0.0269 -0.0723  0.0307
16703W        W36237  12.242  12.062  11.720 -0.0428 -0.2263 -0.1439
16704W        W36238  12.888  11.639   3.897  0.1340 -0.2390  0.1684
16705W        W36239   6.172  15.883  12.684  0.2997  0.2816 -0.2918
16706W        W36240  16.187   1.748  12.477 -0.1884 -0.3599 -0.1376
16707W        W36241  12.411   0.265   4.506 -0.1982 -0.0566  0.3146
16708W        W36242  11.360  12.064   1.126  0.2205  0.3537 -0.3666
16709W        W36243   0.012   2.728   1.433  0.2147 -0.1958 -0.4094
16710W        W36244  15.313   3.632  11.713 -0.2642 -0.0962 -0.0084
16711W        W36245   3.925  13.384  13.487  0.1274  0.0530  0.0899
16712W        W36246  18.384  12.931  14.557 -0.1202 -0.1135 -0.0998
16713W        W36247  12.050  13.616   4.433 -0.3058  0.1636 -0.0059
16714W        W36248  17.884   4.086   2.622 -0.1081 -0.0107  0.1311
16715W        W36249  10.261   2.442  15.786 -0.0089 -0.2460  0.1087
16716W        W36250  12.034  14.193   4.473  0.0800 -0.1640 -0.0169
16717W        W36251   2.655   3.745  12.381 -0.1462  0.1435  0.2377
16718W        W36252  14.077  17.198  12.800  0.2094  0.0376  0.1435
16719W        W36253   9.751  12.047   1.996  0.0007  0.2286  0.1144
16720W        W36254  10.319  10.244   1.123 -0.0179  0.0866 -0.3034
16721W        W36255  12.431   1.527  10.656 -0.0774 -0.1544 -0.0645
16722W        W36256   2.527  17.175   4.285 -0.2978 -0.0804  0.0192
16723W        W36257   3.515  12.240  11.134  0.0338 -0.2535  0.4116
16724W        W36258   5.634  13.968  14.874  0.2166 -0.2303  0.4995
16725W        W36259  10.524  13.122   0.927 -0.2422  0.1728 -0.1039
16726W        W36260   1.706   5.822   1.115  0.0691 -0.0419 -0.3820
16727W        W36261  14.751   6.240   0.647  0.2895 -0.2071 -0.0494
16728W        W36262   7.282   0.878  13.858 -0.0155 -0.1875 -0.0388
16729W        W36263   3.161   4.126   3.981  0.2550  0.0652  0.0712
16730W        W36264   0.163   5.108  13.402 -0.0614 -0.1437  0.1796
16731W        W36265  10.855   5.607   2.494  0.0394  0.0823 -0.0799
16732W        W36266   1.203   2.573   3.963  0.0468  0.0164  0.0857
16733W        W36267  16.069   7.720   1.710  0.2537 -0.0940 -0.0167
16734W        W36268   7.559   2.533   1.110  0.0500  0.2210  0.1476
16735W        W36269  17.829  16.865  15.035 -0.1511  0.0041  0.0930
16736W        W36270  13.936   1.794   2.566  0.2041  0.1311 -0.5921
16737W        W36271  12.544   1.857   3.589 -0.0491  0.1037 -0.0165
16738W        W36272   1.461  14.278   3.324 -0.0928 -0.1576 -0.1954
16739W        W36273  10.278   8.025   4.229 -0.0623  0.0345 -0.0264
16740W        W36274   4.379   3.927   3.915  0.2264  0.0701 -0.2037
16741W        W36275  13.900  13.263  13.524  0.1277 -0.1390  0.1002
16742W        W36276  13.654   7.918   2.110 -0.3008  0.0625  0.0448
16743W        W36277   9.676   1.237   2.350 -0.3424  0.0512 -0.1194
16744W        W36278   4.162   5.015   1.148  0.1929  0.1362  0.0168
16745W        W36279  10.495   5.593   1.768 -0.0446  0.3952 -0.1731
16746W        W36280   3.676  10.787  13.047  0.1489 -0.1156  0.2171
16747W        W36281  10.302   1.031  14.645  0.1365  0.1343 -0.0131
16748W        W36282  16.171   1.099  12.294 -0.1070  0.1587  0.1148
16749W        W36283  14.300   1.264   0.845 -0.0652  0.0585  0.1870
16750W        W36284  14.463   8.556  13.490 -0.2582  0.1041 -0.0434
16751W        W36285   9.763   6.652  12.810  0.0723 -0.1084  0.0576
16752W        W36286  15.291  11.450   3.808  0.1308  0.0575  0.1152
16753W        W36287  10.585   6.969  14.485  0.0951  0.2691 -0.1829
16754W        W36288   2.682  11.462   5.601  0.0911  0.1082 -0.0749
16755W        W36289   6.404   9.475   0.450  0.2145 -0.0526  0.4104
16756W        W36290   4.885  15.273   2.496  0.2017 -0.0399 -0.1722
16757W        W36291  10.335  10.899  12.748 -0.0451  0.1509 -0.0620
16758W        W36292   0.044   3.298   0.984 -0.1487  0.3321  0.2638
16759W        W36293   4.208  10.730  12.995  0.1121 -0.2635  0.0918
16760W        W36294  17.229   2.504   1.298 -0.1090 -0.1185 -0.1860
16761W        W36295  12.387   8.247   1.619  0.4426  0.0760 -0.1883
16762W        W36296   5.263   1.215   4.500  0.1218 -0.1603  0.1615
16763W        W36297   1.471  11.011   2.136  0.0779 -0.0156 -0.3327
16764W        W36298  16.686  13.366  14.706 -0.0079  0.0819 -0.0851
16765W        W36299  12.220   3.041   2.209 -0.1480 -0.2004  0.0601
16766W        W36300   6.028   2.786   0.157 -0.1813  0.0715  0.2013
16767W        W36301   6.356  11.704  13.660 -0.2225 -0.2462 -0.0135
16768W        W36302  15.311  15.893  15.603  0.0988 -0.2600 -0.0812
16769W        W36303   9.492   6.988   0.276  0.0250 -0.1351  0.0432
16770W        W36304   1.891  16.874   1.184 -0.0572  0.1255 -0.0125
16771W        W36305  16.951   5.578   2.551 -0.1337 -0.0685  0.0883
16772W        W36306   3.220   7.704  11.495  0.0889 -0.0616  0.0988
16773W        W36307  10.684  14.044   0.664 -0.2526  0.0003 -0.0668
16774W        W36308   1.112   9.994   3.051  0.2003  0.0019 -0.3462
16775W        W36309  16.581   8.778  13.571  0.1771 -0.0986 -0.0515
16776W        W36310  10.649   8.030   3.417 -0.3979  0.0226 -0.2030
16777W        W36311   6.325  14.188  12.519  0.1212  0.0915 -0.0824
16778W        W36312  12.973  17.373   3.892  0.1542  0.1509 -0.2083
16779W        W36313  18.047  12.967   2.372 -0.2250  0.1731  0.0389
16780W        W36314   3.447   7.372  12.682 -0.2070  0.0865 -0.0202
16781W        W36315   0.968  17.946  14.918  0.2348 -0.0226  0.0081
16782W        W36316  16.031  16.615  14.661  0.1834 -0.0874 -0.0680
16783W        W36317  15.767   1.974   3.076 -0.0575  0.0940 -0.1634
16784W        W36318  14.005   7.015  14.211 -0.0383 -0.2215  0.0646
16785W        W36319   3.283  13.305  14.092  0.2288 -0.1394 -0.0079
16786W        W36320  14.935  17.428  15.273 -0.0491  0.0646 -0.0068
16787W        W36321   8.224  11.635   4.499  0.1867 -0.1482 -0.1168
16788W        W36322   3.510  14.609   0.206  0.0738  0.2014  0.0328
16789W        W36323   6.422  17.931   5.788  0.0629  0.0142 -0.2228
16790W        W36324   7.413   7.843   2.896 -0.1659 -0.2210  0.1574
16791W        W36325  18.081   9.363  14.930 -0.3197 -0.0969 -0.2130
16792W        W36326  12.609  17.445   5.118 -0.3946 -0.0450  0.0665
16793W        W36327  15.506  13.434  13.335 -0.0719 -0.2831  0.1522
16794W        W36328   4.157  13.637   0.664  0.2030  0.2496 -0.0216
16795W        W36329  15.825   7.397   2.209 -0.1104 -0.0286  0.1175
16796W        W36330   9.106  15.113  10.954 -0.2337 -0.1201  0.0887
16797W        W36331  16.820   5.023   4.767 -0.0564 -0.0359  0.0159
16798W        W36332   3.719   0.439  14.667 -0.2584  0.0060 -0.1737
16799W        W36333   9.374  12.737  11.315  0.2102  0.2428 -0.0179
16800W        W36334  12.448  11.923  13.894  0.1346 -0.0620  0.0613
16801W        W36335  13.267   1.875  15.659  0.0332  0.1094 -0.1117
16802W        W36336  16.902  11.908  12.052 -0.0522 -0.1735 -0.0732
16803W        W36337   6.420  11.366   0.900 -0.1280 -0.2538  0.1054
16804W        W36338   3.537  10.216   1.359  0.2686  0.4195  0.0275
16805W        W36339   0.234   9.946  11.292 -0.0107  0.2641  0.1394
16806W        W36340   8.869  17.173   1.166 -0.1900 -0.0616  0.1815
16807W        W36341   2.170   1.487   4.927 -0.3869  0.2578 -0.0173
16808W        W36342  15.900  12.087  14.361  0.0241  0.2275  0.0218
16809W        W36343  11.284  11.687  13.159  0.3471  0.1305 -0.0172
16810W        W36344  11.847   2.027   2.898 -0.1343 -0.0870 -0.3648
16811W        W36345   3.582   4.164  15.204  0.1574 -0.0864  0.2652
16812W        W36346  17.086  12.898  15.029 -0.1470 -0.3874 -0.0777
16813W        W36347  16.071   2.655   2.067  0.2773 -0.0736 -0.1046
16814W        W36348   2.136  14.467  15.295 -0.0272 -0.4300  0.0712
16815W        W36349   4.670   6.419   4.801 -0.2083 -0.0393 -0.0353
16816W        W36350  16.653  13.186  15.173 -0.0390  0.0443 -0.2814
16817W        W36351   0.403   3.817  15.150  0.1076 -0.1528 -0.0549
16818W        W36352  15.210   9.174  15.111 -0.1590  0.1207 -0.0856
16819W        W36353   8.200   9.892   0.176 -0.0574  0.1923 -0.2292
16820W        W36354  17.395   8.947   3.967 -0.0394 -0.2773 -0.0166
16821W        W36355  14.929   3.155   4.340  0.0922 -0.1388 -0.1360
16822W        W36356   6.682  15.235   2.591 -0.3422  0.3990 -0.1599
16823W        W36357  12.410   3.892  15.031 -0.3443  0.0303 -0.0760
16824W        W36358  16.265   1.068  13.888  0.0305  0.0343 -0.1044
16825W        W36359   1.387   1.382  11.578 -0.0772 -0.1683 -0.1740
16826W        W36360  10.787   8.173   2.552 -0.0727  0.2891  0.3443
16827W        W36361   5.779  10.571   0.541  0.0138 -0.4193  0.0670
16828W        W36362   1.980   0.608   4.348 -0.0107 -0.1065 -0.0811
16829W        W36363  17.404   6.228   3.175 -0.1771 -0.1284 -0.2195
16830W        W36364   1.942  11.992   5.146  0.2404  0.1187 -0.2250
16831W        W36365   3.624   0.598  15.636 -0.2484  0.0994  0.1044
16832W        W36366  18.114  13.985  13.383 -0.1442  0.1788  0.0877
16833W        W36367   7.781   7.776  12.557  0.1812 -0.3726  0.1609
16834W        W36368  10.299   1.708  13.753 -0.0167 -0.0084  0.0871
16835W        W36369  17.405   3.553  15.069  0.0316  0.0739 -0.0738
16836W        W36370   8.341   6.570   1.607  0.2593  0.1351 -0.1118
16837W        W36371   3.604  12.740  12.354 -0.1449  0.1747  0.0569
16838W        W36372  12.693   4.960  13.815  0.0891  0.0912  0.0997
16839W        W36373  12.506  13.271  12.992 -0.0158  0.0306 -0.0723
16840W        W36374  11.504  14.030   4.513  0.0904 -0.0641  0.2923
16841W        W36375  11.965   0.393  12.063 -0.0475  0.1080 -0.0094
16842W        W36376  13.925   8.595  11.164 -0.3788 -0.0817  0.0629
16843W        W36377   5.602  16.173   2.468 -0.0866 -0.0683 -0.0072
16844W        W36378   1.307  10.233   1.405  0.1574 -0.3016 -0.2291
16845W        W36379   6.295   1.609  15.810  0.2701  0.1746 -0.3114
16846W        W36380  12.152   3.677  12.395 -0.1827 -0.3747  0.1214
16847W        W36381  10.620   2.134   0.088 -0.2596  0.1455 -0.1296
16848W        W36382  14.849   4.470   3.587 -0.1631  0.3675  0.0644
16849W        W36383   6.838   3.027  11.268 -0.0813 -0.1758 -0.0010
16850W        W36384   7.583  10.392  15.773 -0.0780  0.1302 -0.3077
16851W        W36385  10.308  10.912   1.666 -0.0200 -0.0706  0.0031
16852W        W36386   0.328   6.416  15.740  0.0262 -0.4061 -0.0828
16853W        W36387  12.288   8.487   1.209  0.0835  0.0572  0.0615
16854W        W36388  14.622   5.312   3.232  0.0496 -0.2844 -0.0139
16855W        W36389   7.233  13.866  15.484  0.1009  0.0570 -0.0499
16856W        W36390   7.304  18.382  13.724 -0.1005  0.2374  0.0727
16857W        W36391  17.980   8.427  15.404 -0.2224  0.0660 -0.1304
16858W        W36392  12.313   7.826  12.885 -0.3061 -0.3222  0.2797
16859W        W36393   4.181   7.521  11.448 -0.0404  0.0172  0.1931
16860W        W36394  10.612  10.456  12.937 -0.0079 -0.1269 -0.2176
16861W        W36395   5.260  14.662   4.205  0.0802 -0.0953  0.0462
16862W        W36396  11.702  14.314   2.278  0.0911 -0.1076 -0.1217
16863W        W36397   7.517  14.445  12.826  0.0845 -0.1809  0.1750
16864W        W36398   1.698   4.970  13.533  0.0771  0.3621 -0.2350
16865W        W36399  13.271  15.810  12.295 -0.1235  0.0350  0.1939
16866W        W36400   0.726   6.022   3.082  0.2277  0.3655  0.0483
16867W        W36401  18.129   0.273   0.863 -0.0008  0.2687 -0.0476
16868W        W36402   9.937  12.956  11.679 -0.0855 -0.0091  0.4072
16869W        W36403   6.464   9.357   3.565  0.2280 -0.0937  0.3214
16870W        W36404  14.563  12.763  15.545 -0.0291  0.0574 -0.3234
16871W        W36405   1.221   7.789  12.065 -0.2328 -0.0038  0.2056
16872W        W36406   3.639   7.567  13.096 -0.0684 -0.0433 -0.2126
16873W        W36407   9.347  17.394  15.154 -0.0043 -0.2509  0.0702
16874W        W36408   6.226   7.556   2.777  0.3895  0.0405  0.0493
16875W        W36409  10.388  14.585  12.190 -0.1768 -0.3048  0.1388
16876W        W36410   5.200   5.617   2.966  0.1364 -0.0830 -0.1329
16877W        W36411  17.165   1.968  15.668 -0.1666  0.0956  0.0827
16878W        W36412   3.815  13.745   4.082 -0.0473  0.0593  0.0148
16879W        W36413   0.783  10.855   3.150  0.2535 -0.0757  0.0113
16880W        W36414  13.881   9.963   1.963  0.4438 -0.0281  0.3056
16881W        W36415   0.122   7.360  12.639 -0.0298 -0.1543  0.3046
16882W        W36416   8.204   0.760   4.176  0.1933 -0.0476 -0.3257
16883W        W36417   6.993   7.593   4.583 -0.2286 -0.1541  0.0031
16884W        W36418   8.367  15.293  14.350  0.3310  0.2166 -0.1124
16885W        W36419  18.167  13.406   1.634  0.0008 -0.0498  0.2386
16886W        W36420   2.742  10.808  12.029 -0.0257 -0.0875  0.1597
16887W        W36421  14.848  17.122  11.808 -0.2427 -0.2659  0.2921
16888W        W36422  13.462  16.038  10.982  0.0254  0.0691 -0.1309
16889W        W36423   8.652  17.259   2.439  0.0095 -0.0428 -0.3678
16890W        W36424   8.400  13.980  11.417 -0.3440  0.2331 -0.1643
16891W        W36425   1.932   0.518   2.401  0.0176 -0.0248 -0.2810
16892W        W36426  13.276  18.014  14.890 -0.0827 -0.4127 -0.0623
16893W        W36427  17.829  12.235  11.991 -0.0942 -0.1277 -0.1110
16894W        W36428  11.069   3.691   4.395 -0.1192  0.0946 -0.1358
16895W        W36429   1.018   2.110   3.961 -0.2940  0.1479 -0.3228
16896W        W36430   6.067   1.618   2.359 -0.0558 -0.0161 -0.1566
16897W        W36431  15.316   6.823   1.050  0.0002  0.2346 -0.3254
16898W        W36432   3.087  13.968   4.686 -0.1284  0.3645  0.2684
16899W        W36433  13.091   0.862   1.581 -0.1599  0.0612  0.0227
16900W        W36434   3.073  16.908   3.795  0.0949 -0.2483  0.0198
16901W        W36435  14.790   8.768  13.738 -0.0366  0.1288  0.1951
16902W        W36436   2.763  10.063   1.638  0.0734  0.4662 -0.2273
16903W        W36437   5.907  12.275  13.335 -0.3200 -0.0779  0.2536
16904W        W36438   3.521   8.876  15.146 -0.3526 -0.1152 -0.0284
16905W        W36439   5.419   4.948  13.363  0.1382 -0.0699  0.0509
16906W        W36440   9.100   4.931  11.790 -0.4010  0.1870  0.1065
16907W        W36441  12.332  12.639  13.059  0.3954 -0.0269 -0.0760
16908W        W36442  14.025   8.641  13.676  0.3921  0.1514  0.2662
16909W        W36443   1.977   4.316   0.028 -0.4468 -0.1020  0.0166
16910W        W36444   0.860  16.394   3.312  0.0994  0.4389  0.2063
16911W        W36445   5.800  17.030  13.010 -0.0464  0.2776 -0.2418
16912W        W36446   4.965  16.440  13.535  0.0836 -0.2446 -0.1944
16913W        W36447   6.631   3.158   2.983  0.0583  0.2177 -0.3366
16914W        W36448  15.845   5.014  15.784  0.3955 -0.2650 -0.1870
16915W        W36449   0.896  14.837   3.899  0.1532  0.1228  0.1262
16916W        W36450   2.214  16.329   0.015 -0.3134 -0.0874 -0.0648
16917W        W36451  17.144   8.444   1.385 -0.2669  0.1800 -0.0517
16918W        W36452   3.099   6.754  14.092 -0.0908  0.1110 -0.0799
16919W        W36453   3.339  10.579   1.725  0.0915 -0.1625  0.0216
16920W        W36454   6.452  15.037  12.031 -0.0334  0.4370 -0.1271
16921W        W36455   2.446  17.552   1.207 -0.2504  0.3485 -0.0480
16922W        W36456  14.902   7.067  11.250 -0.2634 -0.0518 -0.1620
16923W        W36457  16.427  17.890   1.147 -0.1583  0.1810  0.1164
16924W        W36458  14.675  11.252  14.475  0.1080  0.2241  0.1966
16925W        W36459   4.906  13.839  14.190  0.0625  0.3356  0.1803
16926W        W36460  12.613  14.169  14.851 -0.0567  0.1813  0.0401
16927W        W36461   0.274   5.915   0.745  0.1256  0.2176  0.0736
16928W        W36462  14.105   9.312   4.232 -0.1769 -0.0631 -0.2762
16929W        W36463   6.022   0.224   3.184 -0.1342  0.1218  0.1330
16930W        W36464   0.872   9.831   1.734 -0.4447 -0.4195  0.0809
16931W        W36465   7.900   0.052  11.833  0.0827  0.0978  0.2457
16932W        W36466  12.320   7.002   3.773 -0.0504 -0.1011 -0.0262
16933W        W36467  15.395   9.648  15.002 -0.2436  0.1443  0.0880
16934W        W36468   9.207   3.760  14.044  0.0835  0.2639  0.0184
16935W        W36469   2.425  14.056   3.259  0.0172  0.0164 -0.1333
16936W        W36470   5.414  10.336  12.716 -0.4441  0.0828 -0.0854
16937W        W36471   0.840   7.677   2.660  0.1050  0.0925  0.0989
16938W        W36472  10.703   5.661  11.447 -0.0749 -0.2649 -0.2585
16939W        W36473   4.203   3.668  15.256  0.2125 -0.2290  0.1525
16940W        W36474  16.653   1.994  15.710 -0.1509 -0.3625 -0.1915
16941W        W36475  14.083  11.297   0.310 -0.0738  0.1563  0.0852
16942W        W36476  17.926  16.514   3.071  0.1323 -0.0789 -0.3771
16943W        W36477  11.498   0.228  13.319 -0.0170 -0.0804 -0.1313
16944W        W36478   2.341  14.167   0.950  0.3129  0.0058 -0.2104
16945W        W36479   8.468  15.822  11.408  0.1167  0.4918  0.1767
16946W        W36480  10.680   9.323   4.209  0.3113  0.0828 -0.2155
16947W        W36481   2.340   1.683   1.182  0.0109 -0.0495 -0.1903
16948W        W36482  11.501  14.195   3.660 -0.3024  0.3562 -0.0418
16949W        W36483  18.098   3.649   3.409 -0.0068  0.0368 -0.0730
16950W        W36484   1.694  17.238  13.452 -0.2385  0.1061 -0.0985
16951W        W36485   9.076  14.351  13.850 -0.0734 -0.1296 -0.0153
16952W        W36486   9.974   4.884   1.472 -0.2402 -0.0942 -0.1489
16953W        W36487   2.124   8.151  14.227 -0.0934 -0.0592 -0.5060
16954W        W36488  16.581   7.167   0.527 -0.0565 -0.0829 -0.1579
16955W        W36489  16.780  14.636  12.712  0.5673  0.0706  0.0795
16956W        W36490  14.057  14.198  12.867 -0.2842 -0.1759 -0.0299
16957W        W36491   7.951   1.603   1.082  0.0899  0.0466  0.1436
16958W        W36492   6.455  15.949   2.551  0.0770  0.3054  0.1711
16959W        W36493  17.158   1.130  13.176  0.1077  0.1627  0.0890
16960W        W36494   7.017  11.167   0.544 -0.0693 -0.0971 -0.2010
16961W        W36495  11.229   8.680   0.930  0.0262  0.1085 -0.2232
16962W        W36496  17.646   1.511   3.263  0.0556  0.1034  0.0914
16963W        W36497   7.712   2.213   3.387 -0.0986  0.0921  0.2911
16964W        W36498   6.853  17.780   4.830 -0.1827 -0.0718  0.2801
16965W        W36499  15.457  11.998  13.316  0.2963 -0.0189 -0.0330
16966W        W36500   6.500   6.558   0.546 -0.0170  0.0131  0.2675
16967W        W36501   1.061   0.296   2.996  0.0104 -0.3861 -0.0259
16968W        W36502  17.179   9.089  12.466 -0.1173 -0.0065  0.0346
16969W        W36503   1.986  10.416  13.581  0.2488 -0.1864  0.0482
16970W        W36504   6.352  10.471  15.512  0.1416  0.1751 -0.0230
16971W        W36505   8.423   5.529  15.426 -0.0123 -0.0056  0.0124
16972W        W36506   5.845   9.559   0.458 -0.2288 -0.1004 -0.1998
16973W        W36507   8.786  16.275  15.065 -0.1149 -0.0820  0.3652
16974W        W36508  12.012  18.272   0.670 -0.0147 -0.0773  0.1351
16975W        W36509  14.997   8.968   0.095 -0.2452  0.0835 -0.2776
16976W        W36510  13.996  11.820  15.021  0.0043 -0.0935 -0.1193
16977W        W36511   3.012  18.250   2.474  0.0323  0.2874 -0.0030
16978W        W36512   5.168   8.965  15.154 -0.0185 -0.1820 -0.2952
16979W        W36513  13.295  11.012   4.410 -0.1136 -0.2015 -0.1470
16980W        W36514   2.367   5.890  15.211  0.0395  0.2210  0.0669
16981W        W36515  14.235  15.017   1.335  0.0996  0.0556 -0.4411
16982W        W36516   6.864  10.998  13.227  0.1910  0.1795  0.1302
16983W        W36517   5.363   6.569  15.014 -0.0237 -0.0194  0.1654
16984W        W36518  10.247  11.864  14.408  0.0778  0.2351  0.2162
16985W        W36519   3.625   3.145   0.011 -0.4903 -0.2784  0.4328
16986W        W36520  15.359   0.884  13.238 -0.0748 -0.0938  0.1072
16987W        W36521   9.347   9.514   0.015  0.1665  0.2821  0.0061
16988W        W36522  15.585  10.552   4.284 -0.1820  0.0414  0.1533
16989W        W36523  15.157   2.250  15.717 -0.0108  0.1412  0.3297
16990W        W36524   9.214  13.259   1.111  0.0446  0.1717  0.0451
16991W        W36525   2.079  13.955   2.169 -0.1865  0.2563  0.1247
16992W        W36526  14.348  15.409   0.679  0.0893 -0.0005  0.2143
16993W        W36527  16.660   5.205   4.345 -0.2521 -0.0219 -0.3208
16994W        W36528   2.022  10.115   2.760 -0.0853  0.1668  0.0334
16995W        W36529  14.464  17.398  11.913  0.0440  0.0915 -0.0746
16996W        W36530  16.351   4.179  10.023 -0.0713  0.0354 -0.1981
16997W        W36531   3.378   4.908   0.600  0.0846  0.1134  0.1857
16998W        W36532  18.034  13.996  15.739 -0.0139  0.3471  0.0119
16999W        W36533  14.485   3.598  11.407  0.0263 -0.1688 -0.2729
17000W        W36534  17.985  15.031  11.780 -0.2676  0.1807  0.0113
17001W        W36535   9.439   1.822  15.669 -0.1933 -0.0341  0.2040
17002W        W36536   2.694  10.916   1.301 -0.2082 -0.2015 -0.3061
17003W        W36537   8.369   9.015  13.869  0.2281  0.4038  0.2067
17004W        W36538   6.315   0.249   0.651  0.2492  0.2126  0.0134
17005W        W36539  10.039  14.689   1.971 -0.2485 -0.2382 -0.1515
17006W        W36540   2.289  10.259   1.793 -0.2288  0.0391 -0.0906
17007W        W36541  11.134  16.183  12.942  0.0087  0.1689 -0.1772
17008W        W36542  14.660  14.118  15.099 -0.0246  0.3034  0.0009
17009W        W36543   3.081  14.796   4.731  0.0269 -0.0301  0.1704
17010W        W36544   5.662   7.146   0.574 -0.0460 -0.1499 -0.0554
17011W        W36545  12.839   2.871  15.305 -0.4256 -0.1780 -0.0493
17012W        W36546  16.716  16.041  14.853 -0.0669 -0.2760  0.0321
17013W        W36547   2.205   3.184  13.038 -0.0251 -0.0263  0.2589
17014W        W36548  15.226   5.330   3.118  0.0226 -0.0499  0.1409
17015W        W36549   3.074   1.553   0.519 -0.1164  0.0711  0.0708
17016W        W36550  11.102   8.115  11.189  0.0647 -0.4026 -0.0420
17017W        W36551  17.220   8.092  13.863  0.2973  0.0428 -0.0270
17018W        W36552   5.647   4.776   4.825 -0.2869  0.1012  0.3348
17019W        W36553  15.612   0.829   0.473  0.1479  0.0099 -0.0775
17020W        W36554   8.643  16.118  12.845  0.2979  0.2655 -0.0875
17021W        W36555   9.181   0.551   1.653 -0.1784  0.0620  0.0942
17022W        W36556   4.551   4.904  11.193 -0.1299  0.1704 -0.2195
17023W        W36557   7.449  15.708  14.152  0.1168  0.3492  0.0055
17024W        W36558  13.223   4.844   0.837 -0.1361  0.0934  0.1188
17025W        W36559   6.839  16.831   2.272  0.1301 -0.0614  0.4476
17026W        W36560  12.346   7.512   3.831  0.1578  0.1145 -0.0004
17027W        W36561  11.753  13.206   2.005 -0.2006 -0.0705  0.1749
17028W        W36562   0.192   6.591   2.501 -0.3204 -0.3134 -0.1767
17029W        W36563  15.570  14.609  11.097  0.0476  0.2692 -0.0165
17030W        W36564  15.886  11.298  12.018  0.0164 -0.0101 -0.1562
17031W        W36565   4.118   5.749  12.347  0.1645  0.0331  0.0941
17032W        W36566  16.676  15.055  12.399 -0.1606 -0.1826 -0.1567
17033W        W36567  15.689   0.002  14.555 -0.0447 -0.1104 -0.3329
17034W        W36568  10.925   7.974  13.057  0.0737  0.1033  0.1998
17035W        W36569  16.070   5.315  12.158 -0.1542  0.0713 -0.0793
17036W        W36570   7.915  15.902   1.999  0.1992 -0.5027 -0.0421
17037W        W36571  13.611  12.483  13.982 -0.2688 -0.0784  0.1414
17038W        W36572  12.070  13.489   1.170  0.0095  0.0534 -0.1112
17039W        W36573  17.014  10.773   3.351  0.1298  0.1319 -0.0958
17040W        W36574   4.481  11.179   1.883  0.1024  0.1604 -0.2143
17041W        W36575   2.097   9.101  11.741  0.0900 -0.0275  0.0649
17042W        W36576  10.154   9.172  13.325 -0.0925  0.0792 -0.0100
17043W        W36577  11.237   5.299   2.253  0.0106 -0.1466  0.2462
17044W        W36578  17.060   0.848   3.248  0.0648  0.1779 -0.1036
17045W        W36579  17.510   1.619  12.063  0.1341  0.1164  0.1228
17046W        W36580   9.533   5.581  13.552 -0.1678 -0.0501  0.1325
17047W        W36581  17.843   2.500  11.792  0.1565 -0.1292  0.2474
17048W        W36582   9.761   0.677  15.382 -0.1104 -0.1746  0.2533
17049W        W36583  13.956   3.227   1.338 -0.0903 -0.0456  0.0524
17050W        W36584   3.237  16.390  11.934 -0.0208 -0.1359 -0.0114
17051W        W36585   6.947   6.335   2.274 -0.1654 -0.2249 -0.3443
17052W        W36586  14.219  10.903  15.157  0.0577  0.0545  0.1764
17053W        W36587   5.585  16.673  12.347 -0.2247 -0.2436  0.0216
17054W        W36588   4.288   6.751  12.666  0.1358 -0.0849 -0.0495
17055W        W36589  15.982   7.655  14.347 -0.0676  0.1858  0.0962
17056W        W36590   8.632  11.554  12.693 -0.0860  0.1156 -0.0116
17057W        W36591   0.607  14.544   4.163 -0.1543  0.3807 -0.1408
17058W        W36592  12.326  17.102  13.486  0.0877  0.2875 -0.2025
17059W        W36593  10.859  13.441   3.971 -0.0721  0.0466  0.1065
17060W        W36594  15.170  16.927  14.021 -0.1836 -0.0795 -0.0536
17061W        W36595  14.041  12.815  15.238 -0.1356  0.1898 -0.3823
17062W        W36596  15.076   9.425   1.067  0.0480  0.1971 -0.0063
17063W        W36597   0.579  13.491   0.395  0.1105 -0.1752 -0.0524
17064W        W36598   4.580   2.116   4.418 -0.0246 -0.0105 -0.0899
17065W        W36599  17.558   9.921  13.441 -0.1211  0.0627  0.2462
17066W        W36600   2.243  13.624  15.768  0.0464  0.2593 -0.0010
17067W        W36601  11.741   1.477   4.162  0.0504 -0.0429  0.2081
17068W        W36602  11.690   7.921   3.776  0.2481 -0.2733  0.0137
17069W        W36603   5.584   0.980   2.654  0.2674 -0.0702  0.3575
17070W        W36604   1.725  12.656   1.751 -0.0862  0.1949  0.0420
17071W        W36605   0.299  10.890   2.702  0.1166  0.0597  0.2435
17072W        W36606  15.529   1.671   4.617  0.2688 -0.0258 -0.1353
17073W        W36607  14.860  13.031   3.644 -0.0873 -0.0841  0.0828
17074W        W36608   7.141  17.383   2.798 -0.1519  0.1759 -0.1697
17075W        W36609  12.193   6.721   2.303 -0.4102 -0.1789  0.4345
17076W        W36610   6.342  10.644   4.595 -0.2640  0.0161 -0.4057
17077W        W36611   6.537  16.864   4.574  0.2152  0.2664  0.0052
17078W        W36612  16.546  17.126   4.217  0.3105  0.0433  0.0645
17079W        W36613   3.584   6.385   3.930 -0.0894  0.0681  0.2252
17080W        W36614   7.515  14.790  14.426  0.2734 -0.0462  0.0107
17081W        W36615  12.616   9.520  15.673  0.0490 -0.2030  0.0622
17082W        W36616   1.793  14.132   0.998  0.0364 -0.1057 -0.2468
17083W        W36617   0.527   5.205   3.837 -0.0779  0.0199  0.1125
17084W        W36618   9.868  14.682   4.613 -0.1387  0.0286 -0.1986
17085W        W36619  17.084  17.170  14.077  0.3589  0.2877  0.1083
17086W        W36620  15.933   5.984   3.259  0.2072 -0.2135 -0.2456
17087W        W36621  14.249   8.519   0.005  0.0763 -0.0001  0.2571
17088W        W36622   5.990  17.931  14.970  0.2672 -0.2713 -0.3745
17089W        W36623  17.933  18.058   1.518 -0.2410 -0.0863  0.0131
17090W        W36624   9.753   9.477  15.530  0.0221  0.0593  0.4777
17091W        W36625  10.796   9.127  13.893 -0.0757  0.1300  0.3093
17092W        W36626   5.108   3.633  15.139  0.1539  0.1802 -0.0358
17093W        W36627   4.957   9.386  11.187  0.1050 -0.1594  0.2138
17094W        W36628   0.272   5.461   4.246  0.0307  0.3063 -0.1352
17095W        W36629  17.162  15.830  14.966 -0.0480 -0.0375  0.0757
17096W        W36630  11.518  11.706   4.608  0.1283  0.0289  0.2948
17097W        W36631   7.988  13.473   1.414 -0.0963 -0.2756  0.1828
17098W        W36632  10.297   3.975   1.514  0.1675 -0.0928 -0.0026
17099W        W36633   4.608  11.980  13.727  0.2368  0.0509  0.0452
17100W        W36634  17.459   4.791   1.526 -0.0401 -0.1764  0.1403
17101W        W36635   5.188   6.539  13.468 -0.0320 -0.0304 -0.0552
17102W        W36636   0.488   0.721   1.561  0.0645 -0.0309  0.0006
17103W        W36637  15.622   7.400   1.749 -0.1449  0.0119  0.0878
17104W        W36638  16.170  15.389  13.196 -0.0700 -0.0026  0.0295
17105W        W36639   6.151   6.225  14.137 -0.1377  0.1078  0.0197
17106W        W36640   2.984  10.831   3.507 -0.0259  0.1303 -0.0111
17107W        W36641  17.241   7.751  13.541  0.2958  0.2009 -0.1638
17108W        W36642  14.946   5.983   1.201  0.2102 -0.3105 -0.3400
17109W        W36643  16.568  17.409  11.605  0.0999  0.2137 -0.2609
17110W        W36644  12.637   5.856  14.168 -0.0654  0.0529  0.0490
17111W        W36645   0.104   3.834   0.276 -0.0694  0.1914  0.1639
17112W        W36646   1.008   7.133  11.570  0.1248 -0.1534 -0.0226
17113W        W36647  15.330   1.976   1.672  0.0775  0.0762 -0.0744
17114W        W36648   5.981  10.166  12.837  0.0096  0.2270 -0.2313
17115W        W36649   7.199   3.782  15.023  0.2333 -0.2563  0.1572
17116W        W36650  16.901  15.135  10.869  0.0256  0.0407 -0.0886
17117W        W36651  13.236   4.734  15.244  0.0235  0.0604  0.0847
17118W        W36652   7.424  12.911   5.014  0.2392  0.1935 -0.0869
17119W        W36653   1.219  17.670  10.853  0.0303 -0.1867  0.0439
17120W        W36654  16.873  11.256  15.536  0.3645 -0.1442  0.1336
17121W        W36655  17.602  16.852   3.297  0.2413  0.1707 -0.0013
17122W        W36656   9.585   8.615   5.757  0.2957  0.1819 -0.4143
17123W        W36657  17.612   4.096   4.615 -0.3127 -0.2033  0.0679
17124W        W36658   1.031   4.395  10.708  0.0965  0.1617  0.1018
17125W        W36659  12.261   5.416   3.925 -0.2480  0.1456  0.0708
17126W        W36660  15.511   2.945  13.691 -0.0414 -0.1702 -0.1664
17127W        W36661   0.849   1.842  11.760 -0.2299 -0.0432 -0.0598
17128W        W36662   8.050   8.148   3.963 -0.4995  0.0578 -0.1752
17129W        W36663   0.779   6.366  14.416  0.0899 -0.0207 -0.2020
17130W        W36664   2.393   1.778  12.079 -0.1193  0.0577 -0.1857
17131W        W36665   0.704   9.512   0.900  0.0125 -0.0519 -0.1157
17132W        W36666  17.840   8.475  14.727 -0.2146 -0.1386  0.2312
17133W        W36667   2.289  12.068   3.298  0.2067  0.2237 -0.1714
17134W        W36668  11.213  16.006  10.388 -0.0553 -0.1965  0.0492
17135W        W36669  16.552  15.225   1.349  0.0993 -0.0944 -0.0127
17136W        W36670   0.402   6.671   0.932 -0.1661  0.2201  0.3727
17137W        W36671  13.216   2.698  11.399  0.0443  0.1663 -0.1114
17138W        W36672   5.780   0.019  13.593 -0.0218 -0.0218  0.2524
17139W        W36673  18.026  10.012   4.273  0.2688 -0.2750 -0.1416
17140W        W36674   2.479   2.688   4.194 -0.5575 -0.2749 -0.0466
17141W        W36675   3.962   2.265   0.066  0.0693 -0.1939 -0.0158
17142W        W36676   2.570  12.814   2.277 -0.0999  0.1628  0.1995
17143W        W36677   2.841   1.190   3.358 -0.3107  0.0754 -0.1034
17144W        W36678   2.170  13.968   3.706 -0.0420  0.1479 -0.1046
17145W        W36679  16.237  16.343   2.158  0.0595 -0.1472  0.2047
17146W        W36680   0.923   1.503  13.344 -0.3444  0.1462  0.0473
17147W        W36681  15.789   8.386   0.512  0.0704 -0.0430 -0.4061
17148W        W36682   3.345   2.016  12.049 -0.2979  0.0262  0.0751
17149W        W36683  10.384  15.124   4.707 -0.0708  0.0377 -0.2208
17150W        W36684  14.140   1.880   5.298  0.3173  0.3489 -0.2326
17151W        W36685   1.008   0.276   2.132  0.1813  0.0602  0.3417
17152W        W36686   8.196  11.122  12.922  0.3060 -0.0426 -0.0771
17153W        W36687   4.298   1.663  12.501  0.3730  0.1732 -0.0769
17154W        W36688  17.172   8.367  15.720 -0.0448  0.0394 -0.4258
17155W        W36689  13.974   9.060  11.855 -0.0594 -0.1366 -0.0903
17156W        W36690   0.680   0.446  11.236 -0.1724  0.2644 -0.2213
17157W        W36691   6.813   1.020  13.937  0.1647  0.0105 -0.0761
17158W        W36692   7.603   1.894  15.809  0.0862 -0.1177  0.2036
17159W        W36693   1.847  15.359   2.257 -0.0715  0.1136  0.0318
17160W        W36694   3.298   2.521   3.873  0.1068 -0.0222 -0.3223
17161W        W36695  16.019   4.066   4.171 -0.0791  0.0779  0.0549
17162W        W36696   2.576  15.038  14.693  0.2338 -0.1331  0.1904
17163W        W36697   8.498   2.166   1.709 -0.2040 -0.0343  0.0874
17164W        W36698  10.512  12.796  11.830 -0.0133  0.1924  0.0904
17165W        W36699  10.548  14.592  11.690  0.0397  0.0479 -0.3600
17166W        W36700  12.453   9.198   1.839  0.0084  0.1228 -0.3216
17167W        W36701  12.885  10.885   3.418 -0.0095 -0.1325 -0.3477
17168W        W36702  13.518  11.368   4.164  0.2302  0.0620  0.0119
17169W        W36703  18.238   1.211   3.043 -0.2468  0.1146 -0.1823
17170W        W36704   7.520   5.450  12.494 -0.2208 -0.1289 -0.0665
17171W        W36705  14.894   4.029  15.217 -0.0748  0.1585  0.0293
17172W        W36706   1.254  15.598   2.362 -0.1502  0.1482 -0.1431
17173W        W36707   8.928  13.636   1.729  0.2115  0.3220  0.2685
17174W        W36708   3.120  12.807  13.321 -0.0500  0.3780  0.1461
17175W        W36709   0.505  13.608   4.331 -0.2256  0.3417  0.1456
17176W        W36710   9.780   7.761   3.564 -0.0057 -0.2670  0.2034
17177W        W36711   3.667  16.939   2.151 -0.0589  0.0625  0.0913
17178W        W36712   4.255   0.024   2.173 -0.0121 -0.1493  0.1988
17179W        W36713  13.945  14.660   3.750  0.3452  0.2039  0.0779
17180W        W36714  12.858  16.436  11.842 -0.0725 -0.1362 -0.0563
17181W        W36715   8.365  14.126   3.846  0.1886 -0.1326  0.0707
17182W        W36716   3.892  12.183   0.223  0.0215  0.1455  0.0522
17183W        W36717   6.386   8.155  13.407 -0.1419  0.1034  0.3497
17184W        W36718  15.091  15.126   2.342 -0.3278 -0.1386 -0.0426
17185W        W36719   5.203   8.454   2.759  0.0638 -0.1590 -0.0450
17186W        W36720   8.779  16.962  12.808  0.1409  0.0423 -0.1226
17187W        W36721   7.164   9.350  15.179  0.1474 -0.2343 -0.0902
17188W        W36722  18.387   6.753  15.488  0.1128 -0.0613  0.0492
17189W        W36723   8.692  16.418   3.972  0.0062  0.0469 -0.1946
17190W        W36724   0.707   2.375  10.222  0.0501 -0.1626 -0.0126
17191W        W36725   4.008   0.885   3.241  0.0233 -0.0007  0.0685
17192W        W36726  10.807   0.499   5.028 -0.2596  0.1405  0.0370
17193W        W36727   7.137   9.052  14.752 -0.0471 -0.0609 -0.1143
17194W        W36728  14.605   0.014   1.675  0.1291  0.0411 -0.0493
17195W        W36729   2.687   0.432   0.004 -0.0806 -0.2678  0.0569
17196W        W36730   2.530   4.168   2.832 -0.1398 -0.1788  0.2209
17197W        W36731   1.923  13.711   0.741 -0.0401 -0.1656 -0.0974
17198W        W36732  13.086   9.663  12.036  0.0248 -0.1066 -0.0169
17199W        W36733   4.640   1.748  13.814 -0.0404  0.1509  0.0419
17200W        W36734   5.157  12.339  15.623  0.1302 -0.3219 -0.0225
17201W        W36735  15.737  14.468  12.881 -0.0722 -0.1654 -0.2602
17202W        W36736   5.842  10.103   0.574 -0.3552 -0.0699 -0.1630
17203W        W36737   4.427   1.733  14.598 -0.3372 -0.0045 -0.1139
17204W        W36738   7.977  12.960   2.612 -0.0828  0.0675  0.0693
17205W        W36739   4.080  11.148   4.519 -0.3513 -0.0627  0.0245
17206W        W36740   7.743  14.615  12.444  0.0610 -0.0272 -0.0113
17207W        W36741  12.003  15.929  12.908  0.2806 -0.1956  0.0659
17208W        W36742   3.433  10.796   0.315 -0.2947  0.0995  0.0393
17209W        W36743  11.341  14.507  14.754  0.1533  0.0270 -0.0746
17210W        W36744  13.610   0.877   1.290  0.2095  0.0209 -0.0158
17211W        W36745   9.897   9.826  14.858  0.0207 -0.0806  0.1387
17212W        W36746   6.395   8.758   1.937 -0.3404  0.1404  0.3547
17213W        W36747  11.106   3.764  15.033 -0.3825  0.0076  0.1876
17214W        W36748  17.012   6.212   2.277  0.1937 -0.1179 -0.0367
17215W        W36749  12.558  18.333   1.726 -0.1597  0.2575  0.0715
17216W        W36750   3.615   5.315  13.546 -0.2304  0.0168  0.3221
17217W        W36751   7.123  11.659  11.568  0.2481 -0.2600  0.0425
17218W        W36752   7.109   4.603  10.797 -0.2965 -0.3910 -0.1190
17219W        W36753  12.064   6.988   2.701 -0.1998 -0.2999  0.0024
17220W        W36754   7.477   7.811   2.368  0.0744  0.0513  0.0470
17221W        W36755   8.914   9.469   2.750 -0.0071  0.0320 -0.2656
17222W        W36756   5.191   7.463  12.910  0.0416 -0.0788  0.0349
17223W        W36757  16.196   3.268   2.971  0.3805 -0.0285  0.1748
17224W        W36758   8.817   2.376   0.459 -0.1228 -0.0001 -0.0747
17225W        W36759   1.853  14.607   4.713 -0.1331  0.2198  0.0157
17226W        W36760   0.905   7.759  13.847 -0.3091  0.1333  0.1550
17227W        W36761  16.734  11.654   1.424 -0.2287  0.1837  0.1179
17228W        W36762  14.092   0.234  13.849  0.0863  0.1510  0.0120
17229W        W36763   5.882  12.988  12.585 -0.0110 -0.3134  0.0103
17230W        W36764  12.763   2.415   0.886  0.2151  0.2685 -0.2042
17231W        W36765  12.253  17.752  15.609  0.4983 -0.0878 -0.1696
17232W        W36766  11.893   8.170  13.700 -0.3169  0.2562 -0.1843
17233W        W36767   8.881   2.520  10.666  0.1268  0.1050  0.0359
17234W        W36768  14.677  10.615  12.543 -0.1432 -0.0352 -0.0961
17235W        W36769   0.277   9.807   1.160 -0.1477 -0.0585  0.1284
17236W        W36770   7.425  13.477  13.328 -0.0835 -0.2429  0.4033
17237W        W36771  17.786   2.584  13.911 -0.1878  0.1916 -0.2000
17238W        W36772   4.092  13.064  11.653  0.0112 -0.1348 -0.1588
17239W        W36773  12.631   9.686  12.801  0.3236 -0.0720 -0.2150
17240W        W36774  13.266   4.230  13.393 -0.0620  0.1045  0.1859
17241W        W36775  15.223  16.071   1.507 -0.3572  0.1349 -0.2129
17242W        W36776  17.370   2.931  15.590  0.2023 -0.1515 -0.2116
17243W        W36777   1.401  16.151   1.416  0.3547  0.2491 -0.0708
17244W        W36778   5.892   2.966  14.962  0.1769  0.4273 -0.1410
17245W        W36779   1.773  16.267  13.810  0.2013  0.0992 -0.1758
17246W        W36780   7.928   8.757   3.113 -0.1084  0.2229  0.1253
17247W        W36781   9.066   1.215  11.849  0.2564 -0.2002  0.0830
17248W        W36782  10.101   0.374   4.005  0.0379  0.0891  0.1891
17249W        W36783   0.795  16.721   4.375  0.0849 -0.2376  0.2198
17250W        W36784   2.000   3.232  13.729 -0.3288 -0.2110  0.1193
17251W        W36785  10.469  17.022  13.155  0.1042 -0.0667  0.0620
17252W        W36786   3.582   9.076  12.577 -0.1748 -0.2519 -0.0305
17253W        W36787   0.122   2.294  15.118  0.2186 -0.2124 -0.1333
17254W        W36788   9.000  12.977   3.950 -0.3964  0.4048  0.3429
17255W        W36789  14.946  14.065   2.895 -0.2558 -0.4020  0.2692
17256W        W36790   8.582  12.478  14.202 -0.2505 -0.2393  0.2380
17257W        W36791   4.287  16.651   4.539 -0.0121 -0.3320  0.3926
17258W        W36792   8.608   7.996  15.016 -0.2355 -0.0396  0.0097
17259W        W36793  15.699   3.339  11.935  0.0180  0.1271 -0.3480
17260W        W36794  15.486   9.535   0.787 -0.1089 -0.0571  0.1376
17261W        W36795   9.612   2.969   2.415  0.2504  0.1168  0.0903
17262W        W36796   3.831   2.043   3.078  0.1318 -0.1848  0.1087
17263W        W36797   0.754  14.294  11.922 -0.1566  0.1004 -0.3134
17264W        W36798  12.034   4.360   3.679 -0.2251  0.1670 -0.3173
17265W        W36799   0.257   5.279   1.033 -0.2305  0.0681  0.1338
17266W        W36800  13.103   1.321  13.361 -0.1355 -0.1372 -0.1920
17267W        W36801  11.923   1.835  12.877  0.1410 -0.2119 -0.3854
17268W        W36802   1.227  14.663  12.469  0.1039 -0.0681  0.3880
17269W        W36803  12.718   1.557   4.309 -0.4289  0.0572  0.1578
17270W        W36804   7.546   7.485   1.151 -0.2716  0.1981 -0.0253
17271W        W36805  11.643  14.496  14.273 -0.0296  0.0672  0.2553
17272W        W36806   4.589   7.062   4.622 -0.2507 -0.0762 -0.1442
17273W        W36807  12.831   4.438   3.478 -0.1150  0.0073 -0.3363
17274W        W36808  18.166  17.968   3.962 -0.2254 -0.1828  0.5722
17275W        W36809  15.005   5.667   1.584  0.0271 -0.1310  0.0871
17276W        W36810   1.650  10.758   4.021 -0.3487  0.2334  0.0401
17277W        W36811   2.496  13.624   3.964  0.0600 -0.0471 -0.0337
17278W        W36812  17.046   9.372  14.761 -0.0802 -0.0045  0.3136
17279W        W36813   3.687  15.798  11.401 -0.4688 -0.0234 -0.3829
17280W        W36814  12.960   9.619  14.598 -0.3262  0.0764  0.0495
17281W        W36815  10.698   5.893  11.941 -0.0651 -0.1491 -0.0753
17282W        W36816  11.922   3.525  13.528  0.0603 -0.0780  0.0627
17283W        W36817  11.375   8.688   0.424  0.2033 -0.0807 -0.3267
17284W        W36818  14.699   4.163   4.532 -0.2128  0.1904 -0.1521
17285W        W36819   7.683   3.466   1.480  0.0863 -0.0674  0.1639
17286W        W36820  15.486   1.877   2.691  0.0452 -0.0665 -0.1470
17287W        W36821  10.524  15.752   1.201  0.1575 -0.0060  0.1056
17288W        W36822   0.346  11.856  13.598  0.1745 -0.0075 -0.0213
17289W        W36823  13.928  10.812  14.226  0.0359  0.2151  0.0627
17290W        W36824   6.055   4.121   4.299 -0.0711  0.0202 -0.1591
17291W        W36825   3.915   5.921   2.133 -0.2151  0.0134  0.0217
17292W        W36826   0.451  16.184  12.101  0.5916 -0.4118  0.0206
17293W        W36827  12.705   6.361  12.791 -0.1403 -0.0554  0.1860
17294W        W36828   0.722  13.990  12.510  0.0827  0.0071  0.1310
17295W        W36829  17.163  10.979  15.244  0.1761 -0.2346  0.0463
17296W        W36830  13.645  14.011   3.252  0.0876  0.0462 -0.2137
17297W        W36831   8.683   3.051   3.429 -0.0497  0.3351  0.1706
17298W        W36832  13.969   7.881  13.860  0.1944 -0.0551  0.1280
17299W        W36833  10.254  16.086   1.873  0.1586  0.0060  0.0065
17300W        W36834  12.270   6.598   1.439 -0.2064 -0.0847 -0.0465
17301W        W36835  15.285   5.609   4.349 -0.2261 -0.0770 -0.2208
17302W        W36836   7.928   1.479  12.033 -0.0448  0.1395 -0.1724
17303W        W36837  10.859   1.046  14.400  0.0824  0.3208 -0.0237
17304W        W36838   1.045  10.425  11.662  0.0082 -0.2317  0.0340
17305W        W36839   9.338   1.196  14.882  0.1639  0.2666 -0.1580
17306W        W36840   2.705  17.421   3.191  0.1291  0.1677  0.0523
17307W        W36841  11.275   2.247   3.002  0.2418 -0.2671 -0.1238
17308W        W36842   5.202   0.955  13.232  0.1917 -0.2667 -0.5642
17309W        W36843  10.862  16.522  14.188  0.0775  0.4768  0.2287
17310W        W36844  12.458  12.915  14.135 -0.4295  0.3813  0.3972
17311W        W36845  17.905   2.372   2.858 -0.1089  0.0458 -0.3380
17312W        W36846  13.339  11.399   2.568 -0.0262  0.0756 -0.0314
17313W        W36847  16.534  15.468   3.870  0.2069 -0.0463 -0.0536
17314W        W36848   0.826   7.375   4.125  0.0591 -0.0291 -0.0093
17315W        W36849   5.634  14.123   4.903 -0.0739  0.1309  0.2326
17316W        W36850   9.223   3.245   4.918  0.3236 -0.1402  0.1281
17317W        W36851  17.464  14.382   0.999  0.4127  0.0511  0.0962
17318W        W36852  10.322  17.474  12.998  0.2313  0.0200  0.0020
17319W        W36853   6.065  17.639   2.034  0.2289 -0.2557  0.1626
17320W        W36854   9.168   5.766  13.027 -0.0113  0.0190  0.1979
17321W        W36855   7.803   3.983  12.178 -0.0165 -0.0956  0.1511
17322W        W36856   9.624   0.295   1.362  0.0444  0.0240  0.0389
17323W        W36857  17.296   4.084   2.261 -0.5186  0.0698  0.1755
17324W        W36858   2.308   8.561  12.091 -0.0813 -0.1810 -0.0055
17325W        W36859  13.230  13.678   0.282  0.1102 -0.1709  0.3045
17326W        W36860  17.723  10.595   0.617 -0.2325 -0.0506  0.2414
17327W        W36861  16.873   5.677   0.153  0.0046  0.1701  0.1476
17328W        W36862   7.523  12.109  10.091 -0.2054 -0.0373 -0.0388
17329W        W36863   1.237  10.285  14.231 -0.0073 -0.0121  0.2654
17330W        W36864  17.702  12.197  15.640 -0.0556 -0.1726  0.4490
17331W        W36865   8.359   6.182   2.000 -0.1133  0.0925 -0.0829
17332W        W36866  16.343  10.707  14.926  0.1055 -0.2606 -0.3582
17333W        W36867   1.210  16.106   0.938  0.1155  0.0422 -0.0668
17334W        W36868   9.343   0.926   4.756  0.4072  0.0260 -0.0574
17335W        W36869   3.907  15.794  12.192 -0.1653  0.1882  0.0794
17336W        W36870  13.598   7.365   3.027  0.1313 -0.0531 -0.0431
17337W        W36871  15.829   1.071   1.745  0.3301  0.1500 -0.0259
17338W        W36872   0.628  18.115  12.019  0.0313  0.0404  0.0224
17339W        W36873   2.853   8.465  12.049  0.1612 -0.1165 -0.0251
17340W        W36874   6.561  15.570  13.792  0.1471  0.1957  0.2354
17341W        W36875  13.150  13.138  12.971 -0.2623  0.0074  0.3090
17342W        W36876   5.174  11.512  12.395 -0.0333 -0.0566 -0.0551
17343W        W36877  15.584   9.715   9.948  0.0791 -0.1291  0.0256
17344W        W36878   9.318  17.470   1.947 -0.3372  0.1265 -0.1115
17345W        W36879   8.574  14.019  12.496  0.1919 -0.0217  0.1903
17346W        W36880   9.254   2.843  14.498  0.2540 -0.1638  0.1163
17347W        W36881  10.717   8.373  15.544 -0.0127 -0.0517  0.1302
17348W        W36882  12.470   5.854   3.799 -0.1778 -0.0666  0.0563
17349W        W36883   9.981   4.926   4.793 -0.0560  0.5773  0.2604
17350W        W36884   7.760   1.730  15.315  0.1709 -0.1956 -0.0211
17351W        W36885   0.151   4.838  10.648  0.2768 -0.0304 -0.1665
17352W        W36886   3.345  15.676   1.327 -0.2062  0.1342 -0.0553
17353W        W36887   9.261   5.740  14.982 -0.0062  0.2624  0.3253
17354W        W36888   9.381  12.876   0.114  0.1236 -0.0348 -0.0365
17355W        W36889   8.639   4.147  11.983 -0.0244  0.2669 -0.0978
17356W        W36890  12.219   0.728   0.374  0.0620 -0.2322  0.5239
17357W        W36891  12.095   9.739  15.567  0.2790  0.0008  0.1632
17358W        W36892   1.403  13.130  14.284 -0.2473 -0.0754 -0.2985
17359W        W36893  18.166   1.607  14.803  0.1898  0.1377  0.1004
17360W        W36894   3.791  15.800   1.674 -0.0267 -0.1065 -0.3553
17361W        W36895   5.033  15.441   4.709  0.0218  0.5242  0.0332
17362W        W36896  17.225  14.203  13.174 -0.0587 -0.4184  0.1797
17363W        W36897   7.707   9.870   3.755  0.1485  0.2248  0.2797
17364W        W36898  11.692  15.372  11.550  0.3558  0.3538  0.0795
17365W        W36899  15.687   0.469   0.867 -0.0434 -0.1676  0.0752
17366W        W36900   8.587   0.056   0.098 -0.2834  0.0325  0.1691
17367W        W36901  17.780   3.959  15.013  0.0745 -0.0820  0.1277
17368W        W36902  18.095  18.389  10.443 -0.1343  0.0196 -0.1624
17369W        W36903   5.829  12.452  13.866 -0.0657  0.0122 -0.5029
17370W        W36904   1.903   4.433  12.161 -0.2838  0.0020 -0.1612
17371W        W36905   3.931  18.287   2.990  0.2282 -0.0457  0.0412
17372W        W36906   4.120  12.831  13.612 -0.0308  0.0465 -0.2692
17373W        W36907   7.248   3.335   5.995  0.1289  0.4118  0.1747
17374W        W36908   6.292  17.655  11.784 -0.0844  0.1102 -0.3404
17375W        W36909  11.804   6.144   1.322 -0.1087  0.5049  0.2356
17376W        W36910   3.450   9.451   3.353  0.2537 -0.3639 -0.2236
17377W        W36911  15.387  11.469  10.009  0.3904  0.0949 -0.0998
17378W        W36912  15.312   1.003  11.388 -0.3140  0.1374 -0.1117
17379W        W36913  11.542  10.228   0.360  0.0268 -0.2463  0.2474
17380W        W36914  14.433  11.115   3.786  0.1863  0.1538 -0.0192
17381W        W36915  16.574   9.372   3.690  0.1011 -0.0021 -0.1356
17382W        W36916  11.338  11.546   1.041 -0.0471  0.0153  0.0553
17383W        W36917   3.280  10.113   1.816 -0.2217  0.0957 -0.3921
17384W        W36918   7.992  15.198   3.425 -0.0176 -0.0180  0.4087
17385W        W36919  15.046   6.043   3.664 -0.3169  0.2726  0.2712
17386W        W36920   3.391   2.143   5.099 -0.0067 -0.0316 -0.2082
17387W        W36921   2.016   6.556   0.528  0.1966  0.0947  0.0157
17388W        W36922   1.536  18.362   0.292 -0.1112 -0.0129  0.3373
17389W        W36923  10.582   5.330  15.514 -0.0295 -0.0306 -0.1389
17390W        W36924  11.637  12.218   4.367  0.3256 -0.0029  0.0881
17391W        W36925   9.991   4.528   2.358  0.0097 -0.1213 -0.4533
17392W        W36926   8.213   5.105  12.849 -0.2696 -0.1351  0.2063
17393W        W36927   2.235  14.955   3.418  0.0774 -0.1127 -0.1220
17394W        W36928   6.835   0.322   2.661 -0.0300 -0.0482 -0.4520
17395W        W36929   9.430   4.603  15.711  0.1952 -0.1223 -0.1533
17396W        W36930   4.784  11.338  11.931  0.2855  0.1419  0.2983
17397W        W36931  17.598  12.274   1.227  0.0163  0.0139 -0.2024
17398W        W36932   6.551  10.280   3.693 -0.0623  0.1175 -0.1396
17399W        W36933   0.664   9.575  15.389 -0.1254 -0.2644  0.1009
17400W        W36934  16.443   2.815   3.590 -0.1484  0.4044  0.1123
17401W        W36935   2.273  10.017  12.006  0.3053 -0.0753  0.0007
17402W        W36936  15.422  15.918   3.894  0.2397  0.0596  0.1591
17403W        W36937  17.570   6.561  12.483 -0.0848  0.1080 -0.0795
17404W        W36938   8.359   5.762   2.452  0.0676  0.1451 -0.0501
17405W        W36939  15.874   1.968   3.563 -0.2133  0.0056 -0.1056
17406W        W36940  12.268   8.337   0.758  0.1326  0.1305  0.0681
17407W        W36941   4.670  11.841  11.602 -0.1878 -0.0976 -0.1106
17408W        W36942  11.372  17.631   4.376  0.0136  0.1346  0.1069
17409W        W36943   1.199  16.370  12.936  0.0864  0.0966  0.3603
17410W        W36944   2.193   4.728   1.752 -0.0287 -0.0545  0.0260
17411W        W36945  12.066  13.704  12.039 -0.2576 -0.3015  0.0831
17412W        W36946   4.450   6.898  14.193  0.1948  0.0294  0.2463
17413W        W36947  18.203  13.871   4.187 -0.0341  0.3270 -0.0044
17414W        W36948   1.446   4.938  13.019  0.0630  0.1489 -0.0410
17415W        W36949  13.467   1.207   4.328 -0.1247 -0.2258 -0.0054
17416W        W36950  10.073   9.020  15.576  0.0729 -0.0369  0.2401
17417W        W36951  14.196   8.597  12.055 -0.1854  0.1989 -0.2732
17418W        W36952  14.902   1.635  14.784  0.1911 -0.2253 -0.0696
17419W        W36953  13.747   6.864   1.346 -0.0315  0.1044  0.2700
17420W        W36954   3.331   1.253  11.325  0.1315  0.3319 -0.3269
17421W        W36955  15.885  15.500   4.453 -0.0448 -0.1142 -0.1815
17422W        W36956   6.354   1.612   2.826  0.0711 -0.0422 -0.3052
17423W        W36957  11.134  14.667  13.883  0.0587 -0.2335 -0.2384
17424W        W36958  15.508   2.383  11.824  0.1660  0.1166 -0.1013
17425W        W36959  16.022  11.611  14.628  0.1426 -0.0177  0.1592
17426W        W36960   3.463  18.115  14.131 -0.3108  0.1369  0.2478
17427W        W36961  16.779  14.631   1.446  0.0342  0.0116 -0.0564
17428W        W36962   4.622  15.132   4.450  0.2240 -0.1361  0.4554
17429W        W36963   4.184   9.714   2.690  0.0848 -0.0525 -0.1155
17430W        W36964  18.262  13.966   2.744  0.0147 -0.1843  0.0457
17431W        W36965   0.397   0.685   3.963 -0.0100  0.2099  0.4604
17432W        W36966  14.870  14.999  14.581 -0.4559 -0.1735  0.1120
17433W        W36967   5.720  16.647   2.885 -0.0665  0.0129 -0.0088
17434W        W36968  10.939  14.868  12.874  0.0157 -0.0213  0.0334
17435W        W36969   5.693  14.852   0.861 -0.0208  0.0495 -0.2195
17436W        W36970   2.825  15.840   4.320 -0.1418  0.1121 -0.4016
17437W        W36971  14.382  17.264  15.739 -0.1723  0.1126  0.0682
17438W        W36972  15.093  15.224  10.205  0.0190  0.2704 -0.1335
17439W        W36973  10.884   9.422  13.445  0.1305  0.1946 -0.3854
17440W        W36974  10.372   9.978  12.961 -0.1130  0.1752  0.2094
17441W        W36975  14.699  16.606   2.272 -0.1761  0.1382 -0.0979
17442W        W36976   0.571  15.185   1.640  0.3447 -0.2738  0.3361
17443W        W36977  17.095   0.252  15.416  0.1161 -0.0136  0.0980
17444W        W36978  18.256   2.781   0.949 -0.1418 -0.1071  0.0078
17445W        W36979   5.548   9.565   4.258  0.1608 -0.1368 -0.0406
17446W        W36980  17.069   0.685  11.559 -0.1964  0.1492 -0.3066
17447W        W36981   6.758  11.991  13.746  0.1540 -0.1586 -0.1756
17448W        W36982   9.855   0.797  13.663 -0.2993  0.2491 -0.0437
17449W        W36983   5.135   3.922  10.300  0.4770  0.0495 -0.0914
17450W        W36984   2.595   2.229   0.219  0.0309 -0.1075  0.1877
17451W        W36985   6.778   5.091   0.917  0.1330  0.3370 -0.1301
17452W        W36986  10.621  18.053   0.608 -0.2258  0.4735 -0.1281
17453W        W36987   9.876  17.531   4.202 -0.4022 -0.2886  0.0603
17454W        W36988  10.684  16.715  12.227  0.0729 -0.4142  0.0818
17455W        W36989   6.012  12.174   3.382 -0.2634 -0.1342 -0.2201
17456W        W36990   9.754  16.113  14.796  0.1599  0.0101  0.1933
17457W        W36991  14.350   1.133   1.918  0.1552  0.0496 -0.0733
17458W        W36992  14.356   5.600   4.192  0.0950  0.0632  0.1449
17459W        W36993  14.860  11.565  14.864  0.1746  0.1401 -0.0796
17460W        W36994  13.510   3.784   2.995  0.2682  0.1430  0.1686
17461W        W36995   1.836   1.872   4.124  0.0293  0.1935  0.0333
17462W        W36996   7.268   2.613  11.874 -0.0150 -0.0001 -0.0452
17463W        W36997  16.959   2.630   4.264 -0.0638 -0.1562 -0.3804
17464W        W36998  14.571  10.422   1.484 -0.0711 -0.0266 -0.3573
17465W        W36999   0.907  15.908  14.521 -0.0495  0.2990 -0.0126
17466W        W37000  16.630  10.044  14.316  0.1299 -0.0889 -0.2463
17467W        W37001  13.956   1.047  15.447 -0.1081 -0.0527  0.2845
17468W        W37002   1.226   6.242  12.823  0.2372  0.1296 -0.3997
17469W        W37003  17.178   8.825  11.701 -0.1634  0.0154 -0.0759
17470W        W37004   5.735  17.157   1.368 -0.2906 -0.0199  0.1011
17471W        W37005  18.324   0.766   0.744 -0.1901 -0.1292 -0.1519
17472W        W37006  13.089  10.800  14.530 -0.2759  0.1556 -0.1956
17473W        W37007  15.075  14.278  14.703  0.1463  0.2089 -0.0277
17474W        W37008   9.221   8.033   0.424 -0.3797 -0.0726  0.2952
17475W        W37009   4.276  18.327  12.176 -0.1487  0.0794  0.0370
17476W        W37010   5.527  16.779   4.597 -0.1456  0.1809  0.2108
17477W        W37011   6.190   2.765   5.056  0.1488  0.1951 -0.1196
17478W        W37012   1.863  13.261  13.619  0.0622 -0.0220 -0.0146
17479W        W37013   9.193   2.980  15.522 -0.0915  0.0897 -0.0522
17480W        W37014  18.016  10.894   3.148  0.3721 -0.2397 -0.0547
17481W        W37015   3.158  15.282   1.040  0.0922 -0.1641 -0.0355
17482W        W37016  10.459  16.004   2.328  0.0090  0.1465  0.0574
17483W        W37017  10.605  18.107  14.265  0.1873 -0.0520  0.1394
17484W        W37018  11.834   4.262  14.724  0.0906  0.2989  0.3928
17485W        W37019  16.238   1.073   2.563  0.3270  0.2926  0.3411
17486W        W37020   1.550   6.698   2.672 -0.1469 -0.0793 -0.0874
17487W        W37021   1.264   9.175   0.231  0.1485  0.3641  0.0559
17488W        W37022   3.345   5.299  12.297  0.0343  0.0502 -0.1227
17489W        W37023  10.677  11.451  14.283  0.2717  0.1605 -0.4386
17490W        W37024  12.942  14.689  15.768  0.3007  0.0994  0.2428
17491W        W37025  17.626   9.609   4.538 -0.3499  0.0294  0.0597
17492W        W37026  13.155  16.032  11.364  0.1639  0.0031 -0.0880
17493W        W37027   2.868   2.775  12.114  0.2707 -0.1164 -0.2031
17494W        W37028   0.310   0.447   2.535 -0.1095  0.2606 -0.1507
17495W        W37029  10.556   6.111   2.299 -0.3343  0.0329 -0.1389
17496W        W37030   8.624   2.692  15.061  0.0994  0.2303  0.1163
17497W        W37031   6.736   6.448  15.816  0.1340 -0.1342  0.2961
17498W        W37032  15.909  10.540  11.177 -0.0375 -0.2432  0.1807
17499W        W37033   2.718   7.836   3.546 -0.0861  0.0655 -0.2861
17500W        W37034  13.319   8.923   0.384  0.1793  0.1365  0.1090
17501W        W37035  17.800   5.083  11.986 -0.0427 -0.1217  0.1891
17502W        W37036  17.475  16.104   0.222  0.0864  0.2973 -0.1056
17503W        W37037   1.304   8.238   4.569  0.0814  0.1640 -0.2708
17504W        W37038  16.009  16.135   1.747  0.0381 -0.2713  0.0691
17505W        W37039  17.169  13.617  15.809  0.3479 -0.2579 -0.0446
17506W        W37040   2.885  13.586  12.513 -0.2087  0.1005 -0.1003
17507W        W37041  10.112  10.732  11.590  0.0305 -0.1966 -0.2212
17508W        W37042   0.168  17.238   5.035  0.0529  0.0540  0.0732
17509W        W37043  14.185  13.501  14.750 -0.0435  0.1640  0.2079
17510W        W37044   7.280   2.976  11.073  0.1629 -0.0938 -0.1240
17511W        W37045   8.347   2.692  13.505  0.1250 -0.1540 -0.0457
17512W        W37046   5.006   1.919   1.268  0.3132 -0.0348  0.3959
17513W        W37047  14.861  18.072  15.340 -0.0986  0.1902 -0.1966
17514W        W37048   8.795  11.731  14.510  0.2339  0.0923 -0.1379
17515W        W37049   7.727   7.295   0.189  0.1814 -0.1023  0.1069
17516W        W37050  16.079  10.708  14.170  0.0181 -0.2262  0.0394
17517W        W37051   3.434  16.188   0.430  0.0978 -0.1362  0.2432
17518W        W37052  11.751  15.874   3.381 -0.1266 -0.2185  0.0124
17519W        W37053   4.352  16.235   0.620  0.0201 -0.1176  0.3597
17520W        W37054   4.450  10.304  14.172 -0.0136 -0.0501  0.0185
17521W        W37055   4.680  13.338   1.357  0.1044  0.0967  0.2363
17522W        W37056  13.082   0.277   1.716  0.2783  0.0382  0.0020
17523W        W37057  14.561  17.603   3.366 -0.1258  0.2046  0.0355
17524W        W37058  12.272  16.374  15.173 -0.0590 -0.0186 -0.1511
17525W        W37059  14.162  13.721   1.656  0.0881 -0.1839 -0.1494
17526W        W37060   2.773  17.226  15.080  0.2667 -0.0976  0.0976
17527W        W37061   8.970   7.743   4.573 -0.0823 -0.5010 -0.4061
17528W        W37062   2.905  10.384   2.441  0.0312 -0.1455 -0.2220
17529W        W37063   2.652   4.039   3.878  0.0743  0.0473 -0.0909
17530W        W37064  14.294   3.628   1.636 -0.1483  0.1000 -0.1820
17531W        W37065   3.526  17.526   3.824  0.1835 -0.0610  0.0631
17532W        W37066   0.687   9.789   2.833  0.2855  0.1569 -0.0254
17533W        W37067  12.042  15.535   4.715  0.2149 -0.0546  0.0278
17534W        W37068  17.304  13.930  11.893 -0.1063 -0.0427  0.1568
17535W        W37069   7.026  12.441  13.051  0.1528 -0.1328  0.0248
17536W        W37070   2.978   4.400   1.380  0.4623  0.1094  0.1248
17537W        W37071  18.206  15.530  11.891 -0.0404  0.3099 -0.2322
17538W        W37072   5.919  16.640   2.409  0.1177 -0.1890  0.2574
17539W        W37073  16.851   7.278  12.765 -0.1840 -0.2467  0.0944
17540W        W37074   5.842   4.540  10.299 -0.1818 -0.0826  0.1379
17541W        W37075   0.464  12.879   1.357 -0.0530 -0.0062  0.0807
17542W        W37076   6.241  17.074   4.260  0.0376 -0.2738  0.2351
17543W        W37077   8.281   4.821  14.169  0.1098  0.0604  0.0954
17544W        W37078   8.344   6.758  15.488 -0.0065  0.1862 -0.1172
17545W        W37079  12.282   5.314  15.508 -0.0603  0.4368 -0.3015
17546W        W37080  10.080   8.002  12.062  0.4408  0.0917  0.4454
17547W        W37081  12.615   2.495  14.420  0.2104 -0.2200 -0.0899
17548W        W37082  18.020   2.044   3.566 -0.0855 -0.0165  0.2314
17549W        W37083   9.684  16.869  12.271  0.0730 -0.4006  0.1517
17550W        W37084  16.987   4.158  13.617  0.0255 -0.0288 -0.0223
17551W        W37085  16.346  18.388  12.429 -0.1459 -0.1833 -0.3453
17552W        W37086  14.896  11.308   0.675 -0.2268  0.1453 -0.0288
17553W        W37087  15.804  12.864   3.089 -0.0629 -0.0963  0.0871
17554W        W37088  13.164  10.092   3.617  0.0212  0.2864  0.0503
17555W        W37089  16.490  14.033   3.543 -0.3125  0.0751 -0.0179
17556W        W37090  12.331  15.486   6.246  0.0405  0.0279 -0.1189
17557W        W37091  11.681   6.709   2.280 -0.0625  0.0892 -0.0014
17558W        W37092   7.869  11.058  12.457  0.0411  0.0455 -0.0800
17559W        W37093  18.183  18.389   1.820 -0.1106 -0.1734  0.0887
17560W        W37094   4.863   7.385   3.010 -0.4031 -0.0766  0.1378
17561W        W37095   1.117   1.195   2.668 -0.0987 -0.2832 -0.0149
17562W        W37096  13.111  10.975  14.077  0.0703 -0.1064 -0.2134
17563W        W37097   5.035  12.957   1.373 -0.2393  0.2505 -0.1497
17564W        W37098  11.586  16.631   1.544 -0.1347  0.0705 -0.0376
17565W        W37099  12.734  12.178   2.231 -0.1964  0.0133  0.0891
17566W        W37100  10.552   8.817  15.818 -0.1516  0.1236 -0.0632
17567W        W37101  13.727   1.918   1.501  0.1868 -0.1681  0.1534
17568W        W37102   5.389  10.010  13.860 -0.2998  0.2392 -0.0497
17569W        W37103  16.937  16.425   2.911  0.4961  0.1524  0.3069
17570W        W37104  13.231   4.063   3.293  0.2289  0.1200 -0.0402
17571W        W37105   3.506  14.738   2.945 -0.0856 -0.3592 -0.1838
17572W        W37106  13.668   5.380  13.382  0.0195 -0.1381  0.0218
17573W        W37107  12.770  12.800   0.842  0.0340 -0.0901 -0.0879
17574W        W37108  14.256   4.936   1.189  0.1889 -0.1402 -0.0907
17575W        W37109   4.769   5.010  12.527 -0.1589  0.1352  0.2043
17576W        W37110   1.674  12.921  14.674  0.3112  0.3084  0.2057
17577W        W37111  15.974  13.174  14.217  0.1361  0.0460  0.1858
17578W        W37112  17.735  15.951  14.847 -0.2278  0.0828  0.3606
17579W        W37113  14.082   2.386  12.681 -0.1961 -0.0072 -0.0965
17580W        W37114  12.480  14.922   4.006 -0.1096  0.0020 -0.3340
17581W        W37115  13.165   5.460  15.557 -0.0193 -0.1156 -0.1989
17582W        W37116  14.658  14.767  14.046 -0.1668  0.2361 -0.0286
17583W        W37117   1.831   8.487  12.336 -0.1400  0.1895  0.1337
17584W        W37118  10.355   4.462   3.549 -0.2116 -0.3621 -0.1486
17585W        W37119   7.911  14.353   3.757 -0.0708  0.2825 -0.1816
17586W        W37120   3.305   9.755  11.118  0.1964 -0.2727  0.0170
17587W        W37121  15.602   6.115  11.884 -0.0858  0.1106 -0.2436
17588W        W37122  15.434  13.050  15.614  0.1340 -0.0544 -0.1768
17589W        W37123  14.274   5.792  11.100 -0.0925 -0.0487  0.0646
17590W        W37124  16.680   5.221  14.354 -0.0515 -0.0345  0.1162
17591W        W37125   8.518   8.977  15.234  0.0883  0.2150  0.0723
17592W        W37126  10.694  10.493  15.725 -0.1543 -0.2021  0.3448
17593W        W37127  17.289  13.131   1.699  0.2939 -0.3184  0.2119
17594W        W37128  17.259  12.303   2.055  0.2238 -0.4043 -0.0529
17595W        W37129   8.070  16.253  11.655 -0.0085 -0.3081  0.1421
17596W        W37130   9.369   5.371  12.248  0.1656 -0.0325 -0.2115
17597W        W37131   0.093  15.348   4.168  0.0294  0.0075  0.2162
17598W        W37132   0.967   7.157   2.391  0.2128  0.0619  0.0612
17599W        W37133   4.115   8.865   1.025 -0.0046 -0.1167 -0.2213
17600W        W37134   5.243  16.992  12.199 -0.0957 -0.1989 -0.2298
17601W        W37135  15.140  18.245  13.723  0.0652  0.0167  0.1234
17602W        W37136  13.171   2.743   4.571 -0.0625 -0.0803  0.0500
17603W        W37137   0.803   9.466  12.556  0.3832 -0.0108  0.1285
17604W        W37138   8.359   0.829  12.082 -0.2147  0.1638  0.1497
17605W        W37139   9.419   2.925   3.969  0.0248 -0.1643  0.2907
17606W        W37140  14.648  13.002   4.516 -0.0581 -0.1632  0.1329
17607W        W37141   4.623   5.871   2.209  0.0316 -0.0484 -0.2350
17608W        W37142  15.386  13.907  14.638 -0.0198 -0.2144 -0.1204
17609W        W37143  13.161  14.666   2.723  0.0175  0.1595 -0.0749
17610W        W37144   1.301  18.220  14.676  0.3246  0.1661  0.1124
17611W        W37145   5.068   1.548   0.161 -0.0159 -0.0297  0.1378
17612W        W37146  15.150   6.307   2.722  0.2908 -0.0409  0.0842
17613W        W37147  11.841   7.379  12.448 -0.1461  0.1637  0.2009
17614W        W37148   0.624   3.890   2.082  0.0546  0.2816  0.2078
17615W        W37149   8.137  17.346   1.006  0.0416  0.0276  0.2523
17616W        W37150   7.741  17.152  12.100 -0.2021  0.2891  0.3513
17617W        W37151   6.441   4.909   0.601 -0.0698  0.3050  0.1723
17618W        W37152   7.273   6.573  13.871  0.0502 -0.0067  0.1373
17619W        W37153   8.257   8.791   4.608  0.2306 -0.0218  0.0460
17620W        W37154   1.942  14.394   3.204  0.0214  0.2528  0.1022
17621W        W37155  13.232   0.045  13.534  0.2243 -0.2124  0.3423
17622W        W37156  16.744  11.265  13.583 -0.1608 -0.3932 -0.1259
17623W        W37157   3.739   3.232   4.421  0.2509  0.1110  0.1316
17624W        W37158   1.773  12.658   4.361 -0.1343  0.2127 -0.2770
17625W        W37159   9.884   4.210   2.717 -0.0906  0.0003 -0.0556
17626W        W37160   7.561   7.993   0.964 -0.2364  0.0564  0.0484
17627W        W37161  15.501  17.038   1.598 -0.1792  0.0200 -0.3393
17628W        W37162   5.518  17.028   2.612  0.0974  0.1939 -0.2039
17629W        W37163   8.892  10.566   1.154 -0.1770 -0.1219  0.1481
17630W        W37164  13.506   3.937  10.126 -0.2957  0.6617  0.3726
17631W        W37165   5.011   6.331   4.267 -0.0515  0.0111 -0.3639
17632W        W37166   6.061  10.523  14.586 -0.0818  0.0416 -0.1440
17633W        W37167   1.634   7.250  15.235  0.1055  0.2921 -0.0249
17634W        W37168  15.903   0.076  13.136  0.0971  0.0035  0.0685
17635W        W37169   8.774  16.081   0.846  0.0260 -0.1939 -0.0534
17636W        W37170  13.367   2.255   3.505 -0.2492 -0.2381 -0.0425
17637W        W37171  13.384   1.178   0.462 -0.0019 -0.2846 -0.0009
17638W        W37172  10.633   6.681  12.434 -0.0158 -0.0216 -0.3764
17639W        W37173   2.892  16.881   1.125  0.0015 -0.1162 -0.1098
17640W        W37174  17.543   9.936   2.207 -0.0698  0.0021 -0.1853
17641W        W37175   6.953   0.579  13.072  0.4121 -0.0669 -0.1102
17642W        W37176   3.163  15.259   2.126 -0.0160 -0.0203  0.3505
17643W        W37177  12.050  15.801   1.515  0.1095  0.2218 -0.1102
17644W        W37178  12.017  13.793  11.197 -0.1677  0.3992  0.2975
17645W        W37179   9.025  16.013  13.094 -0.1028  0.1760  0.1334
17646W        W37180   0.777  14.374  11.392  0.0617 -0.2730 -0.2856
17647W        W37181   0.112  18.274   2.665 -0.0238  0.1019 -0.1550
17648W        W37182   0.456  10.748  12.410 -0.2243 -0.0283 -0.0638
17649W        W37183   3.726  12.677   3.726 -0.2563  0.0697  0.1682
17650W        W37184  17.863   6.174   1.859 -0.1003  0.2787 -0.3945
17651W        W37185  16.455   2.293   1.569 -0.0050 -0.0783  0.1629
17652W        W37186  10.148  13.775   2.199 -0.0422 -0.2174 -0.1300
17653W        W37187   7.329  15.356   1.531  0.1131  0.1140 -0.1526
17654W        W37188  13.811   4.396  11.157  0.3327  0.0863 -0.0994
17655W        W37189  14.057  13.224   1.510 -0.1282  0.4500  0.0402
17656W        W37190  18.030   1.005   1.546  0.1319  0.0781  0.2132
17657W        W37191  15.132   4.477  15.035 -0.0097 -0.0024  0.2997
17658W        W37192  17.734  16.007  13.945 -0.1834  0.3064  0.1976
17659W        W37193   8.865  12.777  11.382  0.0349  0.1808  0.0670
17660W        W37194   3.933   6.603  13.019  0.0134 -0.0241 -0.0685
17661W        W37195   7.065   7.330  15.347  0.2610  0.2203  0.1888
17662W        W37196  13.852  15.204  14.641 -0.3722 -0.0883  0.1724
17663W        W37197  16.594   4.478  12.557 -0.2692  0.1305  0.0761
17664W        W37198   3.878  16.341  14.521  0.0876 -0.1066  0.0529
17665W        W37199  10.074  13.159   1.746 -0.0525  0.0393 -0.1889
17666W        W37200  16.402  11.695  14.933  0.2235 -0.1092  0.1530
17667W        W37201   0.360  12.066  11.939 -0.1268  0.1278  0.0604
17668W        W37202  15.538  16.647   2.922  0.0519 -0.2454  0.2722
17669W        W37203   9.253  17.124   4.229  0.3277  0.0276 -0.0439
17670W        W37204  17.237   2.505  12.178 -0.2912 -0.0003  0.2349
17671W        W37205  17.442  14.028   0.530 -0.0108  0.1207 -0.0369
17672W        W37206   0.295   8.842   0.784 -0.4026  0.1083  0.0879
17673W        W37207  13.767   7.668  12.341 -0.0373  0.1036 -0.0706
17674W        W37208  18.269  13.217  13.545 -0.0814  0.1768  0.2873
17675W        W37209  13.736   1.533   0.573  0.2827  0.0880 -0.2388
17676W        W37210  15.741  12.040   2.408  0.0680  0.0671 -0.0357
17677W        W37211   0.005   5.850   2.407  0.0739  0.4333 -0.0228
17678W        W37212   6.976  15.335   1.069 -0.0972 -0.2850 -0.1275
17679W        W37213  12.127   4.367   2.427 -0.2134  0.1278  0.1516
17680W        W37214   7.574  11.136  13.731  0.2625 -0.2550  0.0229
17681W        W37215  16.221   4.602   0.486  0.2103 -0.1220 -0.0074
17682W        W37216  11.469   8.760   4.359 -0.1656 -0.1004  0.1095
17683W        W37217   1.054  17.811  13.933 -0.2948 -0.2493 -0.0757
17684W        W37218  12.433  17.279  14.729 -0.1053 -0.2305 -0.2366
17685W        W37219   8.117   1.679   3.259 -0.2264  0.0999  0.0947
17686W        W37220   3.168  10.777  12.957 -0.1840 -0.0275 -0.0506
17687W        W37221  10.663  17.111   3.003 -0.2133  0.0656  0.0581
17688W        W37222   6.572   8.251   2.248 -0.1569 -0.2598 -0.1531
17689W        W37223  17.746   7.630  13.619 -0.1950 -0.0025  0.2975
17690W        W37224  14.195  14.924   0.462  0.0762 -0.3926  0.0650
17691W        W37225   4.654   2.577   3.729  0.0632  0.1164  0.0208
17692W        W37226   3.436   2.003   3.823  0.2307 -0.1622  0.2825
17693W        W37227   6.526  14.017   4.477  0.0089 -0.0004 -0.3242
17694W        W37228   3.286   4.627   3.796  0.1370  0.1381 -0.2153
17695W        W37229  13.378  17.390   2.876 -0.0742 -0.2094  0.2479
17696W        W37230   5.934   5.041  12.075 -0.0170 -0.1575  0.1827
17697W        W37231  11.558  12.534  14.131 -0.0907  0.2497  0.1588
17698W        W37232   9.097   4.466   0.308 -0.0911 -0.2995 -0.1255
17699W        W37233   5.364  10.032   0.643  0.1452 -0.0242  0.1606
17700W        W37234  15.617  13.666  12.372 -0.1971  0.1158 -0.2786
17701W        W37235  16.009  15.573   0.994 -0.3358  0.1917 -0.0262
17702W        W37236  18.006   9.319  13.232  0.0114  0.3121  0.1606
17703W        W37237   1.691   2.181   0.297 -0.4256  0.2012 -0.2606
17704W        W37238  12.120   1.721   2.565  0.0620  0.0319  0.1092
17705W        W37239   6.750   3.316  13.165 -0.3189  0.0157  0.0435
17706W        W37240   0.248  11.536   2.235 -0.0308 -0.0164  0.0527
17707W        W37241  15.047   8.643   3.751  0.1579 -0.1352  0.0034
17708W        W37242  14.823  17.988  14.555 -0.1573 -0.0337 -0.3515
17709W        W37243  11.230  15.963  14.002  0.0134 -0.0498  0.0237
17710W        W37244   7.699   1.188  11.319  0.0886  0.2661  0.1869
17711W        W37245  10.352  15.055   1.568 -0.0371 -0.2502  0.2002
17712W        W37246   3.811  15.532  10.985 -0.1733 -0.1582 -0.3023
17713W        W37247   8.022  13.124  12.223 -0.1930  0.2222  0.1950
17714W        W37248  14.173   4.346  13.775  0.2571  0.2986  0.2962
17715W        W37249  16.304   8.381  13.834 -0.2597 -0.3681  0.0729
17716W        W37250   0.867   0.874   3.858  0.4213  0.2117 -0.4073
17717W        W37251   5.594  18.126   1.007 -0.0047 -0.2885  0.0434
17718W        W37252   3.594  10.601  12.252 -0.0110  0.0103  0.1244
17719W        W37253  15.597  13.595  15.467  0.0967 -0.0467 -0.3160
17720W        W37254   5.661  15.406   2.894 -0.1993  0.4278 -0.2086
17721W        W37255  17.742  18.257   2.630 -0.1193  0.1505  0.1264
17722W        W37256   7.475   4.925  12.204 -0.0842  0.1515 -0.0563
17723W        W37257   1.503  13.880  13.081  0.1492 -0.1543  0.0242
17724W        W37258   2.636  14.056   3.767  0.2251 -0.0915  0.0351
17725W        W37259   6.572   6.058   1.774 -0.1484  0.2400 -0.1348
17726W        W37260   2.984  11.719  11.977 -0.1500  0.2216 -0.2851
17727W        W37261   0.090   3.942   3.261 -0.2506  0.1395  0.0200
17728W        W37262   5.733  16.631  13.328  0.1040 -0.1476 -0.0019
17729W        W37263  12.213   0.747  14.861 -0.1360 -0.1691  0.0485
17730W        W37264  15.151   5.800  15.327  0.0729  0.0592  0.1013
17731W        W37265  12.648   1.670   0.542  0.1184  0.0662  0.0409
17732W        W37266  10.102  10.078  13.495 -0.2938 -0.1699  0.0569
17733W        W37267  18.037  11.735   3.000  0.3294 -0.0012  0.1815
17734W        W37268  13.323   1.152   3.798  0.0230 -0.2585  0.0994
17735W        W37269  16.692  11.717  15.367 -0.0341  0.2761 -0.1945
17736W        W37270   1.442   1.071  15.490  0.0618 -0.0399 -0.0821
17737W        W37271   5.388   9.714   0.269  0.1933 -0.2267  0.2066
17738W        W37272   1.572   2.286   5.205  0.0797 -0.1708  0.0694
17739W        W37273  13.824   0.623  13.674 -0.4511 -0.0136  0.0990
17740W        W37274  11.644   0.962   2.273  0.0161 -0.0447 -0.0539
17741W        W37275  15.945   3.745  13.834 -0.2205  0.1337  0.0362
17742W        W37276  17.891  14.633   1.609 -0.1649 -0.1827 -0.0210
17743W        W37277   0.901   9.942   1.192  0.0506  0.1381  0.0173
17744W        W37278   0.014   0.334  14.320 -0.1840 -0.2206 -0.0473
17745W        W37279   4.755  17.640   3.061 -0.3018  0.0310 -0.1806
17746W        W37280  16.165  13.893   4.352  0.0931 -0.3341  0.1623
17747W        W37281  14.582  12.449  12.700 -0.0187  0.0056  0.1131
17748W        W37282   5.585  12.776  12.154 -0.2462  0.0453 -0.2876
17749W        W37283  13.447   3.965  14.151  0.1212  0.3441 -0.1597
17750W        W37284  10.286  10.262  11.539 -0.2102  0.1636 -0.1481
17751W        W37285   3.009  17.261  11.849 -0.3877 -0.0604  0.0286
17752W        W37286   3.856  15.228  15.395  0.1967  0.3035 -0.0294
17753W        W37287  15.044   9.962  13.761 -0.1412  0.0800 -0.0460
17754W        W37288  11.049  16.412   1.555  0.3269 -0.0608 -0.1710
17755W        W37289   1.100  13.377   5.180 -0.1011  0.2808  0.0568
17756W        W37290   9.463   6.974  12.465  0.0027 -0.1357  0.2178
17757W        W37291   0.637  12.082  15.068 -0.0885  0.2778  0.1198
17758W        W37292   2.572   2.749  13.020 -0.0549 -0.1293 -0.2596
17759W        W37293   6.709   4.847   2.331 -0.3349  0.2089  0.0970
17760W        W37294  15.490  12.342   4.272  0.1312 -0.2064 -0.1410
17761W        W37295  14.029   0.752   1.643 -0.1797  0.0761  0.1634
17762W        W37296  16.767   4.935  12.780  0.0932  0.0918  0.1362
17763W        W37297   4.382   2.955   2.431 -0.1775 -0.1477 -0.1491
17764W        W37298  15.160   4.826   2.516  0.1846 -0.1101 -0.0080
17765W        W37299   5.713   1.176  12.758  0.2152  0.1808 -0.0757
17766W        W37300  12.221   5.723   1.268 -0.0794  0.2684  0.0316
17767W        W37301   5.604   4.311   2.743  0.0728 -0.4215 -0.1766
17768W        W37302  10.996   3.594   0.148  0.1730 -0.1861 -0.0933
17769W        W37303  17.674  13.644   0.268  0.0065  0.1052 -0.0988
17770W        W37304  14.648   1.519   4.042  0.1776 -0.1659  0.1080
17771W        W37305  13.605  10.611   1.861 -0.4120 -0.0394  0.1149
17772W        W37306  14.796   0.573   4.333  0.4080  0.0243  0.1320
17773W        W37307   2.176  15.459   2.609  0.0624  0.2149  0.0809
17774W        W37308  13.318   4.552   3.559  0.1518 -0.1904  0.0298
17775W        W37309  13.614   8.123   3.906  0.0962  0.0326  0.1213
17776W        W37310   3.914   6.511  14.937  0.1653 -0.0613  0.2781
17777W        W37311   2.168   9.389  10.855 -0.0863 -0.1584 -0.1320
17778W        W37312   1.513  14.622   1.279 -0.0490 -0.1501 -0.0901
17779W        W37313   1.678   6.543  14.014 -0.0303  0.1213 -0.0785
17780W        W37314   0.537   2.857  11.898 -0.1717  0.2444  0.4287
17781W        W37315   7.808   8.748   1.707 -0.2816  0.2654 -0.0010
17782W        W37316  13.925   0.545  14.178 -0.0319  0.2682  0.1544
17783W        W37317   0.631  14.245   0.537  0.3947 -0.0518 -0.3434
17784W        W37318  18.114   4.127   3.553 -0.2146 -0.0132  0.1228
17785W        W37319   5.576   4.614   3.870  0.0738 -0.2027  0.0254
17786W        W37320   3.396  17.714  12.991 -0.1679  0.1638 -0.3319
17787W        W37321   0.338   6.026   2.775  0.4043 -0.0352 -0.2972
17788W        W37322  16.609  12.720   4.377  0.1520  0.3361 -0.0454
17789W        W37323  16.928  14.802   3.453 -0.1540  0.0247  0.3206
17790W        W37324  14.189  15.556  14.379 -0.0411 -0.3182 -0.2262
17791W        W37325   6.520  14.540   2.554 -0.0192 -0.1535 -0.3351
17792W        W37326  17.113  11.769  12.995 -0.1719 -0.0507  0.1897
17793W        W37327   4.923  12.162   3.257 -0.1437 -0.0400 -0.0243
17794W        W37328  11.236   8.077  15.585  0.2849 -0.0318 -0.1251
17795W        W37329  17.012  17.008  12.337  0.1220 -0.1038 -0.1837
17796W        W37330   7.760  18.064  12.139  0.1173 -0.1866 -0.3338
17797W        W37331  16.444   0.752   1.152  0.0285 -0.4465  0.1122
17798W        W37332   5.458   7.047  15.023  0.1413 -0.1855  0.1918
17799W        W37333  14.109   6.426   4.545  0.0945  0.0334  0.2114
17800W        W37334  10.237   5.922  12.201  0.1573  0.1922  0.0773
17801W        W37335   2.139   6.082  14.532  0.1811 -0.0141  0.2353
17802W        W37336   9.182   9.783  14.267 -0.1745  0.1957 -0.0826
17803W        W37337   3.940  14.052   3.372  0.1138 -0.2074  0.1303
17804W        W37338   6.898  13.783   2.983  0.1960 -0.1185  0.0443
17805W        W37339   9.313  10.472   0.294 -0.1043 -0.0097  0.3480
17806W        W37340   9.319   3.296  13.813 -0.0060 -0.0397 -0.1457
17807W        W37341  13.374  15.958   0.046 -0.0156  0.1856  0.2852
17808W        W37342   8.495   3.256  14.155  0.1346 -0.1674  0.0668
17809W        W37343  10.044  18.326   3.772  0.3306 -0.1709 -0.0660
17810W        W37344   3.386   4.554   3.307 -0.0843  0.1545 -0.0621
17811W        W37345   9.121   3.242   0.133  0.2611  0.1721  0.0643
17812W        W37346  12.162   6.972  12.181  0.2557 -0.1532 -0.2330
17813W        W37347  15.354  10.502   2.041  0.0049 -0.2059 -0.0875
17814W        W37348  12.290   1.341   3.346 -0.1629  0.0270  0.0281
17815W        W37349  12.042  11.599   2.442  0.1432 -0.0301  0.0917
17816W        W37350   6.883  17.552   3.777  0.2461  0.2884  0.0622
17817W        W37351   2.747   8.245   0.257  0.0586  0.0815  0.0874
17818W        W37352   4.190   9.635  14.779 -0.1436 -0.0195  0.1966
17819W        W37353   3.599   5.559   1.891 -0.0494  0.0674 -0.1772
17820W        W37354   4.902   8.906  15.695  0.1751  0.0070 -0.2177
17821W        W37355  10.853   6.055   4.486  0.2588 -0.1277  0.2272
17822W        W37356   7.955   4.531   4.222  0.1566 -0.1517  0.1627
17823W        W37357   0.337   4.272   0.220  0.1821  0.2522  0.2827
17824W        W37358  12.184  15.206  11.779  0.1980 -0.0146 -0.1544
17825W        W37359   2.186   5.542   2.761 -0.0573  0.0660  0.0472
17826W        W37360   2.897   6.352  15.764  0.1787  0.2099  0.0191
17827W        W37361   1.977  16.340  13.277 -0.1390 -0.0096 -0.0133
17828W        W37362   3.680   6.889   0.709 -0.0928 -0.1107  0.2674
17829W        W37363  10.376  18.070   3.515 -0.0838  0.2115  0.1115
17830W        W37364   4.718  15.486   4.065  0.1462 -0.4050  0.1680
17831W        W37365   3.644   0.776   2.346  0.1233  0.3847 -0.0289
17832W        W37366   9.719  11.029  14.564 -0.1119  0.0821  0.0081
17833W        W37367   3.024  16.200  12.448 -0.1002 -0.1240  0.1426
17834W        W37368  11.179   1.009  12.039 -0.1279 -0.0215  0.1305
17835W        W37369   0.469  16.545  12.530 -0.0348 -0.1270 -0.1217
17836W        W37370   7.284  15.814  14.641 -0.1175 -0.0763 -0.0399
17837W        W37371  11.389   5.284  12.017 -0.0367  0.0786 -0.1121
17838W        W37372   5.580  18.056   2.668  0.2959  0.0589  0.0049
17839W        W37373   9.739   5.472   3.112  0.0182 -0.2565  0.0914
17840W        W37374  14.633   6.285   1.460 -0.1323 -0.6018 -0.1581
17841W        W37375   2.123   5.367   2.247  0.1526  0.0861  0.2315
17842W        W37376   7.400   6.293   2.460 -0.2377  0.1087  0.0276
17843W        W37377   6.836   3.653   1.563  0.0234 -0.0221 -0.4740
17844W        W37378   9.896  13.909  13.935 -0.1129 -0.0206 -0.1888
17845W        W37379  14.399   2.304  10.576  0.1026  0.0006  0.0108
17846W        W37380   0.596  13.158  13.928 -0.0448  0.0234  0.1265
17847W        W37381   6.346   8.663   1.441 -0.5454  0.3979 -0.1179
17848W        W37382   1.700  13.082   4.578 -0.0262  0.1774  0.2012
17849W        W37383   3.370   2.722  12.818  0.1597 -0.0850  0.0543
17850W        W37384  16.681  14.616   3.894  0.0868 -0.2033 -0.0099
17851W        W37385   3.777   5.791   3.156 -0.2568 -0.0448  0.4157
17852W        W37386  14.113   2.698   3.426 -0.1120 -0.3359 -0.0197
17853W        W37387   7.163   5.030  13.491 -0.0145  0.0811  0.0175
17854W        W37388  16.093   7.065   0.596  0.4011 -0.1281  0.0165
17855W        W37389  16.178   1.948   2.731 -0.5260  0.2734  0.1856
17856W        W37390  14.148   2.776   4.392 -0.1422  0.0484 -0.2546
17857W        W37391  13.037  16.556   4.103  0.0603 -0.1229 -0.0310
17858W        W37392  16.834   5.053   0.179  0.0092 -0.2756  0.0614
17859W        W37393   9.534  14.170   1.309  0.0368  0.1141  0.3274
17860W        W37394   3.710  11.143   3.026 -0.0205 -0.1461  0.0576
17861W        W37395  11.994  11.016   0.282 -0.0774  0.1250 -0.1076
17862W        W37396   4.228  18.357  15.141 -0.2287 -0.1145  0.1084
17863W        W37397   4.870   5.424   2.345 -0.1738 -0.1678 -0.1016
17864W        W37398  10.463  16.379  14.808 -0.2631  0.1419  0.1213
17865W        W37399   2.970  13.846  15.029  0.0638  0.0475  0.1688
17866W        W37400  11.597  15.357   0.916  0.1707 -0.0247 -0.0572
17867W        W37401  13.771   4.358   2.694  0.0938  0.1219  0.2223
17868W        W37402   8.114  15.443   2.116 -0.1910 -0.0101 -0.0536
17869W        W37403   5.928   3.570   2.106 -0.1985 -0.3229 -0.2043
17870W        W37404   2.029   4.042  15.420 -0.0782 -0.0036  0.0091
17871W        W37405   6.669   7.630  13.343 -0.0063 -0.0760  0.0016
17872W        W37406   1.072   7.826   3.724  0.2015 -0.0207 -0.3290
17873W        W37407   8.348  10.105   1.380  0.0742 -0.0251  0.1433
17874W        W37408   4.260   9.743  14.086  0.0182  0.1630  0.0117
17875W        W37409  10.829   2.269  13.105 -0.1617 -0.2047  0.0096
17876W        W37410   5.612   2.440   4.393 -0.0571 -0.0439 -0.0814
17877W        W37411  11.851   7.386  14.222 -0.1747 -0.0808  0.0826
17878W        W37412  11.405  11.198   0.613 -0.1093  0.2848 -0.0312
17879W        W37413   2.789   0.195  10.877  0.2093  0.1729 -0.1200
17880W        W37414  17.741   2.811   2.082  0.0254 -0.1124 -0.2596
17881W        W37415   1.289   6.970  13.057 -0.2543 -0.1164 -0.0935
17882W        W37416  16.840  13.695   3.317  0.1975 -0.1456 -0.1407
17883W        W37417   4.342   1.197   3.102 -0.1840 -0.1396 -0.0740
17884W        W37418   9.451   8.021   3.219  0.1669  0.1878  0.3370
17885W        W37419   6.771   5.987   4.155 -0.3894 -0.1124  0.0575
17886W        W37420  13.098   6.466   2.329  0.2585  0.3409 -0.0766
17887W        W37421  12.389  15.305   1.512 -0.1393  0.3157  0.2760
17888W        W37422   8.537   2.178   0.858  0.0453 -0.1057  0.2754
17889W        W37423  13.019  14.421   1.553 -0.0910  0.1456 -0.0628
17890W        W37424   1.868   1.297   0.746 -0.2798  0.0746  0.2625
17891W        W37425   0.896   6.186   2.068  0.1875  0.1926 -0.2836
17892W        W37426   7.260  13.061   2.297 -0.0499  0.2872  0.1367
17893W        W37427  13.427   5.337  13.927 -0.1981 -0.0611 -0.0619
17894W        W37428  13.368   4.889  10.654 -0.0137 -0.0425 -0.1374
17895W        W37429   8.272  13.043  14.979 -0.3036 -0.0903 -0.0377
17896W        W37430   3.678   9.910  14.951 -0.1516 -0.2130 -0.2117
17897W        W37431   9.801   5.665  12.256  0.0006 -0.3627  0.0344
17898W        W37432   2.468  11.146  14.943 -0.1081  0.2158  0.0000
17899W        W37433   6.630   5.531   4.029 -0.1038  0.1225 -0.2038
17900W        W37434   4.033  15.064   4.685  0.1756  0.0541  0.3076
17901W        W37435  11.225   0.815   1.836  0.0282  0.1048 -0.0628
17902W        W37436  16.200  14.930  15.029  0.0128 -0.0610 -0.1821
17903W        W37437  13.910   9.961  13.291 -0.1899  0.1828  0.0666
17904W        W37438  13.680   9.461  13.074 -0.0403  0.0218 -0.3665
17905W        W37439  13.609  13.577  13.978  0.1269 -0.0147  0.2673
17906W        W37440  11.698  14.212  15.487 -0.0176 -0.1916  0.0458
17907W        W37441  16.153   0.186   0.060 -0.1612 -0.0982 -0.0307
17908W        W37442   6.032  15.155   4.372 -0.3153  0.1865  0.2151
17909W        W37443   3.348  15.681  15.288  0.4136 -0.2249  0.2898
17910W        W37444   9.240   4.333  12.975 -0.0406  0.4668  0.0404
17911W        W37445  17.427   6.566  11.516  0.1554 -0.2170  0.2525
17912W        W37446   9.001  13.568   4.686 -0.0818 -0.1293  0.2224
17913W        W37447   8.295   7.555   1.306 -0.0633 -0.0065 -0.0286
17914W        W37448   0.422   2.764  13.831 -0.0781 -0.3413 -0.1722
17915W        W37449  15.228   6.341   1.371  0.1403  0.3955 -0.1067
17916W        W37450  15.293  14.004  12.119 -0.0134  0.1444 -0.2410
17917W        W37451  10.656   4.815   0.809 -0.1780  0.2020  0.2488
17918W        W37452   1.639   2.670  12.920 -0.4273  0.1042 -0.2830
17919W        W37453   8.792   4.547   2.688  0.1239 -0.2099 -0.1392
17920W        W37454   5.121  12.818  11.654 -0.1838 -0.0877  0.0203
17921W        W37455   4.619   5.573  12.567 -0.2943  0.0619  0.1553
17922W        W37456   2.471  12.763  11.842 -0.2331 -0.0379  0.0224
17923W        W37457  10.351   1.441   3.753  0.2424 -0.0054 -0.0064
17924W        W37458  14.956  13.306   2.117  0.1915  0.1153 -0.0840
17925W        W37459   9.809  15.439   1.543  0.4161 -0.2147 -0.0298
17926W        W37460  18.004   3.498  15.266 -0.0142  0.2246 -0.0097
17927W        W37461  15.492   0.219   2.787 -0.3120  0.1511  0.0171
17928W        W37462   3.092   0.755   2.149 -0.5090 -0.0362 -0.1542
17929W        W37463  17.842   2.926  15.792  0.3485  0.1258 -0.1361
17930W        W37464  15.627   4.346  13.734 -0.1141  0.1839  0.2674
17931W        W37465   2.073   4.727  14.333  0.2157  0.3247 -0.3138
17932W        W37466   2.466  17.033   1.290  0.0599 -0.0407 -0.0535
17933W        W37467  16.292   1.968  11.881 -0.1600  0.0091  0.1452
17934W        W37468  10.695   5.435  12.129  0.1370 -0.2128 -0.1486
17935W        W37469   3.246  16.546   1.322 -0.0158  0.1472 -0.1774
17936W        W37470   5.262  13.892   2.007  0.0912  0.1317 -0.1677
17937W        W37471   4.422   4.352  14.205 -0.0974 -0.0359 -0.0369
17938W        W37472   9.890   4.365  11.949 -0.2145  0.2827 -0.3647
17939W        W37473   6.547   3.239   5.004  0.2042 -0.0795 -0.0121
17940W        W37474   7.751   9.260   1.605  0.0812  0.0721 -0.0747
17941W        W37475   3.168   3.126  12.981  0.3225 -0.0285 -0.0378
17942W        W37476   3.903   0.037  13.824  0.1343  0.1433 -0.0691
17943W        W37477   8.891  16.860  15.738  0.1032 -0.0967 -0.0680
17944W        W37478  13.232  14.536  11.879 -0.2264  0.1810  0.1863
17945W        W37479  13.825  16.335  15.692 -0.1785  0.1849  0.1656
17946W        W37480  12.738   1.029  15.491 -0.0072 -0.2893  0.0160
17947W        W37481   2.649  11.838  12.701 -0.1055 -0.1216  0.0038
17948W        W37482   8.374  11.660   1.821  0.1513 -0.0245  0.1267
17949W        W37483   5.826   2.147   1.542  0.1153  0.1035 -0.2364
17950W        W37484   8.802  17.016   4.342 -0.0052  0.3218 -0.4932
17951W        W37485   5.699  11.966   2.608  0.1685  0.0973  0.0444
17952W        W37486   2.999   8.112  11.732  0.0112 -0.3453  0.0003
17953W        W37487  14.575   8.784  12.365 -0.0856 -0.0578 -0.3839
17954W        W37488   2.669   8.735   2.385 -0.3668  0.1175 -0.0498
17955W        W37489   6.084  11.014   4.264 -0.1966 -0.2260 -0.0204
17956W        W37490  15.644   0.156  15.703  0.0319  0.5130 -0.1005
17957W        W37491   4.149  11.901  13.887 -0.1621 -0.2193  0.0536
17958W        W37492  14.724  15.728   3.266 -0.1320  0.0345 -0.0172
17959W        W37493   9.359   2.140   5.740  0.1295 -0.0472  0.0320
17960W        W37494   1.790   5.357   0.816 -0.1993 -0.3186 -0.3044
17961W        W37495   5.151   3.082   0.049 -0.0650 -0.1006  0.0043
17962W        W37496   7.699   5.924  13.849  0.1788  0.0291  0.1363
17963W        W37497   9.489  13.486   2.681 -0.0060 -0.2329  0.1440
17964W        W37498   1.545   1.055   1.717  0.0602  0.0228 -0.1071
17965W        W37499  17.055   3.173  13.305 -0.4423 -0.1723 -0.1126
17966W        W37500   7.567  15.466   2.108  0.4128 -0.1463  0.0514
17967W        W37501   5.758   2.230  13.355  0.0300  0.0779 -0.0190
17968W        W37502  14.966  16.775   1.857 -0.0101 -0.0337 -0.0615
17969W        W37503  17.488   6.112   0.850 -0.3468  0.3105 -0.0689
17970W        W37504  16.369   4.410   1.947 -0.0939  0.0569 -0.3797
17971W        W37505  14.035  14.121   4.431  0.2872 -0.1479  0.1799
17972W        W37506   6.487   7.996   3.582  0.0040  0.1497  0.0899
17973W        W37507   4.047   4.030  14.313  0.2869  0.0019 -0.1651
17974W        W37508  11.262  11.529  15.283  0.2188  0.0947 -0.1451
17975W        W37509  14.450   0.615  11.644  0.2646 -0.2040  0.0210
17976W        W37510  18.053  17.559   0.377  0.0313  0.4233  0.2273
17977W        W37511   6.909   1.742  13.182  0.0303 -0.0457  0.0879
17978W        W37512   9.254   3.461  12.994  0.0622  0.0254  0.0083
17979W        W37513   7.307   9.106   2.613  0.2540  0.0342 -0.1318
17980W        W37514   8.222   5.229   2.343 -0.0635  0.0448 -0.0952
17981W        W37515   3.973   4.901  10.427  0.0735  0.1737 -0.0898
17982W        W37516  11.301  15.294   5.832 -0.3800 -0.2272  0.1443
17983W        W37517   0.757  10.491   3.803  0.0978  0.2253  0.0009
17984W        W37518  10.711  13.247  13.145 -0.3709 -0.3403 -0.0733
17985W        W37519  16.376   2.551  15.017 -0.3465  0.0500  0.0760
17986W        W37520  14.414   1.091  14.068  0.0154 -0.0013 -0.2048
17987W        W37521  17.736   2.636  12.236  0.3667 -0.1036  0.0847
17988W        W37522  13.297   7.353  14.555  0.1233  0.3430  0.4205
17989W        W37523   5.013   4.694   1.325 -0.0617  0.4153 -0.1215
17990W        W37524  11.821   4.347   1.995  0.2175 -0.0674  0.1585
17991W        W37525   8.995  12.560   0.262  0.1506  0.0374  0.0259
17992W        W37526   1.407   1.699  12.484  0.0302  0.2228 -0.0551
17993W        W37527  17.876  15.697  15.638 -0.1624 -0.3175  0.0135
17994W        W37528  13.376  14.930  12.767  0.4548 -0.0433 -0.1626
17995W        W37529  13.673   6.895   4.359 -0.1516  0.0682  0.3491
17996W        W37530   6.250  12.000   4.589 -0.0548 -0.4095 -0.0057
17997W        W37531  14.484   3.726  15.617 -0.2594  0.1329  0.0985
17998W        W37532  18.102  15.650   2.071 -0.1231 -0.0962  0.1136
17999W        W37533   1.966  15.740  13.753  0.0010 -0.0632 -0.0837
18000W        W37534  12.851  18.018  11.799 -0.0952 -0.0516  0.0190
18001W        W37535   8.441   9.365   1.222 -0.1458  0.1506 -0.0993
18002W        W37536   1.947   3.762   0.683  0.1183 -0.4667 -0.0976
18003W        W37537   3.327  10.036  14.507 -0.0978  0.1775 -0.0826
18004W        W37538  16.157  12.702  12.112  0.1559 -0.1382 -0.2584
18005W        W37539  17.207   0.361  12.879  0.0726 -0.1082 -0.3518
18006W        W37540   7.074  11.618  14.794 -0.0045  0.0023 -0.0688
18007W        W37541  17.782   3.709  12.323  0.0210 -0.1035 -0.2240
18008W        W37542  16.343   8.013  13.279 -0.0704  0.0454 -0.2659
18009W        W37543   8.759   1.338   3.848  0.0690  0.0186  0.3000
18010W        W37544   2.954   4.799   3.238  0.1722 -0.2488 -0.0039
18011W        W37545  16.697  10.556   3.745 -0.1102 -0.2930 -0.2478
18012W        W37546  10.187   4.477  12.795 -0.2362 -0.0420  0.0652
18013W        W37547  14.471  16.697   3.305  0.1730  0.2775  0.1146
18014W        W37548  10.688   7.224   0.989 -0.2142  0.2088  0.0910
18015W        W37549  10.081  14.963  12.601  0.2215  0.0425  0.1759
18016W        W37550  13.240   1.586  15.127 -0.0443 -0.2174 -0.0153
18017W        W37551   3.529   2.910   2.271 -0.3728  0.1447  0.2380
18018W        W37552   0.669  11.972  13.219  0.0591 -0.0721  0.0080
18019W        W37553   1.751   8.371   3.414  0.1163 -0.0914  0.3845
18020W        W37554   8.186  16.247  13.645  0.1195 -0.2859  0.0726
18021W        W37555   9.578   2.476   3.184 -0.1649 -0.1330 -0.0458
18022W        W37556  12.803   7.627   3.128  0.0211 -0.1175 -0.4758
18023W        W37557  12.855   0.359   4.665  0.1051  0.1400 -0.3541
18024W        W37558   8.649  10.127   3.024  0.0107  0.1106  0.2189
18025W        W37559   7.131   3.532  15.481 -0.0225  0.1755  0.1253
18026W        W37560  10.596   6.526   3.264 -0.0589  0.2042 -0.1307
18027W        W37561   3.700   8.200  15.551 -0.0197  0.0482  0.2115
18028W        W37562   6.661   2.483   1.399 -0.2685 -0.1110 -0.1517
18029W        W37563  12.362  15.849  11.769 -0.0548  0.4166  0.0120
18030W        W37564  11.822   0.511   3.787  0.0743 -0.1407  0.1779
18031W        W37565  10.083  12.077   1.655  0.4408 -0.0437  0.1396
18032W        W37566   6.943   7.920   2.907 -0.2865 -0.0992  0.1676
18033W        W37567  16.474   5.770   1.608 -0.2710  0.0076  0.2824
18034W        W37568   3.030  17.264   4.589 -0.0034 -0.0085 -0.0145
18035W        W37569  14.749   7.297  12.644  0.3469 -0.4893 -0.3868
18036W        W37570   3.995   4.832  12.477  0.0902  0.0448 -0.0846
18037W        W37571   3.620  16.732   4.425  0.1421  0.1084 -0.2808
18038W        W37572   9.058  14.347   2.945 -0.0417  0.1703  0.0016
18039W        W37573  17.017   1.573  11.836  0.0410  0.2798 -0.0437
18040W        W37574  15.372   9.234   3.180 -0.0467 -0.3624 -0.0712
18041W        W37575  12.618  14.425  10.464 -0.0951  0.0878  0.1083
18042W        W37576  13.395   6.930   0.146 -0.1014  0.0274 -0.0099
18043W        W37577   4.101   3.260   4.864  0.0066  0.1441 -0.1825
18044W        W37578  11.710   0.799  15.054 -0.0907  0.0306  0.1790
18045W        W37579  14.996   4.772   4.055 -0.0166  0.2032 -0.0115
18046W        W37580  17.073  13.258  14.074  0.2117 -0.0299 -0.3736
18047W        W37581   1.425   1.050   0.736 -0.1968 -0.2667 -0.0051
18048W        W37582  11.044   9.057  14.402 -0.0986  0.0669  0.1496
18049W        W37583   8.483   5.695   3.644  0.0080 -0.1385  0.0372
18050W        W37584  17.379  17.705  12.741 -0.0325  0.1862  0.0548
18051W        W37585  17.507  13.513  12.074  0.1213  0.0584  0.1161
18052W        W37586  13.836   6.394  12.373  0.1112 -0.3669  0.0330
18053W        W37587  13.577   8.129  12.505  0.0290  0.0496  0.2961
18054W        W37588  16.784   6.118   1.807  0.0203 -0.0828 -0.3864
18055W        W37589   1.045  11.395   2.916  0.1945 -0.2553 -0.0891
18056W        W37590   3.519   1.651   1.964  0.3040  0.1548 -0.6525
18057W        W37591   9.199   1.170   3.090 -0.0814  0.2183 -0.4184
18058W        W37592  11.356   9.670   2.569 -0.0292 -0.1664  0.1228
18059W        W37593  18.112   3.629   2.314  0.1604 -0.1791  0.1967
18060W        W37594  18.391   8.877  12.664 -0.1613  0.0452  0.1404
18061W        W37595  10.911   0.637  14.769 -0.0544 -0.2237 -0.0700
18062W        W37596  17.620   2.143   0.048  0.0906 -0.2903 -0.2293
18063W        W37597   6.080  17.043  14.928 -0.2582 -0.2362  0.1171
18064W        W37598  16.687   6.167  13.523 -0.0318  0.1517  0.1691
18065W        W37599  17.918   9.283   3.668 -0.1212  0.1281 -0.2769
18066W        W37600   0.444   9.586   1.592 -0.0965  0.3099 -0.2386
18067W        W37601  16.353   7.230  14.373 -0.0496  0.1021 -0.1699
18068W        W37602  17.836  11.953  15.194  0.0191 -0.1572 -0.2024
18069W        W37603  13.690   3.855  11.739  0.0333 -0.0823 -0.2412
18070W        W37604  15.388  11.216   2.424  0.0482  0.0809 -0.1047
18071W        W37605  13.077   1.739   3.523 -0.3031  0.0112  0.1631
18072W        W37606   4.751   7.328  11.609 -0.2043  0.1819 -0.2636
18073W        W37607  15.660   0.171  12.458  0.1261  0.3730 -0.1368
18074W        W37608   3.691   9.313  11.361 -0.0584  0.2228 -0.0089
18075W        W37609  11.452   2.056   6.466  0.0817 -0.0938 -0.1279
18076W        W37610  10.566  11.565  12.882  0.0689  0.2680 -0.2674
18077W        W37611   5.561  14.558  11.986  0.1396  0.3918  0.1192
18078W        W37612   5.374  16.200  12.777 -0.0381  0.3189  0.0083
18079W        W37613  15.033   4.878  15.777  0.3105  0.0838 -0.0757
18080W        W37614   0.201  14.575   3.670  0.0074 -0.5021 -0.3255
18081W        W37615  18.347  12.343  11.953  0.0661 -0.1356  0.2145
18082W        W37616   4.362  12.936  12.758  0.1675 -0.0372 -0.1682
18083W        W37617  13.180   0.500   0.644  0.2759 -0.0493 -0.2720
18084W        W37618  11.638   4.632   1.062  0.0904  0.0274  0.0759
18085W        W37619   2.832   0.056   3.323 -0.1016  0.1392 -0.2862
18086W        W37620   2.497  14.067  14.637 -0.1154 -0.2223  0.1726
18087W        W37621   4.822   3.772   1.631  0.1893 -0.1205 -0.1460
18088W        W37622   1.348  16.373  10.524 -0.0393 -0.0006 -0.0679
18089W        W37623  13.298   6.626   1.120  0.3134  0.2276  0.1993
18090W        W37624  13.412   8.644   4.019 -0.1174  0.1266 -0.1945
18091W        W37625   4.728  16.127  13.867 -0.0687 -0.0045  0.3299
18092W        W37626   1.665   9.734   2.616  0.1944  0.0986  0.1793
18093W        W37627   3.019   5.020   3.730 -0.4022  0.0269 -0.0583
18094W        W37628   9.440   6.039   4.931 -0.2538  0.0613 -0.2319
18095W        W37629   4.760  12.571   1.738 -0.3122 -0.1859 -0.0152
18096W        W37630   1.464   5.585   3.279 -0.1049  0.0756 -0.0490
18097W        W37631  11.999   0.395   1.238 -0.1476  0.0879 -0.2484
18098W        W37632   8.342  11.114  15.518 -0.1996 -0.0766  0.2270
18099W        W37633  13.800  15.187  13.108  0.1016  0.0256  0.1528
18100W        W37634  18.039  16.373  12.359  0.0629  0.2696  0.1401
18101W        W37635  17.600   8.282  14.277 -0.0998 -0.0582  0.0046
18102W        W37636   5.504   9.927  12.949  0.0014 -0.0599 -0.0464
18103W        W37637   8.625  18.291  14.895  0.2149 -0.2627  0.0290
18104W        W37638   0.527  10.103   1.451  0.0105  0.1112  0.1286
18105W        W37639  11.797   2.067   4.252 -0.0195 -0.0759 -0.0081
18106W        W37640   3.984   6.741   3.128 -0.0837 -0.0034  0.1809
18107W        W37641  18.343   2.665  14.735  0.1272 -0.2249 -0.0939
18108W        W37642   2.009   4.749   0.328 -0.1238  0.0876 -0.0002
18109W        W37643  13.351  14.832   1.239 -0.1412  0.1189 -0.1318
18110W        W37644  12.678  13.573   2.012 -0.0564 -0.4744 -0.2075
18111W        W37645  11.303  17.487   1.244  0.1264  0.2079 -0.0434
18112W        W37646  15.690  11.812   3.803  0.1473 -0.1623  0.1353
18113W        W37647   4.542  12.499   3.519  0.0317 -0.2658 -0.0037
18114W        W37648  11.796   9.969  10.766  0.1481 -0.3759 -0.1406
18115W        W37649   1.040   8.805  15.726 -0.1866  0.3576  0.3128
18116W        W37650  16.699  11.335  15.009 -0.3208 -0.1995  0.0954
18117W        W37651  17.869  17.271   3.417  0.1739  0.1129  0.0732
18118W        W37652  14.047  15.750   4.071  0.1456  0.0208 -0.3100
18119W        W37653  12.378   7.527   1.498 -0.0596 -0.0440 -0.2245
18120W        W37654   5.448  16.443   1.529 -0.0687 -0.0634 -0.1839
18121W        W37655   3.138   2.926  10.146 -0.1196  0.0677  0.0252
18122W        W37656  18.289   3.390  11.709  0.0899  0.2111  0.3024
18123W        W37657  11.669  12.719  14.582  0.2177 -0.0308 -0.1571
18124W        W37658  11.417  14.838  15.680  0.0375  0.0423  0.5817
18125W        W37659   4.926   5.362  12.175 -0.2466 -0.1415 -0.0607
18126W        W37660   6.980  14.614   1.747 -0.1059  0.0372 -0.0274
18127W        W37661  14.058   7.698   1.654  0.2222  0.0435 -0.2622
18128W        W37662   8.219  10.546   1.763  0.1984  0.4041  0.2422
18129W        W37663   0.913  10.367  12.395  0.0604 -0.0542 -0.3916
18130W        W37664   9.275  13.455  13.141 -0.1334  0.0379  0.0789
18131W        W37665   5.014  17.036   2.746 -0.0242 -0.0494 -0.0750
18132W        W37666  15.059   2.951   0.451  0.2622  0.2012 -0.1426
18133W        W37667   5.977   1.473  14.607  0.0175 -0.0270 -0.0425
18134W        W37668  18.321   1.701  10.787 -0.1252  0.0653 -0.0989
18135W        W37669  12.488  10.076   4.614  0.2279  0.1657 -0.0899
18136W        W37670  16.549   6.657   3.670  0.2718 -0.0522  0.1636
18137W        W37671   6.435   2.701  15.329 -0.0718  0.1183 -0.0188
18138W        W37672   8.238   3.757   2.875 -0.0863 -0.3890 -0.1223
18139W        W37673  14.176  12.708  14.121 -0.2251  0.0925  0.2062
18140W        W37674  10.285   3.320  12.898 -0.1800  0.2351  0.3681
18141W        W37675  18.345  11.406   3.264  0.0467 -0.0307  0.0691
18142W        W37676  18.220  13.631  12.632 -0.1668  0.1575  0.0424
18143W        W37677  17.456   0.557   3.139 -0.2301 -0.1381 -0.2386
18144W        W37678   2.516   2.406  13.552  0.1394 -0.2539 -0.1426
18145W        W37679  13.892   5.188  14.007 -0.1081  0.0023  0.1995
18146W        W37680   4.834  14.534   2.023  0.0589  0.2013 -0.3768
18147W        W37681  10.433   1.884  11.748 -0.1422  0.1411  0.0672
18148W        W37682  11.340  13.391  12.472 -0.3695 -0.1273 -0.0562
18149W        W37683   9.288   3.178  12.620 -0.2338 -0.0479  0.0970
18150W        W37684   7.633   7.037  13.359  0.0954 -0.0466  0.0055
18151W        W37685   7.996   4.043   4.348 -0.0384 -0.3288  0.2615
18152W        W37686   9.257   5.180   1.829  0.1032 -0.0341  0.2230
18153W        W37687  14.773   9.890   3.603 -0.0899 -0.3529  0.2834
18154W        W37688   4.369   5.793  14.389 -0.1151  0.1587 -0.1900
18155W        W37689   4.559  14.880   3.308 -0.2427 -0.0221 -0.0475
18156W        W37690  18.029  15.333  15.203  0.0517  0.0001  0.1312
18157W        W37691  15.786   4.687  12.920 -0.0177  0.2637 -0.1988
18158W        W37692  16.533  13.184  12.761  0.2966 -0.1013  0.0293
18159W        W37693   7.519  11.549  11.284  0.0810  0.2930  0.0805
18160W        W37694   5.035  16.626   3.095  0.2497  0.0523 -0.1947
18161W        W37695   1.894  18.063   1.982  0.2941 -0.0043 -0.3140
18162W        W37696   3.236  14.400  12.437  0.0907 -0.0974  0.0942
18163W        W37697   1.833   3.662   1.688  0.1713  0.0673  0.0801
18164W        W37698   8.426   8.445  15.091  0.0359 -0.0124  0.2065
18165W        W37699  15.376   2.859   4.355 -0.3700 -0.0060  0.2063
18166W        W37700   6.641  10.436   2.500 -0.3730  0.1714  0.1342
18167W        W37701  12.086   5.931  11.723 -0.3627  0.0653 -0.0577
18168W        W37702   7.930  13.124  13.589 -0.1807  0.1862 -0.2200
18169W        W37703   0.227  15.768   3.902 -0.1431 -0.3355 -0.1036
18170W        W37704   9.881   1.435   0.140 -0.4094 -0.1196 -0.3331
18171W        W37705   4.667   9.100  12.077 -0.1119 -0.1919  0.0385
18172W        W37706   4.033  13.003   2.880  0.3587  0.0144 -0.0505
18173W        W37707   5.008   3.743  13.924 -0.0622 -0.1028 -0.0845
18174W        W37708   4.237  14.569   0.795  0.0251 -0.1185 -0.0260
18175W        W37709  11.055  10.325  13.540 -0.1246 -0.0866  0.0556
18176W        W37710   9.829   3.408  11.712 -0.1739 -0.0264 -0.0560
18177W        W37711  16.135  15.895   3.115  0.1873  0.1294  0.0770
18178W        W37712  10.166   3.081  14.026 -0.0478  0.4336 -0.5103
18179W        W37713   1.937  11.177  15.747  0.0543 -0.1822 -0.0354
18180W        W37714  14.930  14.171   3.919 -0.0063 -0.0671  0.0862
18181W        W37715   8.743  11.151  14.467  0.1438  0.0611  0.0273
18182W        W37716   6.376   7.035   2.688  0.0840 -0.1770  0.0853
18183W        W37717   1.032   0.292  12.957 -0.1879  0.0324 -0.0716
18184W        W37718  15.193  11.959   0.219  0.3530  0.1290 -0.0930
18185W        W37719  10.927  17.883  13.099  0.2101  0.0772 -0.1575
18186W        W37720  17.700  16.710   0.420 -0.0128  0.2365  0.1080
18187W        W37721   8.935   7.798  14.672  0.1081 -0.2157  0.0580
18188W        W37722  11.477   2.712   1.482 -0.3084 -0.0226 -0.1657
18189W        W37723   7.364  17.102  14.499 -0.1082 -0.1401 -0.0011
18190W        W37724   2.537  12.808  12.421  0.1282 -0.0477  0.0383
18191W        W37725  10.588   1.745   0.787 -0.1178 -0.1997  0.0783
18192W        W37726  17.742  17.142   4.462  0.2096  0.0221  0.0444
18193W        W37727  13.759  17.382   1.459  0.1079  0.0560 -0.0056
18194W        W37728   9.793  11.209   1.821 -0.0754 -0.0381 -0.0597
18195W        W37729   7.353   4.043   2.664 -0.0360  0.0831 -0.0211
18196W        W37730   9.563  17.774  14.790 -0.1201  0.0492  0.0265
18197W        W37731   6.157   9.987   1.355  0.0387  0.0311 -0.0061
18198W        W37732   9.644   0.445   0.010  0.1210  0.2193 -0.0345
18199W        W37733   9.535   1.219  13.646  0.0327 -0.1958 -0.3051
18200W        W37734  17.123   6.397  13.278  0.2434 -0.0778 -0.0536
18201W        W37735  12.816   6.414  13.973 -0.0400 -0.2206  0.0313
18202W        W37736   1.594  13.732   3.607 -0.0064 -0.0866 -0.0041
18203W        W37737  14.470   2.919  14.030  0.1923 -0.0929 -0.0465
18204W        W37738   6.885  16.301   1.114  0.0325 -0.1137  0.0750
18205W        W37739  17.396  16.811   0.795 -0.0290 -0.2149 -0.0189
18206W        W37740  11.837   3.555   5.527 -0.0756  0.0602  0.0242
18207W        W37741   7.242   7.856   1.397 -0.1404  0.2104 -0.0887
18208W        W37742   4.499   3.154   3.446  0.2404 -0.1834 -0.4372
18209W        W37743   6.386   0.331  13.588  0.1730  0.4226 -0.3289
18210W        W37744   1.296  17.944   1.084 -0.5064 -0.1492 -0.1079
18211W        W37745   2.467  15.842   0.601  0.0579 -0.1182 -0.1853
18212W        W37746   5.003   6.536  11.482 -0.0533  0.0931  0.0281
18213W        W37747   0.014   7.044  10.081 -0.0652 -0.1756  0.0558
18214W        W37748  14.426  14.974  14.779  0.1243 -0.0976 -0.2248
18215W        W37749   7.520  11.110   2.700 -0.1574 -0.1680  0.1781
18216W        W37750   8.911  10.802  14.761 -0.1248 -0.0551  0.2649
18217W        W37751   6.118   8.168   0.760  0.1647  0.0237 -0.1025
18218W        W37752  18.035   8.809  12.949 -0.0688  0.0788 -0.2441
18219W        W37753  13.874  10.968   0.629  0.0538  0.1690  0.1530
18220W        W37754  14.830   8.050  14.961  0.3000 -0.1655 -0.0168
18221W        W37755   1.199   3.314  14.887  0.1927 -0.0397  0.0848
18222W        W37756  11.993   0.554   2.178 -0.1539 -0.1121 -0.1498
18223W        W37757   7.222  10.247  12.206  0.2969 -0.2217 -0.3341
18224W        W37758   5.931  11.092  11.756 -0.0658 -0.1442 -0.2538
18225W        W37759  10.769   0.279  15.095 -0.0441 -0.0927 -0.0869
18226W        W37760   2.509  13.749  15.060  0.0360 -0.0454  0.1203
18227W        W37761  18.000   4.426  11.169  0.0314  0.3455 -0.2443
18228W        W37762  17.497   2.635   0.157  0.2004 -0.0444 -0.0708
18229W        W37763  11.746   7.558   1.012 -0.1710  0.2225 -0.1178
18230W        W37764   5.204  15.230   2.945 -0.2066  0.1009  0.1264
18231W        W37765  12.822  12.593   0.243  0.0851  0.4320  0.1662
18232W        W37766  15.329  14.128  12.635 -0.0042 -0.0206  0.3652
18233W        W37767   7.711   1.473   4.611  0.1911 -0.0372 -0.1076
18234W        W37768   5.726  16.394  13.781  0.0906 -0.1135  0.0137
18235W        W37769   5.092   3.207  14.670  0.0669 -0.1812 -0.0015
18236W        W37770  16.546   0.474  15.589 -0.1280 -0.2295  0.3372
18237W        W37771   5.494  16.254  14.465 -0.0584 -0.0097 -0.0374
18238W        W37772   6.240   6.764   4.081  0.0121  0.2025  0.1893
18239W        W37773  11.406  13.175   4.147  0.3579 -0.2294 -0.2040
18240W        W37774  15.363   3.705   3.194  0.1611 -0.2669 -0.2278
18241W        W37775   3.007  16.493  14.836 -0.1468  0.1538  0.1018
18242W        W37776   2.540   9.272  14.179 -0.0382 -0.3092 -0.1546
18243W        W37777  18.171  17.767  15.239  0.0939 -0.1135  0.1733
18244W        W37778   5.053   4.241   0.471  0.1428  0.2220  0.1652
18245W        W37779   2.235   0.492  12.318 -0.3061  0.0334  0.0917
18246W        W37780   8.882   1.190   4.828 -0.1350 -0.0110 -0.1844
18247W        W37781  10.876   9.980   1.111 -0.0155 -0.0243 -0.1865
18248W        W37782  10.183  13.352   3.340  0.2128  0.0324  0.2378
18249W        W37783  10.519  10.933   0.657 -0.1276  0.2497 -0.0936
18250W        W37784  15.466  17.188   4.792  0.1049  0.0561 -0.1574
18251W        W37785   8.736   4.691   4.054 -0.0302 -0.1001  0.1263
18252W        W37786  11.115  11.842   3.060 -0.1036  0.0061 -0.2983
18253W        W37787   0.785  10.630  12.856 -0.0964  0.1556  0.1019
18254W        W37788  16.105  12.059  13.470  0.0127  0.1263  0.0416
18255W        W37789   9.150  16.079   4.075 -0.1099 -0.1359 -0.2079
18256W        W37790  12.744   6.264  14.442  0.0077  0.1366 -0.2751
18257W        W37791  14.459  11.988  13.690 -0.0224 -0.2959 -0.1146
18258W        W37792   5.319   2.349   1.344 -0.0032 -0.0026 -0.1858
18259W        W37793  13.439   8.126  15.100  0.0112 -0.1994  0.0101
18260W        W37794  15.371   1.288   3.450  0.2409 -0.0736 -0.2045
18261W        W37795   5.286   8.468  14.155 -0.1627  0.1123 -0.2032
18262W        W37796   3.157   9.978  14.017 -0.0806  0.3240  0.3148
18263W        W37797  14.595  10.056  15.166  0.3129 -0.0808  0.1844
18264W        W37798  10.705   1.053   4.983 -0.1155  0.0827 -0.2690
18265W        W37799   5.290   5.275   4.368 -0.0205 -0.1010 -0.1215
18266W        W37800   5.629   6.086   2.175 -0.0683 -0.1164 -0.0125
18267W        W37801  13.435   4.716   2.732  0.1817  0.1110  0.1621
18268W        W37802   2.431  13.329  12.547  0.0442 -0.1079  0.1701
18269W        W37803   0.335  15.929  15.184  0.0707  0.0675 -0.1114
18270W        W37804   0.746  17.189  15.087  0.0787 -0.0939 -0.0748
18271W        W37805  16.431  12.220  11.964  0.0414  0.2189 -0.0881
18272W        W37806  17.280  14.628  13.503  0.0530  0.3591 -0.1602
18273W        W37807  11.857   6.600  14.100  0.0365  0.2063  0.0669
18274W        W37808   3.928   8.691  12.882  0.0503  0.0158  0.1871
18275W        W37809   4.037   1.641   5.426 -0.0283  0.1874  0.1658
18276W        W37810   1.091  17.463  12.749  0.0659 -0.1105 -0.1134
18277W        W37811  10.644  13.821  15.557 -0.3018 -0.4321  0.1907
18278W        W37812  16.424   1.451  13.450  0.1309 -0.1932  0.1472
18279W        W37813   2.603   2.529  14.279  0.0523  0.1463  0.1965
18280W        W37814  13.317  16.776   3.794 -0.2997 -0.0705  0.2019
18281W        W37815   0.845   2.478  13.915 -0.0812 -0.1187  0.0545
18282W        W37816  15.564  16.708   0.009 -0.0418 -0.2060 -0.3475
18283W        W37817  11.063   7.563   2.153  0.0594  0.5732 -0.2052
18284W        W37818  12.205  17.322   0.876 -0.0457 -0.0556  0.0428
18285W        W37819   1.980   4.255   1.515 -0.0322  0.0984 -0.1630
18286W        W37820  12.622   3.458  12.405  0.0185  0.1223 -0.1221
18287W        W37821  17.569   4.210   0.558 -0.4067 -0.2251 -0.0727
18288W        W37822  14.917   0.858   0.849 -0.2238  0.0643  0.0740
18289W        W37823   9.076   4.551   3.658  0.1835  0.1094  0.2144
18290W        W37824  15.199   6.542  14.105 -0.1141  0.2676  0.0877
18291W        W37825   9.425  15.714   1.712 -0.1081 -0.0123  0.0576
18292W        W37826  13.497  13.189  14.963  0.0430  0.2997 -0.0641
18293W        W37827  12.802   4.636   0.223 -0.3239  0.2302 -0.1186
18294W        W37828  12.509  15.464  12.149 -0.2896 -0.0417  0.1666
18295W        W37829   4.152   1.237  11.026 -0.2537 -0.1383  0.1104
18296W        W37830  12.735   8.662   1.942  0.1082  0.0673 -0.1690
18297W        W37831   3.518  12.286   1.784 -0.0728  0.0075  0.0944
18298W        W37832   2.861   5.766   0.033  0.2272 -0.2773 -0.0484
18299W        W37833  10.936   7.118   0.176 -0.2096  0.0832 -0.2271
18300W        W37834  10.614   0.868  13.382  0.5141  0.3541 -0.0269
18301W        W37835  14.499   7.937   3.574 -0.0031 -0.0300 -0.0279
18302W        W37836  15.809  11.102   1.626 -0.0184  0.0352  0.1455
18303W        W37837  12.113  15.155   2.586  0.0297  0.3953 -0.0382
18304W        W37838   9.833  10.825   0.670  0.0282  0.1207  0.1875
18305W        W37839   1.530   2.844  14.960 -0.1955 -0.0158  0.0714
18306W        W37840  15.193  16.765   3.789  0.1709 -0.2193 -0.0551
18307W        W37841   6.756   6.900  15.089 -0.1485 -0.0744 -0.3218
18308W        W37842  14.170   3.834   2.182 -0.0275  0.1349 -0.2542
18309W        W37843   4.766  10.579  11.393  0.1026 -0.1741 -0.2405
18310W        W37844   4.575   1.439  14.232 -0.0718 -0.0721 -0.0119
18311W        W37845  17.874  15.945  12.516 -0.2001  0.1996  0.1439
18312W        W37846  12.046  16.236   2.560  0.0736 -0.0094  0.1411
18313W        W37847  16.766   1.670  15.380  0.2667  0.1970  0.1131
18314W        W37848  17.773  12.299  14.376 -0.0258 -0.0693 -0.1405
18315W        W37849   8.272   9.588  11.694  0.0975  0.1267  0.0640
18316W        W37850   1.355   3.287  12.538 -0.0187  0.2559 -0.1726
18317W        W37851   4.189  12.678   0.738 -0.0482  0.3121  0.1608
18318W        W37852   1.739   4.940  14.010  0.1457 -0.0460  0.1604
18319W        W37853   2.200   4.689  15.659  0.0079  0.0783 -0.3364
18320W        W37854   9.939   5.898   3.324  0.0212 -0.0635  0.2663
18321W        W37855  13.618   9.944   2.742  0.2148 -0.0535  0.0056
18322W        W37856   0.349   0.424  15.502  0.1983 -0.0077 -0.0429
18323W        W37857   6.337   8.149  14.946 -0.1939  0.2315  0.0577
18324W        W37858   8.822   5.420   0.772 -0.0752 -0.2385 -0.0053
18325W        W37859   3.750  15.873  14.397 -0.0547  0.0050 -0.2410
18326W        W37860  12.213   1.550   1.383  0.0713  0.1638 -0.0178
18327W        W37861   7.761   0.572   4.407  0.2266  0.4969 -0.1557
18328W        W37862   0.800  12.779   4.122 -0.1728 -0.0921 -0.0743
18329W        W37863  10.681  17.544  14.467 -0.1587 -0.3200 -0.2133
18330W        W37864  13.166   4.464  15.697  0.1794 -0.0514  0.0894
18331W        W37865  16.530   2.260   2.454 -0.1974 -0.1109 -0.2721
18332W        W37866  16.439  14.445   0.881 -0.2968 -0.1600 -0.0380
18333W        W37867   5.346   1.223   3.098 -0.0283  0.2826 -0.4443
18334W        W37868   0.773  13.850   2.190 -0.2825 -0.0243 -0.1046
18335W        W37869   9.453  12.710  10.831 -0.2061  0.3222 -0.3727
18336W        W37870  10.295  11.693   0.238 -0.1768 -0.3267  0.3645
18337W        W37871   7.396  10.125  14.077 -0.0892 -0.0010  0.1502
18338W        W37872  10.634  12.126   0.867  0.0916  0.1190 -0.0495
18339W        W37873   5.811  17.689  12.776  0.1809 -0.0772  0.0173
18340W        W37874  13.638  11.689   3.247 -0.2186 -0.0383  0.0461
18341W        W37875   6.385   9.663   1.677 -0.1984 -0.3615  0.0497
18342W        W37876  13.620   3.734  12.187  0.0270  0.3287 -0.2285
18343W        W37877  15.879   2.205   2.403 -0.0178 -0.1304  0.1209
18344W        W37878   0.179   1.584   1.052 -0.1559  0.2977  0.1013
18345W        W37879  11.893   6.163  12.182 -0.2034 -0.0370 -0.1047
18346W        W37880  18.185  15.522  13.364  0.1015  0.2905 -0.1106
18347W        W37881  16.103  16.881   2.112 -0.2840 -0.0635 -0.0552
18348W        W37882   6.504  10.633   0.088 -0.0254  0.0728 -0.1094
18349W        W37883   3.720   0.275   0.421 -0.1926  0.3993 -0.2614
18350W        W37884   3.424  14.094  12.065  0.0236 -0.1976  0.0469
18351W        W37885   8.490  15.335  15.830  0.0320 -0.0671  0.2277
18352W        W37886   4.679  17.697  10.903 -0.1190  0.0399  0.1137
18353W        W37887  12.008   8.464  11.825 -0.0166 -0.1145 -0.1058
18354W        W37888  17.981  11.225   4.597 -0.0505 -0.0200  0.0098
18355W        W37889   8.856  14.131  11.812 -0.0360  0.0715  0.0576
18356W        W37890  10.403   7.938  12.841  0.2537 -0.2294  0.1396
18357W        W37891  11.088   7.520  13.085  0.0273  0.2108 -0.0524
18358W        W37892  11.226   4.831  15.435 -0.1993  0.3167  0.1639
18359W        W37893   0.410   7.769  12.978  0.1462  0.2260  0.2070
18360W        W37894   6.802   9.571   2.172  0.1357  0.0160  0.2153
18361W        W37895   2.371  13.797  11.693 -0.1641 -0.1659  0.0745
18362W        W37896   7.094   8.833  11.980  0.2127  0.1837  0.2542
18363W        W37897   6.621   0.263   3.175  0.0100  0.1211  0.0386
18364W        W37898  16.423   8.635   0.577 -0.0765  0.0598  0.1476
18365W        W37899   8.418   3.691   0.405  0.0405 -0.0788 -0.0291
18366W        W37900   6.002   2.970  15.443  0.4622 -0.2060 -0.2580
18367W        W37901   0.231   5.643  15.624  0.0879 -0.0506  0.2179
18368W        W37902   6.364   8.744  11.791  0.1927 -0.3224  0.1905
18369W        W37903  14.510  14.842  13.532  0.3626 -0.1435  0.2590
18370W        W37904   2.411   4.030  11.808  0.0551 -0.0441  0.2437
18371W        W37905  15.876   0.909  15.088  0.0237  0.0375 -0.0970
18372W        W37906  13.920  10.645  15.533  0.3027  0.3498  0.0061
18373W        W37907   0.172   0.926  12.724 -0.0349 -0.4358 -0.3299
18374W        W37908  11.836  12.699  13.432  0.0206 -0.1639 -0.3341
18375W        W37909   8.059   2.461   1.211 -0.0812  0.0343 -0.0807
18376W        W37910  12.793   1.497   3.200  0.0333 -0.1684 -0.1815
18377W        W37911   3.686   7.879   4.168 -0.0661  0.0374 -0.2997
18378W        W37912  13.637   3.028  11.607 -0.0206  0.0072  0.1452
18379W        W37913  10.996  11.429   0.105  0.0471  0.0061 -0.1630
18380W        W37914  17.065  12.398  13.644 -0.0368  0.1755  0.0001
18381W        W37915   4.343   2.644   0.165 -0.2415 -0.4093 -0.1576
18382W        W37916  10.149  10.081  13.997 -0.0727  0.0580  0.4266
18383W        W37917  14.319  13.901  11.767 -0.2219  0.5067 -0.1009
18384W        W37918  12.321  11.665   0.360 -0.0625 -0.1199  0.4622
18385W        W37919   6.156   2.001  15.482 -0.3153 -0.1969 -0.1230
18386W        W37920  11.396   4.267  13.808 -0.0513  0.3513  0.1243
18387W        W37921  14.821  15.308  11.955 -0.1194 -0.1953 -0.0626
18388W        W37922  15.862   5.108   1.307 -0.0759 -0.0247 -0.2343
18389W        W37923   1.094  17.084  15.468 -0.0336 -0.1701 -0.1760
18390W        W37924  18.323   6.170   1.558 -0.0274 -0.3449 -0.2153
18391W        W37925  14.819   1.327  13.865 -0.4148  0.0190  0.1124
18392W        W37926   3.239   2.830   3.474 -0.0632 -0.3249  0.2884
18393W        W37927   2.369   0.453  14.996  0.0966 -0.0987 -0.1100
18394W        W37928   5.718  10.722   1.120 -0.2285 -0.2396  0.1393
18395W        W37929  14.720  12.036   0.127 -0.1674  0.0379  0.3207
18396W        W37930   4.805   3.389  14.239  0.2025 -0.2770  0.1189
18397W        W37931  15.256   5.831   2.718 -0.0028 -0.4344 -0.1119
18398W        W37932  15.910  14.159  14.105 -0.0077 -0.0711  0.1082
18399W        W37933   7.722   3.535  11.917  0.0700  0.0719 -0.1615
18400W        W37934  11.961   5.245   0.896  0.0812  0.3939  0.1542
18401W        W37935   5.298   7.389  11.631  0.1970 -0.1306 -0.1686
18402W        W37936  13.283  18.195  12.497 -0.0476  0.0277 -0.1849
18403W        W37937  13.155   4.979   1.391  0.0006 -0.0406  0.0266
18404W        W37938  14.341  13.809   4.669 -0.0784  0.2882  0.1093
18405W        W37939  10.862   9.538  11.535 -0.0418 -0.0364 -0.2797
18406W        W37940   3.604   1.442   3.773  0.1012 -0.2528  0.2029
18407W        W37941   6.296   7.661  12.047 -0.1417 -0.0901 -0.2919
18408W        W37942  17.463   0.446   1.270  0.2369  0.0727 -0.3625
18409W        W37943   6.974   0.686   0.538 -0.1855  0.0359 -0.1612
18410W        W37944  13.554  10.226  11.794 -0.0861  0.2720 -0.0407
18411W        W37945  15.790  14.989  11.878 -0.0954  0.0835 -0.0255
18412W        W37946  18.329   4.098   2.260 -0.2938  0.4498 -0.2510
18413W        W37947  10.180  13.693  12.354 -0.0305  0.0737  0.0133
18414W        W37948   7.553   9.618  12.930  0.0295 -0.0134 -0.0959
18415W        W37949  14.714  12.257   1.479  0.2006 -0.4395  0.0162
18416W        W37950   1.145   2.800   2.600 -0.1062 -0.0069  0.2446
18417W        W37951  17.701  11.548  13.716  0.1579 -0.1066  0.1427
18418W        W37952   5.256  16.608   2.647 -0.0675  0.0728 -0.1085
18419W        W37953   9.984  11.660   0.596 -0.1855  0.0551  0.1775
18420W        W37954  17.557  13.421  15.327 -0.2847  0.0523  0.1477
18421W        W37955  11.808  10.566  14.401 -0.2364  0.2496  0.0843
18422W        W37956  11.662   1.763  14.906 -0.3357 -0.1048  0.0046
18423W        W37957  15.834  15.204  14.255  0.2700  0.2200 -0.3865
18424W        W37958  16.601  14.089  13.174 -0.0704 -0.3639  0.3190
18425W        W37959  12.617  15.175  14.919  0.1318  0.1729  0.2737
18426W        W37960   3.309   7.275   3.030  0.2106 -0.0107  0.0843
18427W        W37961  16.308   9.544  12.440 -0.2488 -0.1196 -0.1853
18428W        W37962   6.686   1.188  11.620 -0.2028  0.1622 -0.0879
18429W        W37963  12.243   0.944  15.297 -0.2804  0.3354  0.1781
18430W        W37964   9.146   8.459   1.978 -0.1613  0.2250  0.3412
18431W        W37965   0.497   2.647  11.429  0.0162 -0.0503  0.0743
18432W        W37966   1.180  12.571  11.606 -0.1449  0.0583 -0.1724
18433W        W37967  18.345   8.559   4.708 -0.2043  0.1048  0.0010
18434W        W37968   6.934   6.102  11.854  0.1592  0.2033  0.0870
18435W        W37969   3.993   2.369   5.000  0.0398 -0.2736  0.2523
18436W        W37970  11.522   3.811  15.344 -0.1326  0.2343 -0.2758
18437W        W37971   2.207  15.145  15.623 -0.1034 -0.0175 -0.0876
18438W        W37972   6.939   7.879   0.475 -0.1867  0.1957 -0.1405
18439W        W37973   7.670  12.128  15.597  0.2437 -0.1152 -0.1352
18440W        W37974  10.979   0.080  14.181  0.2200  0.0951 -0.1492
18441W        W37975   8.195  16.073  12.530 -0.1228 -0.1404  0.0629
18442W        W37976   0.748   0.122   1.647 -0.1493  0.1709  0.2904
18443W        W37977  10.904   0.119  12.369 -0.0012 -0.2010  0.2022
18444W        W37978   4.883   5.326   0.135 -0.2648  0.0425  0.2912
18445W        W37979   5.505   0.314  13.261 -0.0800 -0.0316  0.0698
18446W        W37980  17.455  14.713   1.342  0.2014  0.0571 -0.1416
18447W        W37981   3.572   2.745  14.402 -0.1171 -0.0589  0.0339
18448W        W37982   0.958   0.636  12.054 -0.0950  0.0833 -0.1167
18449W        W37983  11.048   2.499  15.536 -0.1745 -0.0610 -0.0630
18450W        W37984   4.005   3.517  13.490 -0.1578 -0.0546 -0.1642
18451W        W37985   2.391  10.714   4.502  0.0410 -0.0117 -0.2210
18452W        W37986   9.906  16.037  14.287  0.1162 -0.1177  0.0620
18453W        W37987  12.303  17.672  13.061 -0.3612  0.1323 -0.1771
18454W        W37988  12.339  11.138  11.212  0.1141 -0.2690  0.1216
18455W        W37989   5.614   3.964   1.212  0.0009  0.2497 -0.0147
18456W        W37990   8.617   8.131   4.576 -0.0105  0.1064 -0.1660
18457W        W37991   6.031   2.479  15.212 -0.1423  0.2927 -0.0691
18458W        W37992  18.089   1.310  14.415 -0.0832  0.0840 -0.1725
18459W        W37993   8.287  11.864   4.065 -0.2531  0.2243 -0.2720
18460W        W37994  10.822  12.788   3.211  0.1128  0.0055 -0.0332
18461W        W37995   7.659  11.872   1.101 -0.2349 -0.3204  0.2534
18462W        W37996   5.262   3.990   2.587 -0.0362 -0.0141 -0.0053
18463W        W37997  15.976  10.369  12.844  0.0400 -0.4321 -0.4294
18464W        W37998   3.550   1.341   0.463  0.0365  0.0401 -0.0393
18465W        W37999   1.867  17.350   0.077  0.2430  0.3255  0.2212
18466W        W38000   4.795   6.382  12.532  0.1037 -0.1348 -0.2912
18467W        W38001  14.547   2.105  11.607  0.1175 -0.2710 -0.0327
18468W        W38002  10.969   1.747  13.194 -0.3206 -0.0035  0.0506
18469W        W38003   5.435   5.062  15.365 -0.1027  0.1593  0.1406
18470W        W38004   0.029   1.066  14.772  0.3568 -0.2758  0.3182
18471W        W38005   0.836   2.575   0.330 -0.0289  0.2302  0.0783
18472W        W38006   6.636  10.303   0.877  0.3613  0.1668  0.2096
18473W        W38007  17.009  16.387  15.072 -0.1561 -0.1917 -0.2915
18474W        W38008  17.265  15.807  15.476  0.0080  0.1493 -0.0587
18475W        W38009  13.470  18.385  10.635 -0.3607 -0.3999 -0.5226
18476W        W38010   9.726  12.895   2.379 -0.1606  0.4201 -0.0374
18477W        W38011  16.220   4.856   2.435  0.3514 -0.0233 -0.0157
18478W        W38012  12.944  14.978   0.838  0.0237  0.2096 -0.1683
18479W        W38013  14.662   7.321  15.210 -0.0444  0.3159  0.2437
18480W        W38014   4.509   9.294  14.704 -0.4073 -0.1799  0.0996
18481W        W38015   6.303   2.834   3.219  0.1476  0.0828  0.2173
18482W        W38016   8.289   3.190  10.858  0.2930 -0.1195 -0.1564
18483W        W38017   0.463   2.534   1.579 -0.2150  0.2305 -0.0398
18484W        W38018   0.308   8.180  14.393  0.0824 -0.1439 -0.1153
18485W        W38019  12.249  16.460  14.694  0.0057 -0.0593 -0.2173
18486W        W38020   6.060   8.536  14.052  0.2113 -0.2351  0.1386
18487W        W38021   9.107  11.506   2.276  0.4982 -0.0150  0.0703
18488W        W38022  13.198   8.418   1.244  0.0526 -0.0340 -0.1945
18489W        W38023  16.206   8.568  11.239 -0.0334  0.1946  0.1150
18490W        W38024   6.613   3.608  11.394  0.0205  0.0199 -0.0375
18491W        W38025   6.616   1.063   0.721  0.0897 -0.0126 -0.0389
18492W        W38026   1.259  10.371   3.938 -0.0225  0.0330  0.0273
18493W        W38027  17.276   7.471   3.646  0.1216 -0.2208  0.0823
18494W        W38028   6.560   0.403  11.942  0.2153  0.0005  0.0359
18495W        W38029   2.495   6.572  15.559  0.3507  0.1059  0.1431
18496W        W38030  10.358   7.342  14.315  0.1847 -0.2477  0.0801
18497W        W38031  15.127   6.536  13.035 -0.1111 -0.0989 -0.0251
18498W        W38032   9.155   3.947   2.550 -0.3693 -0.2330  0.2263
18499W        W38033  17.691   3.845   2.155 -0.3213 -0.0259 -0.2128
18500W        W38034   9.609   6.342  13.728  0.4404 -0.0636 -0.0704
18501W        W38035  14.960   6.379   4.083 -0.2043 -0.3390 -0.0447
18502W        W38036  15.822  17.344  11.815  0.0713 -0.1902  0.0308
18503W        W38037  17.534  14.505  14.897 -0.1730 -0.0242  0.1331
18504W        W38038   5.121  12.960  13.958  0.0256 -0.1109  0.2138
18505W        W38039   9.946  16.726  10.468 -0.2306  0.1385  0.2027
18506W        W38040  16.510   8.929  13.065  0.0922 -0.1901  0.3274
18507W        W38041   2.759  13.059  10.160 -0.0518  0.0287  0.1726
18508W        W38042   4.451  14.513  14.421  0.0992 -0.2084 -0.0293
18509W        W38043   7.012  16.310   0.466  0.0381  0.2233 -0.1644
18510W        W38044   2.250  16.405  15.031 -0.0316 -0.1442  0.0762
18511W        W38045  14.076  18.132   2.534  0.0373  0.0956 -0.2579
18512W        W38046   6.972   2.039   4.640  0.0070  0.2059  0.0817
18513W        W38047  14.358  13.397   1.112  0.1660 -0.3613 -0.3456
18514W        W38048  15.915   9.289   1.014 -0.1702 -0.1663 -0.1098
18515W        W38049  13.478  12.047  11.003 -0.2091  0.2158 -0.4259
18516W        W38050  16.475  17.028   2.379  0.1268  0.2201  0.0101
18517W        W38051   7.372  10.260   0.396 -0.1144  0.0652 -0.0768
18518W        W38052  12.854  11.466  12.563  0.0827 -0.2389 -0.0522
18519W        W38053   8.964  13.283  11.370  0.0620 -0.2457  0.0952
18520W        W38054  11.536   2.548  12.134  0.1703 -0.0824  0.0877
18521W        W38055  12.647  12.883  15.646  0.0088 -0.3921 -0.2740
18522W        W38056  14.292   7.120   3.171 -0.2274 -0.0488 -0.2943
18523W        W38057   4.901  18.380  11.220 -0.0224  0.1788  0.3519
18524W        W38058  17.621  13.678  10.263 -0.2662  0.0617  0.0591
18525W        W38059  13.307  16.305  12.005  0.0084  0.2486  0.0094
18526W        W38060   7.863  14.431   1.270  0.0049 -0.1274 -0.2623
18527W        W38061  15.859   1.292  12.688 -0.1918  0.1818  0.1366
18528W        W38062   2.920   9.056   4.590 -0.2936  0.2004 -0.0094
18529W        W38063   3.828   3.544   1.856 -0.1103  0.0557  0.2173
18530W        W38064  15.947  17.218   3.826 -0.3084 -0.0484 -0.1010
18531W        W38065   5.957  11.469  10.984  0.1709  0.1303 -0.3282
18532W        W38066  16.624  10.110   1.501  0.0143 -0.1649 -0.2820
18533W        W38067   9.937  14.216  14.366 -0.1169 -0.0580 -0.0377
18534W        W38068   7.541   8.904  14.421  0.0220  0.2700  0.2295
18535W        W38069   8.208   1.767  12.297  0.0623 -0.1315 -0.0473
18536W        W38070  16.977   7.301   2.642 -0.1470  0.3580  0.0207
18537W        W38071   6.897   0.174  12.830  0.2878  0.2126 -0.1253
18538W        W38072  16.422  12.961   1.513 -0.2560  0.4280 -0.0626
18539W        W38073   2.681   4.609  10.159 -0.0656  0.0222  0.0936
18540W        W38074  14.876   7.381  13.170 -0.0794  0.1779 -0.1635
18541W        W38075   3.118   1.132   0.112 -0.1193 -0.1494  0.1004
18542W        W38076   8.601  12.521   0.027  0.2191  0.0461 -0.1386
18543W        W38077   4.962  10.174  12.019  0.2272  0.0408 -0.1892
18544W        W38078   6.350   8.436  12.471  0.1392  0.0529  0.0991
18545W        W38079  15.648  15.789   1.534 -0.1358  0.1480  0.0336
18546W        W38080   8.687   0.036   1.594  0.1438  0.0320 -0.0896
18547W        W38081   6.841   5.026   3.662  0.3169 -0.0827 -0.0567
18548W        W38082  17.693   2.444   3.485 -0.1395  0.1917 -0.2491
18549W        W38083   9.196  15.659  15.265 -0.1378  0.1985  0.1111
18550W        W38084  11.305  12.200  13.220 -0.0985  0.1478 -0.1446
18551W        W38085   0.435   9.196   2.199  0.1026 -0.2943 -0.3570
18552W        W38086  10.153   5.381  15.830  0.3325 -0.4006  0.0275
18553W        W38087   2.072   5.859  13.824  0.0329 -0.0823  0.1904
18554W        W38088  18.294  11.703  13.810  0.2624  0.3148 -0.1252
18555W        W38089  16.436  11.899  14.457 -0.0729  0.2105 -0.3989
18556W        W38090   2.255   5.013  13.432  0.0842  0.0777  0.1068
18557W        W38091  11.422   3.306   3.103  0.1445  0.2095 -0.0464
18558W        W38092   2.115   6.367   4.337  0.1430  0.0093 -0.0607
18559W        W38093  15.388   4.121  14.117  0.0847 -0.0674 -0.1376
18560W        W38094  10.823   6.265  15.745 -0.1990  0.1914  0.1261
18561W        W38095   4.759  11.194  12.486  0.1063 -0.1829 -0.1959
18562W        W38096   9.171   4.310   1.158 -0.0527  0.0056 -0.1672
18563W        W38097   2.297   9.345   2.198  0.2380 -0.0399 -0.1996
18564W        W38098  10.728   7.547   3.537 -0.1850  0.0129  0.1683
18565W        W38099   3.824  12.529  11.374 -0.1537  0.0671  0.0292
18566W        W38100   2.489  15.370   0.568 -0.1154  0.1383 -0.1829
18567W        W38101   4.590   6.604  11.803 -0.1837  0.0604 -0.1426
18568W        W38102   1.337   4.282  11.195 -0.1416  0.2714 -0.2174
18569W        W38103  11.998  11.269   1.571 -0.2980 -0.0282  0.0777
18570W        W38104   7.586  13.159   3.636  0.1174 -0.0996 -0.1347
18571W        W38105   2.340  13.303  13.815  0.1794  0.0379  0.1302
18572W        W38106  11.560   7.653  12.067  0.2450  0.0543  0.2721
18573W        W38107   6.115   0.609   4.597 -0.3487 -0.2857 -0.0998
18574W        W38108   7.188   2.848  15.797 -0.0132 -0.3492  0.1137
18575W        W38109   3.612  10.719   0.977  0.2171 -0.0014 -0.0009
18576W        W38110   8.068   7.969  13.350 -0.0710  0.0434  0.0840
18577W        W38111   9.243  16.913  13.021 -0.1953  0.1069 -0.0141
18578W        W38112  15.948  16.587  14.156  0.2236  0.0737  0.1372
18579W        W38113   0.849   9.924  15.049  0.0983  0.0920  0.0140
18580W        W38114   8.688   7.333  12.994  0.3807  0.0631  0.2298
18581W        W38115  15.778   5.285  12.812  0.2047  0.0054  0.1832
18582W        W38116  14.448   0.575  14.842 -0.0936 -0.1801  0.2056
18583W        W38117   6.199  17.180  15.663  0.1746  0.0226 -0.0206
18584W        W38118   9.606   8.334   4.762  0.0414 -0.0217  0.1182
18585W        W38119  13.217  14.496   4.502  0.0691 -0.3541 -0.1345
18586W        W38120  12.090   8.069  10.986  0.1338  0.2290  0.3349
18587W        W38121   6.222   9.069   4.512  0.2657  0.2514 -0.0047
18588W        W38122   1.988  18.282   1.184 -0.1694  0.1070 -0.1683
18589W        W38123   8.823   4.082  14.236  0.1732 -0.1453  0.0337
18590W        W38124  16.216   4.773   1.564  0.0340 -0.0988  0.0724
18591W        W38125   6.248  14.155  11.949  0.0527  0.2627  0.2317
18592W        W38126  13.585   7.297   1.050  0.0149 -0.1604 -0.2514
18593W        W38127   1.994  15.695   3.451  0.2716  0.1927 -0.0250
18594W        W38128  16.167   5.643  11.278  0.2132 -0.2229  0.2066
18595W        W38129   4.633   3.996   0.260  0.0587 -0.0115  0.0515
18596W        W38130  13.806  10.264  12.187 -0.0577 -0.2011  0.1783
18597W        W38131   1.628   8.232  14.041 -0.3835  0.1237 -0.0474
18598W        W38132   6.274   5.520  13.365  0.1022  0.0902 -0.0215
18599W        W38133   3.056   5.119  11.914  0.1632  0.0970  0.4725
18600W        W38134   0.329   3.082   2.885  0.2053 -0.0666  0.1321
18601W        W38135  10.120  10.052   3.243 -0.1524  0.1606  0.1012
18602W        W38136   2.188  11.467   4.047 -0.1906 -0.1678 -0.0008
18603W        W38137   1.637  13.500  15.650 -0.0732 -0.0624 -0.1570
18604W        W38138  11.482   0.321   1.465  0.0885  0.2446 -0.1710
18605W        W38139   0.002  12.012   2.351  0.1002 -0.1423  0.1285
18606W        W38140  12.517   4.211  11.602  0.1542  0.0308  0.2296
18607W        W38141  12.233   0.084   3.898 -0.1541 -0.1035  0.1274
18608W        W38142   1.603  15.831   2.141 -0.3011  0.1993 -0.1078
18609W        W38143  15.667  16.325   0.336  0.1252 -0.0314  0.0126
18610W        W38144   2.366   9.807  15.652 -0.0175  0.2360  0.1779
18611W        W38145   5.883  14.252  12.287  0.1021 -0.2053  0.1666
18612W        W38146   8.208   8.853   0.238  0.0343  0.2044  0.1681
18613W        W38147   2.259   1.770  12.931  0.0828  0.2686  0.1706
18614W        W38148  11.919  15.024   4.032  0.1046 -0.1451 -0.0906
18615W        W38149   4.777  14.693   4.184  0.2231  0.3357  0.1495
18616W        W38150   4.664  17.536   0.590 -0.0559 -0.1234  0.0150
18617W        W38151   9.869  13.387   2.327 -0.1842 -0.0303  0.0275
18618W        W38152  14.828   7.482   3.887 -0.0300  0.1376  0.3250
18619W        W38153  17.523  11.429  11.547  0.3143  0.1705 -0.1132
18620W        W38154  12.272   6.607   0.907 -0.0021  0.0426 -0.2746
18621W        W38155  18.179  15.323  15.714 -0.2706 -0.0999 -0.1837
18622W        W38156   3.400  13.597  12.592 -0.2069 -0.4223 -0.2883
18623W        W38157   4.657   2.717   2.042 -0.1162  0.2510  0.0305
18624W        W38158   5.501  16.018  14.904 -0.2266 -0.0303  0.1984
18625W        W38159   4.422   8.974   1.826  0.0747 -0.1859 -0.2288
18626W        W38160  16.588  15.257   0.307 -0.0460  0.0382 -0.0113
18627W        W38161   5.859  13.256  11.521  0.0659 -0.1852 -0.0417
18628W        W38162  11.299   5.982  15.522  0.2687  0.0516 -0.1450
18629W        W38163  14.130   9.713   2.763 -0.0859  0.0078  0.1680
18630W        W38164  12.352  13.735  13.112 -0.0956 -0.3654  0.0549
18631W        W38165   0.838  16.394   0.751  0.2158  0.1441 -0.2382
18632W        W38166   3.029   3.135   1.017 -0.2329  0.2118  0.1016
18633W        W38167  11.881  15.517   3.732  0.0442  0.2768  0.2652
18634W        W38168  16.072  11.163  11.141  0.3167  0.0146 -0.0569
18635W        W38169  13.328   0.398   3.765  0.3713 -0.1918  0.0521
18636W        W38170   1.699  10.450  13.960  0.1732  0.1913  0.1805
18637W        W38171   7.947  11.843  14.925 -0.0697 -0.1733  0.1698
18638W        W38172   2.618  14.814   4.425 -0.3534 -0.0130 -0.0842
18639W        W38173   2.996   6.114   3.979 -0.0689 -0.0720  0.0902
18640W        W38174  11.569  16.053  12.674  0.0316 -0.2081 -0.0371
18641W        W38175   9.671   2.423   2.166  0.2558  0.2276 -0.0916
18642W        W38176   3.592   8.764  11.610  0.0390 -0.0804 -0.0259
18643W        W38177  17.454   8.829  12.111 -0.1481  0.1015 -0.0589
18644W        W38178   2.578   9.000  14.963 -0.1514 -0.0297  0.0138
18645W        W38179   6.301   5.874   4.350  0.2004  0.2174 -0.0740
18646W        W38180   4.863  15.848  12.276  0.0547  0.0769 -0.1588
18647W        W38181   5.581  17.132   0.883 -0.3027  0.2919  0.2970
18648W        W38182   4.747   8.613  13.507 -0.0181  0.2956 -0.0484
18649W        W38183  12.106  13.815  15.067 -0.0396 -0.1665 -0.1125
18650W        W38184  12.117  16.203  11.426  0.0771  0.0456 -0.0523
18651W        W38185   7.881  11.944  13.681  0.2315  0.0335  0.2662
18652W        W38186   7.608   1.101  12.855  0.0646  0.0046  0.0001
18653W        W38187  13.120  12.687  15.682  0.0095 -0.0150  0.2206
18654W        W38188  17.364  17.616  15.414 -0.2168 -0.2403  0.4287
18655W        W38189   5.730   1.342   4.594 -0.1327 -0.0778  0.2712
18656W        W38190   4.070  14.657  10.696  0.3303  0.0253 -0.0106
18657W        W38191  10.176  10.405   1.576 -0.1488  0.0510  0.0738
18658W        W38192  16.842  16.026  14.276  0.3420 -0.0266  0.1015
18659W        W38193  17.183   5.632   3.949 -0.2786  0.2293  0.2128
18660W        W38194  15.375  11.128   3.396  0.0857  0.0348 -0.0339
18661W        W38195  11.859  17.167  13.719  0.1206  0.0055 -0.1069
18662W        W38196  15.360   9.711   0.262 -0.2411 -0.0578 -0.0349
18663W        W38197   4.865  15.646  15.502 -0.1211 -0.0870  0.0529
18664W        W38198   7.591   3.224  15.701 -0.0150  0.2344 -0.0333
18665W        W38199  13.159   5.432   0.264 -0.0298  0.1807  0.2597
18666W        W38200   8.342  12.306  13.736  0.1458 -0.0005 -0.0310
18667W        W38201   7.229  12.552  12.418 -0.2717 -0.0782 -0.1756
18668W        W38202   7.737   8.275  12.501 -0.0013 -0.0002  0.0117
18669W        W38203   0.325   0.254   3.468  0.1666  0.1139 -0.1858
18670W        W38204   0.979  10.785  13.513  0.1492 -0.1450  0.1612
18671W        W38205   1.869  17.554   1.740  0.3557  0.0962 -0.2492
18672W        W38206   8.069  16.377  13.053  0.1687 -0.2860 -0.0380
18673W        W38207  10.562  12.075   3.841 -0.0204  0.1412  0.1130
18674W        W38208  12.646  13.748   3.246  0.0160  0.1642 -0.0549
18675W        W38209   7.666  13.183  12.629  0.0097 -0.0312  0.0818
18676W        W38210   9.541   9.361   2.146 -0.0045  0.1802  0.1715
18677W        W38211  10.614  10.361  14.750 -0.0394  0.1918 -0.3838
18678W        W38212   7.641  11.084  15.107 -0.0481 -0.2597  0.1280
18679W        W38213  17.096  16.520   2.062 -0.1547 -0.0275 -0.0063
18680W        W38214  11.525  17.927  11.982  0.0909  0.0369 -0.1770
18681W        W38215   2.711   4.278  14.978 -0.0573  0.0172 -0.2919
18682W        W38216   4.637   1.248  13.719 -0.2374  0.0361  0.0283
18683W        W38217   1.761   9.204   2.742 -0.1574 -0.1397 -0.0141
18684W        W38218   5.280  10.556   0.941  0.1615 -0.1664 -0.1196
18685W        W38219   4.542   9.084  11.110  0.0960  0.1945  0.2014
18686W        W38220  11.330  15.078   2.124  0.0145  0.0503  0.1746
18687W        W38221   5.511   5.541  15.547 -0.0028  0.1878  0.1741
18688W        W38222  17.046  11.399  11.275 -0.0807  0.2743  0.0783
18689W        W38223   6.947   1.518   3.907  0.1548  0.1814  0.0477
18690W        W38224   6.743  10.770   4.937 -0.0029  0.2390  0.3732
18691W        W38225  15.760   8.098  14.044 -0.0184 -0.0008  0.1441
18692W        W38226   8.724  12.007   0.911 -0.0131 -0.0324 -0.0661
18693W        W38227  12.430   7.019   1.193  0.0346  0.3900  0.1111
18694W        W38228  17.726   2.726   1.110  0.3161 -0.2999  0.1365
18695W        W38229   6.780  14.330  12.012 -0.1156 -0.1081 -0.1503
18696W        W38230  13.370   9.930  13.310  0.0004  0.1180 -0.2811
18697W        W38231  12.303   3.049   3.131 -0.0750 -0.1040  0.0263
18698W        W38232  18.319  10.200  11.599 -0.1675  0.0597  0.1068
18699W        W38233  16.549  15.022  13.052  0.1432  0.0811  0.0920
18700W        W38234   4.780   1.880  15.027 -0.0242 -0.1267 -0.4213
18701W        W38235   8.083   7.576  15.602 -0.4626  0.0279  0.1073
18702W        W38236   9.163   0.191   2.794 -0.1995 -0.3655 -0.0214
18703W        W38237  13.886   1.801   4.327  0.1856  0.1012 -0.0725
18704W        W38238   1.438   0.647   1.985  0.0929 -0.1027  0.1130
18705W        W38239   1.602   4.142   0.751 -0.0848  0.1004  0.0393
18706W        W38240  15.247   8.301  13.917 -0.0687  0.0675  0.1390
18707W        W38241   7.112  10.813  15.084  0.1931  0.5260 -0.0281
18708W        W38242   2.602   5.984  11.988 -0.0116 -0.2587  0.0097
18709W        W38243  10.914   7.210  11.221 -0.0965 -0.1127 -0.0416
18710W        W38244   6.827  13.472   0.829 -0.2561  0.1494  0.0051
18711W        W38245  11.105  13.619   1.957  0.0387  0.0548 -0.3292
18712W        W38246   9.418  11.151  15.160 -0.0774 -0.2294  0.0377
18713W        W38247  13.305  14.697  15.293  0.2778  0.0036  0.3620
18714W        W38248   8.992   8.466   5.138  0.2995 -0.1869 -0.0707
18715W        W38249   0.541   8.526   3.265  0.3041  0.0923 -0.0431
18716W        W38250   9.666   0.053  13.905 -0.1361  0.3119  0.1085
18717W        W38251   8.078  16.856   3.585  0.2555  0.0078  0.1480
18718W        W38252   8.196   1.278  11.114 -0.2692  0.3245 -0.2262
18719W        W38253  13.329  12.592  11.595 -0.1357 -0.0783  0.3195
18720W        W38254   5.612  11.407   3.366 -0.1665  0.1198 -0.3080
18721W        W38255  17.386   9.808   4.128 -0.1578  0.2081 -0.1618
18722W        W38256  13.655   2.973  12.232 -0.0957  0.0542  0.3922
18723W        W38257   3.813   1.858   4.967  0.1359 -0.0176  0.2855
18724W        W38258  17.997  13.228  14.780  0.2742  0.2924 -0.1619
18725W        W38259  13.964   3.186  12.887 -0.2261  0.1802  0.0287
18726W        W38260   7.049   8.047   2.396 -0.0013 -0.5178  0.0683
18727W        W38261   6.569   6.247  13.385 -0.1928 -0.2875  0.1232
18728W        W38262  11.451   1.901  13.131 -0.0125  0.0529  0.0855
18729W        W38263   2.549   7.871   1.483  0.1903 -0.0924  0.2519
18730W        W38264   2.538  13.662   2.895 -0.1812  0.1067  0.0233
18731W        W38265  14.427  11.929   2.807  0.1955 -0.0955  0.2879
18732W        W38266   3.116  13.459   1.225  0.2329 -0.1605  0.1348
18733W        W38267  14.768   4.873  15.248  0.0722 -0.1991 -0.0162
18734W        W38268   4.605  11.388  13.012  0.1459  0.4375  0.2237
18735W        W38269   7.723  16.406  15.104  0.0028 -0.0600  0.0807
18736W        W38270  10.926   3.793   4.856 -0.4960 -0.1061 -0.0855
18737W        W38271   7.345   9.712  12.124 -0.0523 -0.3787 -0.1929
18738W        W38272   4.534  11.917  14.316  0.0506  0.0522 -0.2857
18739W        W38273   2.793   8.583  11.579  0.1522  0.1077  0.0287
18740W        W38274   1.277   0.591  10.122 -0.1195  0.2071 -0.1144
18741W        W38275  17.094   8.993   3.151 -0.3728  0.2987  0.1562
18742W        W38276   0.647   3.399   3.142 -0.0156  0.0071  0.3409
18743W        W38277   0.491  13.831  15.444  0.0912  0.1635  0.0582
18744W        W38278   5.637   6.658   0.614  0.2557 -0.0573  0.1873
18745W        W38279   9.028  16.465  15.472  0.0967 -0.2277 -0.1844
18746W        W38280   9.213   3.335   3.566 -0.1730  0.2426  0.2759
18747W        W38281   2.710  13.488  14.138 -0.4374  0.3204  0.1233
18748W        W38282   0.831  10.348   3.332 -0.0281 -0.2725 -0.0617
18749W        W38283   8.957  17.410   3.967  0.1266 -0.1721 -0.0668
18750W        W38284   2.722   1.800   4.561  0.1187  0.2007 -0.0636
18751W        W38285   0.065   5.079   0.558 -0.4875  0.1005  0.1734
18752W        W38286  13.675  16.210   2.354  0.1247 -0.2506 -0.0294
18753W        W38287   0.697  10.224  14.283 -0.2405  0.0535 -0.0077
18754W        W38288  10.195   1.117   2.210  0.0656 -0.0711  0.0765
18755W        W38289  18.064   6.310  12.573 -0.0495 -0.0642  0.0464
18756W        W38290  12.950   8.189   1.575 -0.0121 -0.4327  0.0149
18757W        W38291   2.958   4.541   4.587  0.0239 -0.4021 -0.0668
18758W        W38292   5.313  16.124  15.389  0.1173  0.1461  0.0483
18759W        W38293  11.355   6.526  12.905  0.0504 -0.0363  0.0403
18760W        W38294   9.782   6.378   3.393  0.1542 -0.0226  0.2401
18761W        W38295  12.406  17.212  15.659  0.1631 -0.2076 -0.3368
18762W        W38296   2.102  10.696  10.747 -0.1823  0.0072 -0.0731
18763W        W38297  10.740  17.171  15.461 -0.1289 -0.3112 -0.0826
18764W        W38298   7.138   0.078   3.026 -0.2203 -0.0073  0.0996
18765W        W38299   0.139  11.849  12.851 -0.1538 -0.1203 -0.0540
18766W        W38300   5.402  10.205  13.341 -0.1205  0.0554 -0.0806
18767W        W38301   4.349  16.286   0.115 -0.0266  0.2933 -0.4550
18768W        W38302  13.158  17.884  13.831  0.0367 -0.2250  0.0927
18769W        W38303   7.793   1.805  13.530 -0.3284 -0.3511  0.1665
18770W        W38304   2.317   8.774   1.482 -0.3257 -0.1604 -0.1569
18771W        W38305   0.951   1.152  13.022  0.1440 -0.1354 -0.0095
18772W        W38306   6.475  11.612  14.868 -0.0431  0.0163 -0.5252
18773W        W38307   4.345  15.499  15.480  0.0810  0.0514 -0.0708
18774W        W38308   7.215   7.315   0.527  0.0961  0.0007 -0.0401
18775W        W38309  11.378   1.260   1.155  0.0024  0.0787 -0.1186
18776W        W38310  13.430  12.171   0.980 -0.2641 -0.2094  0.0156
18777W        W38311  15.978  14.056   4.787  0.0216  0.2112 -0.0571
18778W        W38312  11.155   8.479  11.474  0.0881 -0.0811  0.2610
18779W        W38313  11.525  12.704   0.439  0.1137 -0.1618  0.0650
18780W        W38314  17.040   4.090  12.733 -0.1364  0.0467 -0.1126
18781W        W38315   6.010  12.821   5.019 -0.0056 -0.3002 -0.1422
18782W        W38316  16.871  10.163   2.031  0.1922  0.2234  0.1567
18783W        W38317  13.325   2.455  14.736  0.1030  0.4661  0.0985
18784W        W38318  17.052  14.479   4.160 -0.0898  0.2091 -0.2262
18785W        W38319   1.429   6.538   1.137 -0.2074  0.0293 -0.2868
18786W        W38320   9.333   9.266   4.848 -0.0084 -0.2002 -0.0455
18787W        W38321   5.468  18.107  11.555 -0.0280  0.2726 -0.0000
18788W        W38322  13.835   5.995   3.250  0.3299 -0.1841 -0.1474
18789W        W38323   5.727   3.388   4.020 -0.1318 -0.1243  0.1454
18790W        W38324  18.223   6.547  13.118 -0.0125  0.2575 -0.2092
18791W        W38325   3.650   4.809   4.702  0.1708  0.0587  0.1316
18792W        W38326   4.562   1.299   3.814 -0.2080  0.1026  0.0118
18793W        W38327  10.357  13.510  13.375  0.2353 -0.1060 -0.0433
18794W        W38328   2.776  13.841   2.472  0.1749 -0.0055  0.0616
18795W        W38329  13.466   7.079   2.366  0.0419  0.2165 -0.0195
18796W        W38330  13.950  17.875   1.286  0.1672  0.1808 -0.3408
18797W        W38331  17.454  14.386  11.721 -0.0104  0.2230 -0.1945
18798W        W38332  12.436  11.625   4.117 -0.3203 -0.0628 -0.0332
18799W        W38333   1.906   9.275  14.389 -0.0369 -0.1440  0.1431
18800W        W38334  15.192  11.938   4.611 -0.0327  0.1650 -0.1200
18801W        W38335  10.577  18.235  13.318 -0.1253  0.1176 -0.0989
18802W        W38336  16.655  14.683  12.090 -0.0042 -0.0584 -0.0553
18803W        W38337  18.324   6.569   3.568  0.0105 -0.1784  0.0592
18804W        W38338   2.042  14.134   0.518  0.0807  0.0815 -0.1342
18805W        W38339   9.270  16.609   1.321 -0.0925  0.0106 -0.1690
18806W        W38340  16.263  18.271   1.402 -0.1350 -0.0409 -0.0201
18807W        W38341  17.938  12.935  13.740  0.0432 -0.1826 -0.1480
18808W        W38342   9.672  12.368  15.222  0.0377  0.0191  0.0254
18809W        W38343  14.571   3.290   3.013  0.1451 -0.1810 -0.2169
18810W        W38344   1.338  10.208   3.447 -0.0353 -0.0099 -0.0656
18811W        W38345  13.844  17.682  11.712 -0.0527  0.1657 -0.0719
18812W        W38346   3.339   5.818   0.294  0.2054  0.1724 -0.3841
18813W        W38347   2.600  14.648   4.911 -0.1556 -0.1672  0.0409
18814W        W38348  12.741   3.006   2.226 -0.0308  0.0046 -0.2340
18815W        W38349  17.250  11.846   1.251 -0.0956 -0.1578  0.0758
18816W        W38350  10.189  10.483   0.689 -0.3703  0.2310  0.0294
18817W        W38351  13.093   6.695   0.661  0.1039  0.0456  0.2853
18818W        W38352   1.819  12.991   2.278 -0.2997 -0.1836  0.6654
18819W        W38353   5.026  16.364   3.675  0.0738  0.2900 -0.1103
18820W        W38354   8.392   8.033   2.684  0.0972 -0.0995 -0.0369
18821W        W38355  17.371  10.160  11.830  0.3364 -0.0371  0.0247
18822W        W38356  18.137   2.902  12.612 -0.2863  0.1154  0.1579
18823W        W38357  15.063   4.345   2.385  0.1399 -0.0075  0.2740
18824W        W38358  11.127  17.907   6.103  0.1665 -0.1697 -0.1357
18825W        W38359   4.385  14.270   3.434 -0.2657 -0.1638  0.0768
18826W        W38360   6.323   5.081  13.637  0.2891  0.6118 -0.0469
18827W        W38361   1.967   5.838   3.131  0.2511  0.1390  0.1187
18828W        W38362   3.078   8.713  15.301 -0.0190 -0.1289  0.4410
18829W        W38363  11.226  13.999   1.309 -0.2306  0.0722 -0.0650
18830W        W38364   7.199   3.219  12.922 -0.0567 -0.1796 -0.0491
18831W        W38365   8.260  13.796  12.816  0.0234 -0.0935  0.1379
18832W        W38366   8.263   2.459  11.642 -0.0397 -0.0703  0.3807
18833W        W38367   9.731   9.648   1.796  0.0157 -0.0519 -0.0218
18834W        W38368   1.561   8.550   9.824  0.2584  0.3108  0.0942
18835W        W38369  15.667   1.192  11.840 -0.1368  0.1083  0.0502
18836W        W38370   2.993   4.993  12.779  0.3607  0.2987 -0.0699
18837W        W38371  11.470  15.978  12.156 -0.0187 -0.0209  0.1138
18838W        W38372   4.682   3.204  11.288  0.0658 -0.1989 -0.2925
18839W        W38373   3.172   0.037  13.951 -0.2508 -0.2542  0.4825
18840W        W38374   3.925  11.897   3.148  0.0786  0.0528  0.0692
18841W        W38375  15.456  11.890  12.702 -0.3387 -0.3560 -0.1831
18842W        W38376   7.999   7.215  13.719  0.0641 -0.1020 -0.0932
18843W        W38377   7.072   0.414  13.806  0.1868  0.4281 -0.0692
18844W        W38378  11.706  12.046  11.722 -0.2007 -0.0310 -0.1404
18845W        W38379  17.292   9.442   3.124  0.0664  0.0963  0.1515
18846W        W38380   8.746  14.338  14.951  0.2793 -0.0972  0.1824
18847W        W38381  17.600  16.545  13.447  0.0353 -0.0058  0.0341
18848W        W38382   5.905   5.266   1.901 -0.2796  0.1106  0.0790
18849W        W38383  14.641  11.740  12.117 -0.0414  0.0956  0.0301
18850W        W38384  17.515   0.445  15.621 -0.2333  0.1725  0.1118
18851W        W38385   8.241  18.261   1.433 -0.1424  0.0476  0.3972
18852W        W38386   2.963  18.273   0.858 -0.2300  0.2220 -0.0859
18853W        W38387  11.023  11.154   3.427 -0.3655 -0.1348  0.1989
18854W        W38388  11.970   3.022   0.096 -0.1500 -0.0318  0.1524
18855W        W38389   5.663  11.752   0.468 -0.1753 -0.0271  0.0415
18856W        W38390  12.829   4.215  15.316 -0.1988  0.2971  0.0104
18857W        W38391  15.155  13.359  12.286  0.0276 -0.0077  0.0516
18858W        W38392   2.720  14.961  15.695 -0.1918  0.1791  0.2256
18859W        W38393  16.952   6.971   3.515  0.0069  0.0750 -0.0191
18860W        W38394   5.780   2.127  10.599 -0.0219  0.2485  0.0895
18861W        W38395  13.485   7.846  10.980 -0.1973  0.0308 -0.5959
18862W        W38396   0.927   6.783   3.667  0.1444 -0.0614 -0.0113
18863W        W38397   8.955  11.601  14.974  0.0399  0.2780 -0.3512
18864W        W38398  18.249  10.687  11.464  0.0134 -0.0729 -0.0551
18865W        W38399   6.998  10.801  14.485  0.1971 -0.3309  0.2007
18866W        W38400   0.511   3.646   4.197  0.0529  0.0337  0.1707
18867W        W38401  10.070  15.314   2.557  0.1893  0.0781  0.2332
18868W        W38402   0.137   7.458  10.872 -0.0686  0.1168  0.0247
18869W        W38403   7.577   5.884  15.068  0.3419 -0.1229 -0.0855
18870W        W38404   1.789   9.430  11.961 -0.0553  0.0490 -0.1868
18871W        W38405  14.087  17.660  13.954 -0.0137 -0.0534 -0.1294
18872W        W38406  15.018  12.499  14.775  0.0345  0.2818 -0.0123
18873W        W38407   0.660   4.230  15.090  0.0405 -0.0244 -0.2170
18874W        W38408  10.453  17.206  13.602 -0.3133  0.0438 -0.1095
18875W        W38409  15.706   1.105  10.629 -0.1140 -0.1285 -0.2514
18876W        W38410   3.807   2.465   3.906  0.1855 -0.4245 -0.1167
18877W        W38411   8.677  12.830   1.830 -0.3181 -0.0963 -0.2915
18878W        W38412   6.473  13.361  15.805 -0.3845 -0.1928  0.2557
18879W        W38413   4.229  13.881   3.773 -0.0510 -0.0149  0.1488
18880W        W38414  11.336   0.751  11.300  0.2083 -0.1018 -0.0221
18881W        W38415   6.740   2.303  13.576 -0.1208 -0.2425  0.2619
18882W        W38416   6.510   2.308   3.897  0.2714  0.2356 -0.2051
18883W        W38417  15.423   5.664   3.811 -0.1928  0.0730 -0.1553
18884W        W38418   7.285   8.805  13.325  0.0657 -0.1235 -0.1134
18885W        W38419  15.265  12.096   3.813 -0.2366 -0.2564  0.1463
18886W        W38420   1.683   7.868  12.291  0.0688  0.0836  0.0777
18887W        W38421  18.259   5.318   1.350  0.1262 -0.0001 -0.1665
18888W        W38422   1.363   0.447   4.563 -0.0250 -0.2453 -0.0377
18889W        W38423   1.863   9.957  15.722  0.0797 -0.0170  0.1218
18890W        W38424   1.334   7.469   3.998 -0.2588 -0.0711 -0.2672
18891W        W38425   3.416   0.676  15.096 -0.1139  0.0571  0.1449
18892W        W38426  16.426  17.134   3.024  0.1534  0.0090 -0.1811
18893W        W38427  10.404  17.053  11.805 -0.0524  0.2926  0.0136
18894W        W38428  17.720   1.448   1.669 -0.1968 -0.2372  0.0798
18895W        W38429   5.086   2.715  14.868  0.0972 -0.0041 -0.0975
18896W        W38430   7.565  12.837  13.801  0.1059 -0.0427  0.1271
18897W        W38431  11.609   3.824   3.070  0.2004  0.3399 -0.1302
18898W        W38432   2.356  17.770   2.070 -0.0797  0.3095  0.1003
18899W        W38433   2.626  11.956  11.358 -0.1792  0.3089 -0.3477
18900W        W38434  10.604  13.692   2.392 -0.0362  0.1414  0.0636
18901W        W38435   4.226  17.919   4.646 -0.4616  0.3852  0.2814
18902W        W38436   6.449   9.377  13.668 -0.0584 -0.0866 -0.3025
18903W        W38437   8.232   3.694   1.498  0.0373 -0.2598 -0.3701
18904W        W38438  13.029  17.201  13.109 -0.3505  0.2833 -0.1233
18905W        W38439   8.432   9.793  15.425  0.3180 -0.2988 -0.3020
18906W        W38440  16.624  14.979   3.036 -0.1500 -0.2425 -0.3012
18907W        W38441  14.460   7.123   0.671  0.0319  0.0999  0.4150
18908W        W38442   1.036  14.667   3.328 -0.0186 -0.0400  0.0951
18909W        W38443   7.911  16.330   3.337  0.3029 -0.0468 -0.0416
18910W        W38444  10.592  12.248  12.395  0.0508 -0.1125 -0.2159
18911W        W38445   8.597   3.078  11.940 -0.1306  0.0840 -0.0332
18912W        W38446  10.987   6.537  14.784  0.2358  0.0549 -0.0404
18913W        W38447  10.987  14.708  15.180 -0.0036  0.2698  0.2163
18914W        W38448   7.515  13.424   4.842 -0.3500  0.1672 -0.2188
18915W        W38449  12.246   6.161  15.493  0.0976  0.2431  0.0048
18916W        W38450   1.103   4.742  14.544 -0.1732  0.2541  0.0732
18917W        W38451   3.072  16.384  12.994  0.2037 -0.2006  0.0718
18918W        W38452  12.944  16.945   1.786  0.1867  0.3546  0.0500
18919W        W38453   1.165   8.077  14.467 -0.0239  0.1852  0.1847
18920W        W38454   7.367  14.693   3.107 -0.3409  0.2953  0.1114
18921W        W38455  17.636  11.681  15.806  0.2044 -0.2470  0.1551
18922W        W38456  16.146  15.386  15.824  0.1457 -0.1272  0.0799
18923W        W38457   5.558   2.238   2.392  0.0720 -0.0554  0.0886
18924W        W38458  12.609  17.601  15.290 -0.1818 -0.0198 -0.2756
18925W        W38459   6.652   2.041  14.272 -0.2291  0.0113  0.0134
18926W        W38460   8.380   0.030  11.682 -0.1419  0.0922 -0.2228
18927W        W38461  14.533  17.014   1.471 -0.0063  0.1018  0.0371
18928W        W38462  16.786  12.394   3.008 -0.3591 -0.0716  0.1209
18929W        W38463  12.511   7.672  15.234  0.4991  0.2754 -0.4589
18930W        W38464   8.487   7.607  12.620 -0.2605  0.2126  0.5407
18931W        W38465  15.432   4.570   1.203  0.1076 -0.3932 -0.1697
18932W        W38466   7.060   0.542   3.209 -0.1127 -0.1589 -0.2682
18933W        W38467  12.911   4.026  11.348  0.0812 -0.2486 -0.0755
18934W        W38468   7.833  13.563   0.929 -0.1341  0.0460 -0.0795
18935W        W38469   6.217   8.173   2.640 -0.3082  0.0253  0.0491
18936W        W38470   9.578  16.559   2.213 -0.0424  0.3588 -0.2048
18937W        W38471   0.557  17.639  13.441 -0.1708  0.1286 -0.0768
18938W        W38472  11.773  16.758  14.069 -0.0723  0.0811  0.2082
18939W        W38473  12.181  14.616  12.555 -0.0947  0.0100  0.2037
18940W        W38474   1.267   7.817   1.920 -0.1880  0.0059  0.1516
18941W        W38475  16.633  12.694   2.089  0.1126 -0.1206  0.1766
18942W        W38476   9.061  17.559   2.788  0.4112  0.4397 -0.1876
18943W        W38477   4.233   0.349  11.929 -0.0002  0.0652  0.1215
18944W        W38478   4.409  18.119  13.929 -0.3952  0.0599 -0.1869
18945W        W38479   3.562  15.045  14.463  0.1593 -0.0570  0.0799
18946W        W38480   7.651   8.354   2.578 -0.2067 -0.0509 -0.0912
18947W        W38481   0.079  17.530  12.175  0.2509  0.1765 -0.1417
18948W        W38482   4.608  16.629   0.874 -0.0039  0.0932  0.1228
18949W        W38483  12.552  15.456   0.200  0.0114  0.0446  0.1638
18950W        W38484   4.177   2.430   1.028 -0.2047  0.3297  0.2428
18951W        W38485  10.079   6.415  12.430  0.0342 -0.0722 -0.0450
18952W        W38486  16.602  11.089   2.132  0.0898  0.2530 -0.1133
18953W        W38487  13.209  13.658   3.896  0.1209  0.1255  0.1009
18954W        W38488  10.509   3.218   3.059 -0.1301 -0.1987  0.1713
18955W        W38489   0.992  14.951  15.052  0.0092  0.0630  0.1357
18956W        W38490  12.307  12.874   4.133  0.2233  0.0663 -0.0079
18957W        W38491  15.974   7.336   3.894 -0.0695 -0.1896 -0.0012
18958W        W38492  14.143   8.031   2.038 -0.2260  0.0142 -0.0743
18959W        W38493  16.709   9.686   1.788 -0.2682  0.0008  0.1722
18960W        W38494   2.783  14.905   1.438 -0.0190 -0.1134  0.2045
18961W        W38495   7.944  17.342   2.000 -0.0453  0.2926 -0.0225
18962W        W38496   2.096  10.210  14.835  0.1195  0.1169 -0.0205
18963W        W38497  12.976   7.401  15.404  0.0313 -0.0072  0.3484
18964W        W38498   6.533  14.774  14.931 -0.1413 -0.1148 -0.0142
18965W        W38499   2.714   9.764  12.279  0.1042 -0.1215  0.0652
18966W        W38500  14.581   8.350   4.086 -0.0867  0.0817 -0.2602
18967W        W38501   8.623   3.290  12.452  0.2054 -0.0706 -0.1497
18968W        W38502   5.385   6.253   3.344  0.0736  0.3632 -0.0013
18969W        W38503   5.943   9.044   2.129 -0.0493 -0.3337 -0.2008
18970W        W38504  16.321  11.853   1.198 -0.3070  0.0493  0.1882
18971W        W38505  16.725   3.124   1.829 -0.1316 -0.2370  0.3120
18972W        W38506  16.071   8.364  15.229  0.0093 -0.2345 -0.0484
18973W        W38507  13.272   2.342   4.260 -0.2395  0.3819 -0.1193
18974W        W38508   1.613   6.271   2.951 -0.4560  0.1800  0.1829
18975W        W38509   9.965   4.900  13.110  0.2101  0.0543  0.0624
18976W        W38510   0.077   4.270  15.159 -0.0895 -0.1299 -0.1262
18977W        W38511  13.309  11.719   0.143  0.1738  0.0107 -0.3374
18978W        W38512   7.023  12.844   1.884  0.1613  0.1930 -0.1201
18979W        W38513   2.311  12.023  14.551  0.1318 -0.0292 -0.0532
18980W        W38514  17.282   2.964   3.551 -0.0243  0.0187  0.0311
18981W        W38515  17.435  12.030  13.604 -0.2368 -0.1704 -0.0226
18982W        W38516  14.490   3.842  13.986 -0.0182  0.1232 -0.1090
18983W        W38517  17.928  15.291  13.822 -0.1814 -0.0316  0.0117
18984W        W38518   2.289   9.698   4.636  0.0491 -0.2753  0.0066
18985W        W38519   2.828  16.606   3.167 -0.0861 -0.2454 -0.0399
18986W        W38520  16.103  13.563   2.010 -0.0915 -0.0414 -0.3112
18987W        W38521  13.244  14.042  11.733 -0.0177 -0.2195 -0.2075
18988W        W38522  11.957   0.418  13.175 -0.1465 -0.1271 -0.1278
18989W        W38523   7.646  13.997   1.069 -0.1263 -0.0727  0.0554
18990W        W38524   5.904   1.386   2.811 -0.0181 -0.0048  0.1557
18991W        W38525   7.605   2.875  11.447 -0.0740  0.0588 -0.1649
18992W        W38526   9.061   0.286   0.004  0.2884 -0.0161 -0.0603
18993W        W38527  17.386   5.027  13.700 -0.1602 -0.1412  0.0522
18994W        W38528   5.602   4.046  12.722 -0.1466 -0.2887 -0.1975
18995W        W38529   7.828   4.849  14.926  0.0998  0.1001  0.1097
18996W        W38530   3.277   8.446  11.413  0.2007 -0.1309  0.2703
18997W        W38531  12.067   6.818  11.682 -0.0700 -0.1484 -0.1029
18998W        W38532   6.904   3.218  14.285  0.0504  0.0225 -0.0409
18999W        W38533  13.300  15.121   4.090  0.0471  0.0247 -0.2356
19000W        W38534  17.792   0.719   2.699 -0.1310  0.0228  0.0088
19001W        W38535   2.592   0.277  13.463  0.0492  0.0120 -0.1771
19002W        W38536  11.903  12.211  14.209 -0.0480  0.0301  0.1174
19003W        W38537  13.011  16.387   0.584  0.1969 -0.0070 -0.0094
19004W        W38538  14.333   9.881  11.683 -0.1361 -0.0392 -0.1760
19005W        W38539  11.371   5.068   5.141  0.1115 -0.0820  0.5668
19006W        W38540  13.278  15.578   3.785  0.1358 -0.3246 -0.0953
19007W        W38541   5.634  14.732  13.094  0.0049  0.1355  0.1315
19008W        W38542  11.811   7.532  15.594  0.0371 -0.3693 -0.0342
19009W        W38543   7.796  13.641  13.651 -0.3052  0.0297 -0.2167
19010W        W38544   8.034  13.968   1.348 -0.2776 -0.0676  0.0206
19011W        W38545  15.286   3.190   4.723 -0.2804 -0.1302  0.4096
19012W        W38546  14.757   0.446   0.416 -0.2766 -0.0510 -0.4437
19013W        W38547  18.316  12.144  14.306  0.0353 -0.6442 -0.0930
19014W        W38548   6.711  13.527   4.275 -0.2991 -0.0437  0.1669
19015W        W38549   5.138   4.188   1.489  0.1227 -0.0529  0.0385
19016W        W38550   6.876   1.133   0.252 -0.0128  0.2158 -0.0929
19017W        W38551   4.357  12.266   2.481 -0.3157 -0.0801  0.0478
19018W        W38552   1.574   7.435   0.677 -0.1118 -0.0552  0.0538
19019W        W38553   8.163  16.867  14.566 -0.2319  0.4362  0.1983
19020W        W38554   1.098   5.877  13.156 -0.0489  0.0819 -0.0460
19021W        W38555   1.519   2.114   3.855 -0.1671  0.1074  0.0003
19022W        W38556  16.993  17.327  11.897 -0.0110  0.1227 -0.0784
19023W        W38557   1.617  17.976  12.003 -0.0600 -0.1659  0.2425
19024W        W38558   7.742  18.280  12.706 -0.2903 -0.2726  0.0216
19025W        W38559   7.086  15.535  11.534 -0.0968 -0.1909  0.1722
19026W        W38560   3.036  13.587  13.097 -0.0909 -0.0984 -0.1871
19027W        W38561   7.181   1.134  11.421 -0.0114  0.1534  0.3450
19028W        W38562  12.166   2.107   3.796 -0.0491 -0.0048  0.0375
19029W        W38563   4.934  17.650  14.745  0.1927 -0.1965 -0.1873
19030W        W38564   1.715   2.460  15.720 -0.0703 -0.0620  0.0246
19031W        W38565   8.579  15.798  12.279  0.0606 -0.1985 -0.1257
19032W        W38566   2.155  15.164  12.572  0.0650  0.2775 -0.1860
19033W        W38567   6.563  10.326  13.651 -0.1184 -0.2572 -0.0034
19034W        W38568   9.536   7.386   0.789 -0.1920  0.1224 -0.1661
19035W        W38569   9.992   4.238  13.868 -0.4001  0.1397 -0.1285
19036W        W38570  18.263   4.665  13.376 -0.1299 -0.1128  0.0463
19037W        W38571  10.922   6.854   2.966 -0.0478 -0.0514  0.0868
19038W        W38572   0.093   4.441  10.971  0.0998  0.2862 -0.0214
19039W        W38573   8.249   9.113   1.629  0.0948 -0.1726 -0.1029
19040W        W38574  15.038   5.365   0.048  0.0474 -0.2961  0.0715
19041W        W38575  15.289  11.366  10.919  0.0912 -0.0616  0.2227
19042W        W38576  15.579   7.340   4.238  0.2589 -0.3912  0.0526
19043W        W38577  10.343   4.744  14.521  0.0812 -0.1868 -0.1067
19044W        W38578  13.635  17.827   3.168  0.2951 -0.2117  0.4045
19045W        W38579   1.630   0.128  14.404 -0.0097 -0.0712 -0.0392
19046W        W38580  18.306  16.567   1.839  0.0356  0.0695  0.0430
19047W        W38581   5.955   7.736  13.584  0.1621 -0.0776  0.1498
19048W        W38582  11.549  17.931   3.802  0.0961 -0.2245 -0.1461
19049W        W38583   3.897  14.875   4.030 -0.1969  0.0686  0.0673
19050W        W38584  15.304  13.196   3.467  0.2750  0.2583 -0.0234
19051W        W38585  12.247   4.289   4.408 -0.1561  0.0001 -0.2264
19052W        W38586   2.835  13.990  10.474 -0.0568 -0.0069 -0.3212
19053W        W38587   7.627   3.738  15.685 -0.6579 -0.1108 -0.1013
19054W        W38588   8.493   9.336  15.633  0.0780  0.2007  0.2263
19055W        W38589   7.804  15.738  13.320 -0.0271  0.0076  0.1462
19056W        W38590   6.937  10.486  13.255 -0.1199  0.0411 -0.0041
19057W        W38591   5.574   5.768  11.203  0.1272 -0.4031  0.1009
19058W        W38592   3.760   4.405  11.636 -0.1329 -0.1578  0.1309
19059W        W38593   7.829  16.842   1.871 -0.1761  0.0049  0.3096
19060W        W38594  16.273  11.803   0.328  0.1245 -0.3373  0.3501
19061W        W38595  12.835   6.107   2.751  0.1749 -0.1984 -0.2115
19062W        W38596  11.097   4.021  12.480  0.0823 -0.0378  0.1543
19063W        W38597   4.596  13.533  13.737 -0.3325  0.1040 -0.0767
19064W        W38598  11.548  16.231   5.657  0.2495  0.0509 -0.1189
19065W        W38599  14.969  17.372   2.942 -0.0362  0.0772  0.0679
19066W        W38600  11.449  18.209   4.861  0.0505 -0.1911  0.1943
19067W        W38601  17.537  14.888   1.921  0.0381  0.1389  0.1070
19068W        W38602  14.720  18.264  14.114  0.2355 -0.0449 -0.0062
19069W        W38603   2.663  17.479  12.890 -0.2455  0.3339 -0.1041
19070W        W38604  15.521  17.993  13.864  0.0280  0.2718  0.1962
19071W        W38605   3.313  17.432  13.454 -0.1376 -0.1879  0.0989
19072W        W38606  17.868   4.569   0.157 -0.1899  0.0528  0.0545
19073W        W38607   3.984   2.143  12.024  0.0040  0.2028 -0.1411
19074W        W38608   7.187  16.422   2.105 -0.2356 -0.1837 -0.2468
19075W        W38609   1.847   0.711  14.215  0.2465  0.2291 -0.0489
19076W        W38610  11.409  14.567   1.942 -0.1635  0.0748 -0.0927
19077W        W38611  12.739  11.655   0.775 -0.1049 -0.3913  0.2304
19078W        W38612  16.776  10.152  12.874 -0.2627 -0.0396  0.2305
19079W        W38613   1.161   3.103  10.206 -0.0768 -0.1365 -0.0987
19080W        W38614   0.093  10.564  11.940  0.0608 -0.4792 -0.0594
19081W        W38615  16.416  16.477  13.874  0.2524 -0.1553 -0.1243
19082W        W38616   1.711   9.627  14.008  0.0965 -0.0784 -0.1822
19083W        W38617   0.981  16.464  12.459  0.2246  0.0104 -0.4296
19084W        W38618  16.213   5.016  12.645  0.2216  0.1223 -0.2070
19085W        W38619   4.002   6.075  11.415 -0.1624 -0.1668 -0.2880
19086W        W38620   1.331  13.002   1.824  0.2071  0.3183 -0.1817
19087W        W38621  13.682  14.280  12.507  0.1734 -0.0546 -0.1743
19088W        W38622   9.850   1.865   1.521  0.3394 -0.4331 -0.0936
19089W        W38623   0.538   9.083  13.924  0.1191  0.0797 -0.3396
19090W        W38624  15.553   3.389   1.804  0.0984 -0.1728 -0.1113
19091W        W38625  13.863  17.194   4.316  0.0438 -0.4432  0.1049
19092W        W38626   7.960  15.708  11.421 -0.0646  0.0491 -0.0602
19093W        W38627   2.953   4.324   3.521  0.1154  0.0614  0.0172
19094W        W38628   3.469   5.110   2.553 -0.1370 -0.0369  0.0432
19095W        W38629   4.234   9.371  15.189 -0.1773 -0.1096 -0.1568
19096W        W38630   2.685  16.136  15.040 -0.0093  0.0619 -0.2040
19097W        W38631  12.040   7.219   1.391  0.3415  0.3178 -0.1580
19098W        W38632  15.645  14.466  11.540 -0.0893 -0.0159  0.2548
19099W        W38633  15.892  17.579   1.418  0.2602  0.1843 -0.2906
19100W        W38634  11.497   5.467  15.473  0.0777  0.2184  0.1362
19101W        W38635  16.242   8.889  13.935  0.1294  0.2045  0.0379
19102W        W38636  14.878  18.124   3.446 -0.2068 -0.2022 -0.0820
19103W        W38637  13.552   8.599  12.897 -0.3279  0.1676 -0.3025
19104W        W38638   6.136  10.901  14.269  0.1098  0.0661  0.0683
19105W        W38639   1.012   4.994   2.076 -0.0955 -0.0916  0.0108
19106W        W38640  17.670  16.418  12.948 -0.0151  0.0631  0.1883
19107W        W38641  15.464  10.348  13.130 -0.2166  0.1329 -0.2115
19108W        W38642  17.089   1.077  11.978  0.0939  0.0626 -0.2953
19109W        W38643  16.821   1.158  15.378  0.1299  0.0168 -0.0592
19110W        W38644  15.623  13.746  14.189  0.1512  0.1265  0.0708
19111W        W38645  12.108   8.943   0.880 -0.1452  0.0693  0.1933
19112W        W38646   1.123   8.423  13.343  0.1175  0.0695 -0.1147
19113W        W38647   7.258  13.578   2.222 -0.2821 -0.0162  0.0086
19114W        W38648  14.588  10.037   2.666 -0.3520 -0.1915 -0.1419
19115W        W38649   7.088   4.359   0.247  0.0807  0.0689 -0.1961
19116W        W38650   4.403   5.265   4.274 -0.2767  0.5473 -0.1672
19117W        W38651  16.528   3.002  13.486 -0.0762 -0.0537  0.1234
19118W        W38652   6.947   9.245   0.759 -0.1180  0.2240  0.2810
19119W        W38653  16.633   0.027  15.362 -0.1634 -0.0981 -0.1293
19120W        W38654   3.160   5.779   4.354  0.0518 -0.0603  0.1805
19121W        W38655   9.196   5.667   0.947 -0.0506 -0.1059 -0.4729
19122W        W38656   9.516   0.148   3.935  0.1083  0.2228  0.4137
19123W        W38657  11.722  13.872   1.342  0.0362 -0.2060 -0.0616
19124W        W38658   4.165   2.214  14.479  0.1077 -0.0757 -0.3274
19125W        W38659  12.828   1.303   1.876  0.3293 -0.1068  0.0620
19126W        W38660   5.718   0.138  14.196 -0.0212  0.1260  0.0096
19127W        W38661  17.754   3.864  15.514  0.1571  0.2272 -0.0046
19128W        W38662   6.325   3.202  15.108  0.1009 -0.0216 -0.2077
19129W        W38663   8.156   8.319  14.546  0.0271  0.1723 -0.0972
19130W        W38664  17.692   5.683  11.916  0.0890 -0.1382 -0.2619
19131W        W38665  11.642   8.192   2.415  0.0281 -0.1142  0.1637
19132W        W38666  13.233  12.224   2.553  0.0935  0.1171 -0.1831
19133W        W38667   7.528   6.187  13.411  0.0424 -0.0176 -0.1577
19134W        W38668  12.877  14.858   1.374  0.0452 -0.2699  0.4468
19135W        W38669  13.122  17.009   2.555 -0.0330 -0.1239  0.0480
19136W        W38670   6.072   0.466  12.679 -0.0114 -0.1048  0.0656
19137W        W38671   4.962   9.149  11.641 -0.0881 -0.0336 -0.0028
19138W        W38672  11.747  12.695  11.824 -0.1714 -0.0480 -0.3219
19139W        W38673  15.633   2.923  13.215 -0.4442  0.0354 -0.1738
19140W        W38674  16.255  11.184   2.804 -0.1673 -0.0738  0.5216
19141W        W38675  17.757  12.295  12.545 -0.1476 -0.0405 -0.0878
19142W        W38676   2.973  12.995   0.452  0.1691 -0.3805 -0.2440
19143W        W38677  13.500   2.744   2.705  0.1029 -0.0789  0.3350
19144W        W38678   6.117   9.349  12.292 -0.1744  0.0345  0.0990
19145W        W38679   5.044   5.980   3.914 -0.0014  0.1150  0.1830
19146W        W38680  14.816  15.758   1.849 -0.0808  0.0174  0.0580
19147W        W38681  10.011   7.972  15.527 -0.1062  0.4356 -0.1566
19148W        W38682   6.005  12.426  12.111 -0.0003  0.0625 -0.2328
19149W        W38683   5.096  14.823  11.533 -0.2570  0.1819  0.0757
19150W        W38684  16.982   4.485   3.392  0.2630 -0.3567  0.2285
19151W        W38685  17.378  12.645   2.941 -0.2045  0.1460  0.0129
19152W        W38686  16.198   4.723  14.934 -0.0084 -0.0016  0.0454
19153W        W38687   7.277   0.108   3.823  0.3106  0.1768 -0.0129
19154W        W38688  11.813  13.504  11.521  0.1567  0.2395 -0.0072
19155W        W38689  13.972   7.222   0.767 -0.1085  0.1877 -0.2091
19156W        W38690  13.613   5.819   1.369  0.0913  0.2279  0.1311
19157W        W38691   7.560  15.810  12.345 -0.0474  0.1447  0.0736
19158W        W38692  15.167  10.943   2.945  0.0230  0.2998 -0.0322
19159W        W38693   5.070   7.394   0.858 -0.0676  0.0865 -0.0853
19160W        W38694   4.889  12.849   2.805 -0.4900  0.0315  0.2166
19161W        W38695  11.265  17.163   3.441  0.0763  0.0267  0.0816
19162W        W38696  10.936  12.595  12.586  0.0880 -0.1197 -0.2145
19163W        W38697  15.379  13.278  11.377  0.3910 -0.1705  0.0056
19164W        W38698   3.708   6.360   0.963 -0.1987  0.0212 -0.0158
19165W        W38699   3.480  17.740  12.204 -0.2236  0.2268 -0.1134
19166W        W38700   9.359   4.299   4.742  0.1414 -0.3198 -0.1457
19167W        W38701   4.216  14.341  11.530  0.1639 -0.1866  0.0086
19168W        W38702   2.847  10.883  11.274 -0.1728 -0.1584  0.1039
19169W        W38703  11.358  16.177  14.973  0.0365 -0.2419  0.1363
19170W        W38704  14.009  11.802   1.646  0.1089  0.2576 -0.1536
19171W        W38705   7.356   8.132  13.855 -0.2765  0.2821  0.0190
19172W        W38706   3.318   7.557   5.376 -0.0444 -0.0177  0.1058
19173W        W38707   4.901   5.998   3.186 -0.1818 -0.1297 -0.0616
19174W        W38708   5.505   2.606   0.781  0.1757  0.2218 -0.4604
19175W        W38709   1.372  11.161   0.465 -0.0108  0.0549 -0.0317
19176W        W38710   0.220   4.526  15.651 -0.1205 -0.0678  0.1532
19177W        W38711   6.110   4.693  15.786 -0.4031 -0.1414  0.0705
19178W        W38712  10.658   8.412   4.383  0.0274  0.0199 -0.1269
19179W        W38713  11.026  17.317  13.619  0.0904 -0.2130  0.1246
19180W        W38714   6.121  10.935   0.190 -0.0356 -0.0498  0.0476
19181W        W38715   1.707   3.573  12.282  0.0962 -0.4267 -0.1845
19182W        W38716  17.594   0.689  11.501  0.0164 -0.0581 -0.1849
19183W        W38717   5.912  14.662   0.352 -0.4055 -0.0269 -0.1283
19184W        W38718  15.758   9.038  11.293 -0.3723 -0.1540 -0.0042
19185W        W38719  13.582   8.199  13.799 -0.0843 -0.0434  0.1111
19186W        W38720   9.720   5.001   0.636  0.1574  0.1231 -0.1801
19187W        W38721  15.355  17.107  11.682  0.0543  0.1287  0.3819
19188W        W38722  15.076   8.670  14.151 -0.0874  0.1612  0.1725
19189W        W38723  15.451  10.240  14.047 -0.1926 -0.1480  0.1443
19190W        W38724  10.729   3.071  12.685  0.0043 -0.3231 -0.1480
19191W        W38725   5.284  11.296  14.279  0.0668  0.1774  0.0355
19192W        W38726  10.690  15.698   2.011  0.1732 -0.0088 -0.2345
19193W        W38727  15.959   2.755   3.620 -0.0738  0.0380 -0.1459
19194W        W38728   4.613   2.699  12.824  0.1178 -0.0824 -0.1007
19195W        W38729  11.908   3.665   2.690 -0.0289  0.0308  0.0993
19196W        W38730  15.156  17.186  14.761 -0.3437 -0.0908 -0.4455
19197W        W38731   8.268  11.314  14.531  0.0329 -0.2406  0.0507
19198W        W38732  13.291   6.386  14.245 -0.1633  0.0913 -0.1242
19199W        W38733  18.265  13.347   4.281 -0.1028  0.0743 -0.1077
19200W        W38734  17.843   9.308   3.114  0.0183  0.0989  0.2089
19201W        W38735  17.195  13.548   4.283 -0.2316 -0.3309  0.3322
19202W        W38736  17.407   7.839  13.090 -0.1983 -0.2245 -0.1776
19203W        W38737   8.156   6.146   3.542  0.3123 -0.1605 -0.1557
19204W        W38738   4.912   9.509  12.018  0.1491 -0.0899 -0.0548
19205W        W38739   3.151   5.272   0.794  0.4898 -0.0654 -0.2018
19206W        W38740   5.314  17.567  14.152 -0.0282  0.1240  0.1610
19207W        W38741  16.000  10.685  13.249  0.2707  0.3896 -0.0308
19208W        W38742  17.864  12.506   0.153  0.0571 -0.1313  0.0703
19209W        W38743  10.603  14.252  14.426 -0.1059 -0.0639 -0.0589
19210W        W38744  13.119   5.134  13.574  0.1022 -0.0473 -0.3360
19211W        W38745  10.530   5.075   3.833 -0.0073  0.2238  0.0662
19212W        W38746  14.002   0.476   0.514  0.0561  0.1230 -0.3014
19213W        W38747   0.401   7.583  15.231 -0.1509 -0.1727 -0.2249
19214W        W38748   8.947  10.970   1.468 -0.0023  0.0548  0.0486
19215W        W38749   7.167   7.122  13.480  0.0842  0.1724 -0.0704
19216W        W38750   7.581  13.979  12.455  0.0098 -0.0558  0.2345
19217W        W38751  14.411  11.465  13.862  0.0044  0.1063 -0.0505
19218W        W38752  13.224  16.733  13.136 -0.3885 -0.0145 -0.0265
19219W        W38753  17.359   7.490  12.678 -0.2524 -0.0109 -0.1380
19220W        W38754   2.069  12.532   2.103  0.3248  0.0341 -0.2585
19221W        W38755  16.003  15.201   1.316 -0.0815 -0.1313  0.1074
19222W        W38756  16.845  14.640  13.797 -0.0280  0.0013  0.0905
19223W        W38757  16.167   4.023  15.576 -0.0072 -0.2178  0.2998
19224W        W38758  15.415  16.038  15.068  0.1288 -0.0389 -0.1049
19225W        W38759  15.731   6.957  12.921  0.1235 -0.1888  0.0003
19226W        W38760   4.266  17.956   4.163  0.0086  0.2609 -0.0181
19227W        W38761  14.315  17.788  11.621  0.0900 -0.0220 -0.0665
19228W        W38762  10.614   8.227   0.810  0.1865 -0.5331  0.1946
19229W        W38763   5.399  13.970  14.180 -0.3434 -0.0785  0.1974
19230W        W38764   5.116   2.700   0.504  0.0172  0.0484  0.1289
19231W        W38765   3.260   1.497   2.995 -0.1292  0.2469  0.2485
19232W        W38766  13.088  15.461  13.086  0.4053 -0.3168 -0.2777
19233W        W38767   0.328  12.882   0.306 -0.0597  0.0221 -0.0293
19234W        W38768   2.749  10.671  13.407  0.2355  0.0969 -0.2100
19235W        W38769  18.278  17.917  14.773 -0.0751 -0.1909 -0.1352
19236W        W38770  17.752   8.722   2.081 -0.3093  0.1635 -0.0651
19237W        W38771  17.150   2.928   2.719 -0.1221  0.0879  0.1311
19238W        W38772  11.441   5.023  10.650 -0.0392 -0.1008 -0.2118
19239W        W38773   2.163   4.071   1.021 -0.1335 -0.2346 -0.1157
19240W        W38774  16.475  10.217  15.056  0.1535 -0.0281 -0.1711
19241W        W38775  18.332   9.730   3.984  0.0576 -0.0780  0.2835
19242W        W38776   3.974   6.232   3.276 -0.3338  0.0591 -0.0866
19243W        W38777   9.957   5.193  11.414  0.0737 -0.3061 -0.1132
19244W        W38778   9.217  13.203   1.634 -0.1292 -0.0165 -0.0660
19245W        W38779  13.692   6.542  15.810 -0.0699  0.1279  0.2187
19246W        W38780   6.856  13.101   3.091 -0.0699  0.2237 -0.0840
19247W        W38781   6.767  14.160   1.754 -0.1575 -0.1235 -0.1137
19248W        W38782  17.345  16.362   3.900 -0.1192  0.3263  0.0917
19249W        W38783   2.826   4.399   2.497  0.0420  0.1496  0.1320
19250W        W38784  18.198  16.933   4.313  0.1367 -0.0126 -0.0227
19251W        W38785   9.125   6.057  10.981  0.0195  0.1578 -0.0474
19252W        W38786  17.165  13.397  14.923  0.0514  0.2766 -0.5126
19253W        W38787   1.427  16.131  14.607  0.0065 -0.0639 -0.0791
19254W        W38788  10.967   1.926   1.849 -0.0210  0.2694  0.1163
19255W        W38789   7.885   1.917   5.217 -0.0968 -0.2566 -0.1759
19256W        W38790  15.120  11.506   2.063 -0.1333 -0.1376  0.1509
19257W        W38791   2.340  17.347  14.073 -0.3365 -0.0557  0.1259
19258W        W38792   2.098   9.088  14.870  0.3611 -0.3297  0.4032
19259W        W38793   1.598  18.299   3.862 -0.3120 -0.0462 -0.0623
19260W        W38794   0.660   0.141   0.666 -0.3555  0.0379 -0.0888
19261W        W38795   8.338  12.454   3.476  0.2649  0.0588  0.1432
19262W        W38796  12.823  14.454  14.359  0.1116 -0.1969  0.0188
19263W        W38797  17.154   8.250  13.387 -0.3849 -0.2812 -0.1310
19264W        W38798  12.788   5.828   0.500 -0.1497  0.2218 -0.1547
19265W        W38799  10.227  10.137   0.233 -0.0920  0.1135  0.0892
19266W        W38800   3.892   3.125   0.916  0.1894 -0.1909 -0.0342
19267W        W38801   7.947   4.012  13.902  0.3444  0.1574  0.0961
19268W        W38802  11.395   7.121   2.192  0.1301 -0.2306  0.0052
19269W        W38803  11.026  12.944   0.634  0.1660  0.0756  0.2763
19270W        W38804  14.184   0.258  14.527 -0.2858  0.2017 -0.1132
19271W        W38805  16.550  13.318  14.232  0.0315 -0.1416  0.0054
19272W        W38806   2.388   2.469  15.646  0.1185 -0.3805  0.3099
19273W        W38807  10.166  15.589   4.848  0.0048 -0.2711 -0.1742
19274W        W38808  17.668  15.474   3.285 -0.1240  0.1953  0.1028
19275W        W38809  14.386   0.791   0.605  0.3242 -0.0188  0.0533
19276W        W38810  14.142   0.698   1.072 -0.1019  0.0380  0.0057
19277W        W38811   9.306   9.410  15.180  0.0573  0.1587 -0.0466
19278W        W38812  14.009  17.229   3.798 -0.1327  0.1765 -0.0731
19279W        W38813   6.294  14.890   3.415 -0.1260 -0.0294  0.0889
19280W        W38814  17.705   7.798  12.086  0.2680  0.0013 -0.1686
19281W        W38815  16.518   4.002   4.143  0.2041  0.0690 -0.1528
19282W        W38816   7.574  16.512  12.932  0.1338 -0.0861 -0.2018
19283W        W38817  11.783   6.739   4.361 -0.1123 -0.0388 -0.2401
19284W        W38818   4.059  15.467   3.905  0.2319 -0.3648  0.1007
19285W        W38819   8.286  13.816  13.754  0.0869  0.3178 -0.1156
19286W        W38820   0.116   8.426   1.733  0.1126  0.0495 -0.3487
19287W        W38821  14.954  13.655   2.580  0.0388  0.3342 -0.0354
19288W        W38822   5.518  17.844   3.700 -0.1277 -0.0381  0.2112
19289W        W38823   8.282  10.691   0.796 -0.0337 -0.1547  0.0454
19290W        W38824   2.489  11.167  15.442  0.0014 -0.3402 -0.4410
19291W        W38825   2.562  12.478   5.021 -0.1604 -0.5087  0.0210
19292W        W38826  15.013  14.522  13.330  0.2122  0.1371  0.2787
19293W        W38827   0.135  14.452  12.091  0.2809 -0.1582  0.0445
19294W        W38828   3.591  14.993   2.166  0.1726  0.3903  0.0044
19295W        W38829   6.700   5.222  11.545 -0.1779  0.1758  0.1328
19296W        W38830   7.028  11.982   2.400  0.0140  0.2467 -0.0572
19297W        W38831   5.451  14.469   3.831 -0.0114  0.1057  0.0031
19298W        W38832   5.204   2.247  14.861  0.0326  0.0617  0.1531
19299W        W38833  10.255   5.708   2.212 -0.0431  0.1328  0.1805
19300W        W38834   2.283   8.364   0.049  0.0994  0.0965 -0.1709
19301W        W38835   3.306   9.575  13.669 -0.0714 -0.1547  0.2688
19302W        W38836  16.857   1.995   5.269 -0.2220 -0.0499 -0.0176
19303W        W38837  15.436  14.062   4.027  0.0645  0.0612 -0.0057
19304W        W38838   9.399   6.165   1.936  0.0719  0.0312  0.1510
19305W        W38839  16.814   0.520  10.972 -0.4432  0.4624  0.3093
19306W        W38840   7.738   3.925   1.695  0.1659 -0.2504 -0.1621
19307W        W38841  10.103  16.263  15.263  0.1743 -0.2624  0.0126
19308W        W38842   3.365  12.580  11.508 -0.2148 -0.0417 -0.3316
19309W        W38843   4.430  12.043  12.501  0.2907  0.1195  0.0765
19310W        W38844   1.421   3.990  13.566  0.0751  0.0943  0.0250
19311W        W38845   1.475   3.775  15.014 -0.2055 -0.3619 -0.0565
19312W        W38846   4.118   7.875   0.612 -0.0580 -0.3486  0.0805
19313W        W38847  13.976  15.757   0.657  0.1375  0.0326  0.0417
19314W        W38848   3.140  11.696   4.184  0.2388  0.1881 -0.0252
19315W        W38849  15.251  15.227  12.863  0.1976 -0.0934  0.0851
19316W        W38850   4.365   7.274   3.160  0.0992 -0.0905  0.0520
19317W        W38851   6.916   0.704  14.296  0.1874  0.1642  0.0473
19318W        W38852   6.148   4.056  12.200 -0.0501  0.0808  0.0290
19319W        W38853  12.574   8.693  11.248 -0.1247  0.0946  0.2502
19320W        W38854   6.676  13.180   0.395 -0.0952  0.1750 -0.0159
19321W        W38855   5.825   3.131   2.513  0.2474  0.2009  0.0974
19322W        W38856  13.849   2.783  15.407 -0.2414 -0.0150 -0.0079
19323W        W38857  12.666  14.122  12.419  0.4258 -0.1497  0.1816
19324W        W38858   6.467   6.211  12.817  0.1006  0.0619  0.3497
19325W        W38859  12.331  11.519  14.379  0.1042 -0.2715 -0.0308
19326W        W38860   8.458   6.267  11.917 -0.0833 -0.0895  0.1230
19327W        W38861  17.782  14.249   2.506  0.0157 -0.0952 -0.0567
19328W        W38862  10.285  11.701   2.507  0.0029  0.0614 -0.1368
19329W        W38863  15.313  14.490  15.259  0.2180  0.1230  0.1031
19330W        W38864  14.941  13.164   4.129 -0.1513  0.3741  0.0126
19331W        W38865   0.224  16.614   2.208  0.1514  0.3236 -0.0680
19332W        W38866   4.020   9.426   3.854  0.2171 -0.1358 -0.3149
19333W        W38867  13.928  14.258   2.955 -0.3198  0.2652  0.1678
19334W        W38868   7.068   0.329  12.195  0.2165  0.0773  0.2038
19335W        W38869   3.969  11.942  13.335 -0.5096 -0.2872 -0.0405
19336W        W38870  18.105  16.323   0.891 -0.0814 -0.3620 -0.2095
19337W        W38871  12.955   5.849   0.014 -0.0164 -0.0025 -0.0052
19338W        W38872  16.596   4.438  15.395  0.0052 -0.1520  0.0373
19339W        W38873  14.451   3.672  13.082  0.1750  0.0394  0.0396
19340W        W38874  12.963  10.081   2.061 -0.1434  0.2820 -0.3421
19341W        W38875  14.557   4.642   3.239 -0.2546 -0.3649 -0.0108
19342W        W38876  14.086  18.105  12.561 -0.0252 -0.0282 -0.0482
19343W        W38877  17.609  11.522  15.362 -0.1052 -0.0375  0.0232
19344W        W38878  11.193  12.635  14.471 -0.3051 -0.0548  0.4627
19345W        W38879  11.019   3.200  12.282 -0.0085 -0.2920  0.3335
19346W        W38880   8.127   0.056   3.127 -0.0665 -0.0792  0.2245
19347W        W38881  18.146   8.160  13.539  0.1550 -0.2482 -0.2025
19348W        W38882  17.979   8.648  12.151  0.2580 -0.0244 -0.0828
19349W        W38883  12.291  17.111  11.253  0.0566  0.0204 -0.0676
19350W        W38884  14.864  15.430   4.600 -0.6024 -0.0339 -0.1269
19351W        W38885  10.988   5.705  14.630  0.0642 -0.2701  0.2735
19352W        W38886  11.891   2.120  15.235  0.3279  0.0562  0.1924
19353W        W38887  15.965  14.249   0.659  0.0164 -0.0170 -0.1384
19354W        W38888   1.029  12.056  13.560 -0.0972 -0.3011  0.2428
19355W        W38889   0.090   5.803  13.937 -0.2339  0.3524 -0.1698
19356W        W38890  18.383   8.103  11.430 -0.0461 -0.0376 -0.0230
19357W        W38891  11.878  18.077   2.418 -0.2616 -0.1733  0.0839
19358W        W38892   3.443  17.022   1.272 -0.0086 -0.1302 -0.0149
19359W        W38893   0.887  13.865   0.382 -0.1105 -0.0518  0.2192
19360W        W38894   3.534   9.233   1.736  0.0883  0.1446  0.3139
19361W        W38895   9.858  10.054  12.247  0.0827 -0.0208 -0.0285
19362W        W38896   8.414   7.471  13.386 -0.0577  0.4567 -0.0816
19363W        W38897  16.604  13.620  12.320 -0.1257 -0.0235  0.4669
19364W        W38898  17.167   4.358  11.028 -0.3189  0.0136  0.2221
19365W        W38899   3.056  15.254  12.630 -0.0834 -0.2503  0.0515
19366W        W38900   9.746   3.993   5.208 -0.3129 -0.0774 -0.3874
19367W        W38901   4.794  11.612   4.336  0.1868  0.3401  0.3269
19368W        W38902  11.484   5.650   0.172 -0.0574 -0.3264 -0.0511
19369W        W38903  17.480   6.451  13.775 -0.1280 -0.0890  0.0248
19370W        W38904  10.401  10.482  14.117  0.0273 -0.0449  0.1431
19371W        W38905  13.557  11.346   0.492 -0.0340  0.1244 -0.0744
19372W        W38906  11.650   7.793  14.455  0.1060  0.3524  0.0774
19373W        W38907   6.080  13.200  15.453  0.0347  0.4298 -0.0403
19374W        W38908  12.765   1.837   0.071 -0.0936  0.0704  0.0271
19375W        W38909  10.482   7.589   4.461  0.0223  0.3201 -0.3272
19376W        W38910  16.381  15.495   4.333  0.1838  0.0492 -0.3521
19377W        W38911   7.640  17.359   0.225 -0.1243  0.0158  0.2244
19378W        W38912   3.114   6.183  14.921  0.1156 -0.1750  0.0076
19379W        W38913   3.651  10.071  14.084 -0.2336 -0.2438  0.0478
19380W        W38914  11.063   8.202   1.105 -0.1348 -0.2161  0.0737
19381W        W38915  16.131  17.999  13.242  0.1041 -0.2048 -0.0808
19382W        W38916  17.650   7.499   1.583 -0.0495  0.0873  0.0380
19383W        W38917  12.821  16.066  15.292  0.0017 -0.1258 -0.1444
19384W        W38918  13.146   4.305  13.923  0.2701  0.0894 -0.1144
19385W        W38919   9.317   8.546   4.323 -0.1919 -0.1179  0.1570
19386W        W38920   7.948   5.647   3.554  0.0633  0.0122  0.4036
19387W        W38921   7.396   4.602   4.185 -0.0402 -0.1020  0.0177
19388W        W38922  15.391  16.942  12.502 -0.0642 -0.1627 -0.0305
19389W        W38923  10.719  11.705   3.439  0.0054 -0.2698  0.0793
19390W        W38924   3.546   4.697  13.958 -0.3241 -0.1417  0.0995
19391W        W38925  17.601  18.009  15.271 -0.1658  0.1966 -0.0497
19392W        W38926  12.029  14.878  14.198 -0.1289  0.1586 -0.1031
19393W        W38927  12.774  14.642  14.897  0.0652 -0.2087 -0.1594
19394W        W38928   6.099  15.146  14.527 -0.1605 -0.0486 -0.1237
19395W        W38929  14.922   1.694   0.599 -0.1522 -0.0574  0.4048
19396W        W38930  17.280  16.738   4.271 -0.0799 -0.1302 -0.0212
19397W        W38931  17.251   5.940  11.875  0.4417  0.2010 -0.1288
19398W        W38932  11.948  15.994   5.469  0.0452 -0.0303 -0.0506
19399W        W38933  18.268   6.024  14.295 -0.0240 -0.0493 -0.2123
19400W        W38934  11.319  16.317   2.519 -0.1598 -0.3097 -0.0207
19401W        W38935   2.589  14.099   0.084  0.0614 -0.0115 -0.2532
19402W        W38936   7.007   6.742  12.427 -0.3283  0.1318  0.0428
19403W        W38937   8.120   8.533   2.704  0.2329 -0.0095  0.1817
19404W        W38938   8.597   5.379   2.718  0.1059  0.0038  0.0421
19405W        W38939   2.071  13.836  14.504 -0.0566 -0.2390  0.1876
19406W        W38940   8.842   6.657  12.187 -0.1733 -0.0867  0.1168
19407W        W38941   2.818   1.797   1.375  0.1173  0.2371 -0.0191
19408W        W38942  14.977  14.196  15.507 -0.0518  0.0340 -0.0201
19409W        W38943   3.259   3.867  15.639  0.2103 -0.1272 -0.1427
19410W        W38944   6.594  15.422   3.171  0.0690 -0.3964 -0.2292
19411W        W38945  17.330   6.667   3.439  0.1219  0.0991  0.3508
19412W        W38946   8.812  14.951   1.352 -0.0219  0.2893 -0.1044
19413W        W38947   6.865   8.173  15.055  0.1364 -0.3818  0.1268
19414W        W38948   0.804   3.464  14.576  0.1713  0.1912  0.1285
19415W        W38949   0.789   3.974  14.490  0.3251 -0.1900  0.0625
19416W        W38950   1.713   1.828  13.614 -0.2192  0.1330  0.1239
19417W        W38951   7.721   7.031   4.413  0.1382 -0.1555 -0.1359
19418W        W38952  15.751   3.401  14.508 -0.0113 -0.2942  0.2580
19419W        W38953  16.801  14.196  14.568  0.2863  0.1795 -0.0873
19420W        W38954   7.787   7.046  12.854 -0.0111  0.3718 -0.2877
19421W        W38955   9.886  16.835   5.715 -0.0072  0.1415  0.0159
19422W        W38956  18.238   2.353   3.244 -0.0432 -0.0183 -0.0645
19423W        W38957   9.656  14.009  14.991  0.1717  0.1884  0.2956
19424W        W38958  11.123  11.864  14.890 -0.2251 -0.0056  0.0255
19425W        W38959  15.681  12.474   0.223  0.2301 -0.0880 -0.0744
19426W        W38960  12.658  16.036   4.861  0.0610 -0.3357 -0.1031
19427W        W38961  18.052   6.987  14.319 -0.1330  0.0490 -0.1065
19428W        W38962   1.395   8.053   4.056 -0.1209  0.0791  0.1813
19429W        W38963  18.088  13.150   0.867  0.2144 -0.0467  0.3255
19430W        W38964   8.709   6.622  14.018 -0.2033 -0.1545 -0.1166
19431W        W38965  10.198  10.882  14.421  0.1185  0.4390 -0.0491
19432W        W38966   4.368   6.723   1.857 -0.0607  0.1700 -0.1073
19433W        W38967   0.449  17.377  15.694  0.0744  0.0569 -0.0344
19434W        W38968  11.243   8.783   1.880  0.1815  0.2291  0.0100
19435W        W38969   4.683  11.512  15.090 -0.1178 -0.1608 -0.1406
19436W        W38970   7.973   3.402   1.040  0.0473  0.0788 -0.4079
19437W        W38971  18.096   6.992  15.837 -0.2839  0.1131  0.0037
19438W        W38972  15.798  18.186   1.472  0.1905 -0.0060 -0.1634
19439W        W38973   4.645   8.104  13.530  0.1857 -0.0906 -0.3032
19440W        W38974   4.968  15.214   0.859 -0.2835  0.1836 -0.0997
19441W        W38975  10.539  16.198   1.455  0.1905  0.2205 -0.1293
19442W        W38976   2.889  14.316   1.002 -0.0736  0.1019 -0.0831
19443W        W38977  15.551   8.052   2.846 -0.0113  0.1118 -0.0471
19444W        W38978   4.411   5.997   3.109  0.1369  0.0815  0.1214
19445W        W38979   6.042  12.734  14.302  0.0326  0.1475  0.0416
19446W        W38980  13.777  17.103  15.171 -0.1249  0.2981 -0.1892
19447W        W38981  10.213   7.468   3.385  0.1531 -0.3265 -0.3149
19448W        W38982   0.540  14.167   1.741  0.2209  0.0196  0.0402
19449W        W38983  10.505   6.200   1.605  0.4974 -0.0219 -0.1742
19450W        W38984  10.481   2.575   3.576  0.0538  0.2656 -0.2066
19451W        W38985   3.241   7.307  11.806 -0.0371  0.2675  0.1810
19452W        W38986  11.480   2.201  15.574 -0.0649  0.1013 -0.0008
19453W        W38987   8.677   4.593  14.401 -0.1061  0.0095  0.0377
19454W        W38988   3.609   0.624   3.429  0.1357 -0.1494  0.1951
19455W        W38989  17.175  17.207   0.417 -0.1623 -0.1572  0.0904
19456W        W38990   1.212   4.860   2.534 -0.1024 -0.1315 -0.1625
19457W        W38991  13.240   8.753   1.721  0.0224 -0.0045  0.0509
19458W        W38992  17.503  13.915   1.276 -0.0446 -0.2493 -0.1507
19459W        W38993   4.904   9.652   5.394  0.2421  0.1662  0.0676
19460W        W38994  14.949   0.157  12.975  0.1281  0.0794 -0.3694
19461W        W38995  15.591   6.157  15.408 -0.1049 -0.1557  0.2380
19462W        W38996  11.666   3.942   0.440  0.4187 -0.4732  0.0736
19463W        W38997   5.439   0.659   2.987  0.0211  0.1816 -0.0534
19464W        W38998   2.702   1.414   4.188 -0.1640  0.2547 -0.1908
19465W        W38999   3.960   4.062  10.253  0.1509  0.0089 -0.1130
19466W        W39000   3.062  13.891   0.485 -0.4575  0.1431 -0.1818
19467W        W39001  13.467  16.601  15.147 -0.2742 -0.0578  0.1250
19468W        W39002  15.716   0.331   3.412  0.1303 -0.0265 -0.4025
19469W        W39003  16.508  10.947   3.369  0.0286 -0.2864 -0.1077
19470W        W39004   7.159  17.446   0.366 -0.0621  0.4032  0.1963
19471W        W39005   4.146  15.406   1.123 -0.1495  0.0945  0.4837
19472W        W39006  16.272  14.611   4.181 -0.2485  0.1281 -0.2226
19473W        W39007   3.676  14.364  11.702  0.0016  0.0938 -0.0601
19474W        W39008  13.052   2.005   0.893  0.2835 -0.0424 -0.1023
19475W        W39009   3.127   9.026  15.773 -0.3303  0.2632  0.0808
19476W        W39010   3.266   8.013  14.208 -0.0514 -0.0295 -0.0554
19477W        W39011  11.436  15.032  12.850  0.0164  0.0821 -0.0695
19478W        W39012  11.463   4.657  13.081 -0.0556 -0.0393  0.0353
19479W        W39013   9.434  17.913   2.521  0.1177 -0.0418 -0.0059
19480W        W39014   9.882   2.086   2.502 -0.1733  0.5205 -0.1370
19481W        W39015   1.877  10.488   2.026 -0.2046  0.1186 -0.0669
19482W        W39016  17.602   9.131   1.734 -0.5382 -0.0926 -0.0305
19483W        W39017  17.113  17.550   3.276 -0.0205 -0.0004 -0.1068
19484W        W39018  12.351  14.901  10.436 -0.0199  0.0818  0.0772
19485W        W39019   2.163   7.718  11.211 -0.2877  0.0973  0.0574
19486W        W39020   1.786   5.890  10.728  0.3161 -0.1266  0.2114
19487W        W39021   0.712  16.255  11.686 -0.1564  0.0760  0.0461
19488W        W39022   6.362   2.440   0.428 -0.1511 -0.2151  0.0344
19489W        W39023  11.972  12.312  12.105 -0.0914 -0.1117 -0.1301
19490W        W39024  10.424  16.355   2.662  0.2011 -0.0415 -0.1547
19491W        W39025  14.802  10.275   4.544  0.1990  0.0602  0.0837
19492W        W39026   4.932  13.908   0.310 -0.0642  0.0138  0.1432
19493W        W39027   6.760  12.804  15.272  0.3107  0.0144 -0.2174
19494W        W39028  18.375  16.466   4.363 -0.3183  0.2488  0.0743
19495W        W39029  15.885  17.838  15.064  0.0354  0.2414  0.3068
19496W        W39030   6.900  16.713   1.767 -0.0802 -0.0687 -0.3779
19497W        W39031   6.209   7.316   0.530 -0.2420  0.0872  0.0890
19498W        W39032   3.610  14.780  13.166  0.3407  0.0039  0.0443
19499W        W39033  11.497   4.659  14.142 -0.1056 -0.1103  0.2003
19500W        W39034  17.092  17.959   2.945  0.3343  0.0547 -0.0473
19501W        W39035  12.778   2.049  13.071 -0.2934 -0.0268 -0.0399
19502W        W39036   4.362   2.893   1.142  0.1778 -0.1898  0.1683
19503W        W39037   7.144  16.482   2.858  0.2659 -0.0516 -0.2501
19504W        W39038   3.496   6.340  15.181 -0.0166  0.0539 -0.0497
19505W        W39039   2.739  14.387  12.946  0.3544 -0.1839  0.1393
19506W        W39040   0.829  17.184   3.835 -0.0959 -0.3797  0.1851
19507W        W39041  16.650   5.612  11.150  0.0604  0.3730 -0.0341
19508W        W39042  13.570  12.200   4.350  0.1079 -0.0447  0.1136
19509W        W39043   6.708   3.684  10.450 -0.0372  0.0996  0.2469
19510W        W39044  16.378   3.527   0.719  0.0746 -0.1855 -0.2649
19511W        W39045   4.325   7.179   1.560  0.1135 -0.0990 -0.0605
19512W        W39046  10.048  11.272  12.515  0.3418  0.0851  0.1749
19513W        W39047  15.689  17.487  14.700  0.0523 -0.1076 -0.0461
19514W        W39048   0.317   4.554  12.266  0.1095 -0.2608  0.2100
19515W        W39049  12.237  15.160   3.633  0.0842  0.1253  0.0187
19516W        W39050   8.912   4.909  13.563 -0.0161 -0.0693  0.0622
19517W        W39051  16.050   5.945  14.111  0.2586  0.3251  0.1462
19518W        W39052   9.601   3.821   2.725 -0.0077 -0.2941  0.0087
19519W        W39053   6.446  14.304  14.947  0.1691  0.3322  0.0840
19520W        W39054  12.763   6.196  11.809 -0.0233  0.1653 -0.1951
19521W        W39055   6.212   1.204   3.308  0.1006 -0.4411 -0.0114
19522W        W39056  13.148   9.633  13.646  0.2229 -0.1121 -0.1968
19523W        W39057   1.253   9.644   3.468 -0.0671 -0.3396  0.0792
19524W        W39058   0.733  16.494  13.785  0.0904  0.1772 -0.4635
19525W        W39059   5.016  13.340  11.694 -0.0319 -0.1451  0.4324
19526W        W39060   1.224   0.370  12.467  0.0108  0.3092  0.0208
19527W        W39061  12.403   2.814   1.045  0.1842  0.1436  0.0902
19528W        W39062  11.639  16.212   1.789 -0.0253 -0.1143 -0.0530
19529W        W39063   0.634   2.354   3.953 -0.3847 -0.0917 -0.2778
19530W        W39064  15.575  14.369  14.386  0.1409 -0.0459  0.0023
19531W        W39065   0.239  17.809   2.495  0.2813  0.1838 -0.0049
19532W        W39066  12.635   2.352   3.670 -0.0337 -0.0173 -0.1401
19533W        W39067   1.945  12.647  13.985  0.1124 -0.3783 -0.0893
19534W        W39068   1.293   7.768  15.788 -0.2817 -0.2738  0.1257
19535W        W39069  10.426  13.434  15.332  0.2372 -0.0955 -0.1883
19536W        W39070  12.393   0.706  13.041  0.1518  0.3071 -0.0190
19537W        W39071   0.248   7.734  15.641 -0.2341 -0.0855 -0.1051
19538W        W39072   5.741   0.489   1.477  0.0665 -0.3001  0.1509
19539W        W39073   2.042   7.330   0.196 -0.1003  0.2633  0.0265
19540W        W39074   8.672  13.975  13.087 -0.0944  0.3416 -0.2832
19541W        W39075   7.354  17.610   1.583 -0.1787 -0.5046 -0.1528
19542W        W39076  16.625   8.030  15.090 -0.0692 -0.0717  0.3928
19543W        W39077   7.193   6.215   3.503  0.3137 -0.2241 -0.3402
19544W        W39078   5.468  14.040  15.386  0.1313  0.0667  0.0934
19545W        W39079   0.319  12.648  15.681  0.0886 -0.0347 -0.3787
19546W        W39080   6.318  12.691   0.316 -0.0828  0.0863 -0.1963
19547W        W39081   7.233  15.128  13.525  0.2979 -0.0956  0.2176
19548W        W39082  17.336   1.662   2.455 -0.2415  0.2242 -0.1300
19549W        W39083  16.889   5.627  11.630 -0.0673  0.4128  0.2593
19550W        W39084  17.621   8.991   5.064  0.0600 -0.1250  0.0236
19551W        W39085   6.160  17.792  13.350 -0.0042 -0.1116 -0.0372
19552W        W39086  15.729  17.143  13.901  0.0594  0.0762  0.1084
19553W        W39087  15.580   3.154   2.252 -0.1608 -0.1639  0.2176
19554W        W39088   5.672   7.297  14.607 -0.0146  0.0017 -0.1003
19555W        W39089   9.301   4.194  13.919  0.0190  0.0069 -0.1068
19556W        W39090   2.084  16.828  14.606 -0.3379  0.1209  0.2497
19557W        W39091   8.307   1.419   1.409 -0.1988 -0.0352  0.3378
19558W        W39092  12.272   3.421  14.714 -0.2639  0.1436 -0.1102
19559W        W39093  17.869   7.469   0.801 -0.3355 -0.2297  0.1182
19560W        W39094   4.918   4.514   4.412  0.3214 -0.2141 -0.0809
19561W        W39095   2.808  14.280  14.194 -0.1789 -0.2314 -0.2301
19562W        W39096  14.082   0.445  13.273 -0.2910 -0.0931  0.0989
19563W        W39097  14.317   0.225   2.293  0.2726 -0.3316 -0.2710
19564W        W39098  12.054  14.143  14.688 -0.2279  0.0584  0.2059
19565W        W39099   5.215   1.396   1.352 -0.1442 -0.1859  0.1356
19566W        W39100   7.629   2.813   2.714 -0.1124  0.0239  0.0720
19567W        W39101   8.432  12.372   3.998 -0.1120  0.1496 -0.1947
19568W        W39102  15.581   9.783   2.777  0.0593 -0.1188 -0.0302
19569W        W39103  12.806   7.705  13.748  0.0586 -0.1909  0.1694
19570W        W39104   0.479   1.857   3.776 -0.0144 -0.1383 -0.0638
19571W        W39105   9.106  14.547  11.593  0.2214 -0.2768 -0.0082
19572W        W39106  15.598  13.450   0.079 -0.0538 -0.0358 -0.4881
19573W        W39107  10.330   9.637  13.531  0.0632 -0.0514 -0.1284
19574W        W39108   8.356   4.264   0.377  0.0795  0.2057 -0.1264
19575W        W39109   5.490   8.603  13.344 -0.0342  0.2983  0.0941
19576W        W39110   7.218   8.943   4.632 -0.0149  0.0761 -0.1683
19577W        W39111   1.008   9.945  13.939 -0.1651 -0.0662 -0.0965
19578W        W39112  14.133   3.307  15.703  0.0190  0.1377 -0.2186
19579W        W39113   3.885   8.520  14.179 -0.0804 -0.2426  0.0348
19580W        W39114   5.519   2.365  12.899 -0.0757  0.0090  0.1119
19581W        W39115  12.303   1.688  13.252 -0.2095  0.1521  0.0583
19582W        W39116  10.402   8.124  15.259 -0.1227  0.1331 -0.3561
19583W        W39117  15.577  10.495  11.515  0.1966  0.0719  0.0383
19584W        W39118  12.723  12.891  12.785 -0.0615  0.0656  0.1377
19585W        W39119   0.754   4.582   0.211 -0.0931  0.0419  0.1298
19586W        W39120   2.393  10.783   0.236  0.2007  0.0780  0.0361
19587W        W39121  10.506  15.516   2.466 -0.0298 -0.2035 -0.0901
19588W        W39122  17.912   1.035  14.920 -0.2858  0.1166  0.1189
19589W        W39123  15.923   3.742   2.922  0.0719  0.0492  0.2276
19590W        W39124  10.096  14.427  12.622  0.2098 -0.0580 -0.1710
19591W        W39125  16.024   4.797   2.927 -0.1377  0.0786 -0.1346
19592W        W39126   3.122  18.387  11.776  0.1220  0.1482  0.0295
19593W        W39127  12.132  10.066  12.615 -0.5416  0.0357 -0.1511
19594W        W39128  10.839   2.638   0.157  0.0282 -0.1294 -0.2888
19595W        W39129  15.900   6.674  11.536 -0.2040 -0.0301  0.2795
19596W        W39130  14.936  10.922  12.241  0.1014 -0.0887  0.0765
19597W        W39131   2.615   6.594  11.756 -0.0496 -0.2540 -0.0286
19598W        W39132  15.724   2.448  13.211  0.2618 -0.0696  0.3554
19599W        W39133   3.429  18.261  15.553  0.1804  0.0885  0.2181
19600W        W39134   7.191   3.552   2.429 -0.1364 -0.0595 -0.0141
19601W        W39135   1.157  17.198  11.625 -0.2426 -0.2349  0.2883
19602W        W39136   3.624  15.298   3.973  0.1050 -0.0658 -0.1203
19603W        W39137   4.074   6.484   0.519 -0.0301  0.0663 -0.0397
19604W        W39138  14.771  10.743   4.334 -0.0166  0.2043  0.0717
19605W        W39139   3.189  14.274   2.031 -0.0083 -0.0949  0.0502
19606W        W39140   1.137   4.340   2.671 -0.1576  0.0682  0.1003
19607W        W39141   6.587   5.986  14.877  0.0180 -0.1343  0.3363
19608W        W39142  18.188  15.547   3.196  0.0573  0.1394  0.0742
19609W        W39143  17.102  13.944   0.949 -0.2002 -0.3022 -0.0101
19610W        W39144   6.912   9.941   4.300 -0.2341 -0.0221  0.2051
19611W        W39145   7.781  13.768  12.061 -0.3367 -0.0458  0.3291
19612W        W39146  16.291  15.166   0.908  0.2507 -0.1887 -0.3159
19613W        W39147  15.279   7.130  14.603 -0.0376  0.0349 -0.0615
19614W        W39148   0.096  12.718   1.787  0.0224 -0.0803 -0.2915
19615W        W39149   4.102  13.423  14.706 -0.0738 -0.3639  0.1255
19616W        W39150  13.383   8.422   0.273  0.0484  0.2858  0.1196
19617W        W39151   9.602   9.353  14.143 -0.0482 -0.0944 -0.0003
19618W        W39152  10.536   3.645   2.722  0.2486  0.3628 -0.0221
19619W        W39153   7.820   1.658   2.034  0.0957  0.1867  0.1185
19620W        W39154   3.835  11.654   1.416  0.6101  0.0013  0.5967
19621W        W39155   7.866  15.269  15.601  0.1295 -0.0167  0.4428
19622W        W39156   7.728   8.575   3.933 -0.2514 -0.0811  0.1305
19623W        W39157   5.576   4.657   0.751  0.0525 -0.2647 -0.0297
19624W        W39158   8.605  10.482  12.697 -0.0739 -0.1795 -0.1773
19625W        W39159   8.534  18.018  11.387  0.3622 -0.3886 -0.0317
19626W        W39160   3.392   5.526  10.177  0.0771  0.0736 -0.1224
19627W        W39161   9.641   6.967   2.588  0.0100  0.0158  0.1723
19628W        W39162  16.930  10.078  15.318 -0.1043 -0.2465  0.0494
19629W        W39163   8.176  12.883   0.094 -0.0645 -0.3251  0.0261
19630W        W39164  11.568  13.937   2.644 -0.1404  0.0771  0.0169
19631W        W39165  13.762  10.761  13.582 -0.1321  0.0744 -0.4920
19632W        W39166   2.662  17.997  12.958  0.0393 -0.0558 -0.0131
19633W        W39167  15.146   3.125   3.879 -0.2840  0.0368 -0.2917
19634W        W39168   1.352  11.512  12.817 -0.1146  0.1617 -0.0697
19635W        W39169   3.593   6.729  14.270 -0.0100 -0.2866 -0.1872
19636W        W39170  14.025   2.517   2.851 -0.1391 -0.1113  0.0448
19637W        W39171   9.777  12.642   2.918  0.2207 -0.0446  0.1045
19638W        W39172  11.950   4.532  15.538  0.0660 -0.1117  0.1987
19639W        W39173   4.034   3.456   0.521 -0.2170  0.2735  0.0230
19640W        W39174  10.410   5.816   2.677  0.0861  0.3336 -0.0304
19641W        W39175   0.990   9.987   3.765  0.0663  0.4290 -0.3435
19642W        W39176   1.075   9.149   3.656 -0.3013 -0.0561 -0.0099
19643W        W39177   2.607  10.730   3.904 -0.0967 -0.1936  0.1021
19644W        W39178   6.907  15.671   1.805  0.2158 -0.1248  0.1707
19645W        W39179   0.115  15.860   3.395 -0.1022  0.0853  0.0166
19646W        W39180  11.943   3.104   4.284 -0.0734 -0.1951 -0.2525
19647W        W39181   1.145  12.581   3.687 -0.0909  0.2257  0.0944
19648W        W39182   8.849   4.156   3.944  0.0041 -0.2548 -0.4739
19649W        W39183   2.482   7.427  11.451 -0.1891  0.0383 -0.1859
19650W        W39184  15.832  14.271   4.290 -0.0292  0.1982  0.3016
19651W        W39185   5.535  17.881   3.126  0.0164  0.0571  0.0141
19652W        W39186   2.792  16.283   3.539 -0.0658  0.0507 -0.1411
19653W        W39187   9.899  12.995   0.051  0.0829  0.1446  0.0257
19654W        W39188  12.631  16.789  15.837  0.0055  0.0192 -0.1108
19655W        W39189   6.103   6.862  13.997  0.1131  0.1206 -0.1012
19656W        W39190   0.883   1.403  12.528 -0.1383  0.2389  0.0937
19657W        W39191   7.645  12.085  14.132 -0.1290 -0.1109 -0.2095
19658W        W39192  15.822   5.524   4.425  0.0652  0.1056 -0.1881
19659W        W39193   6.588   6.010   0.742 -0.0835  0.0768 -0.3457
19660W        W39194  15.402   1.635   3.918 -0.0141 -0.2848  0.1449
19661W        W39195  15.021   7.762   4.318  0.0737  0.0158 -0.0786
19662W        W39196   2.857   7.996   1.095  0.0451  0.1818  0.2692
19663W        W39197   6.943   6.237   0.404 -0.1339  0.1709  0.0277
19664W        W39198  13.295  17.538  14.632 -0.0215 -0.3469  0.1718
19665W        W39199  15.237  14.564   0.170 -0.1419 -0.0172  0.0888
19666W        W39200  12.173  14.588   2.618  0.1050  0.1610 -0.0066
19667W        W39201  15.921   1.087  13.123  0.0764 -0.0536 -0.0721
19668W        W39202  18.052  12.969   0.026  0.0597 -0.2427 -0.0881
19669W        W39203   4.082   8.643  11.594  0.0267 -0.0380  0.0661
19670W        W39204  17.817   7.784   1.192  0.2988  0.0696  0.0380
19671W        W39205  10.922  15.264   3.439  0.0597  0.0409 -0.2872
19672W        W39206  13.015   8.686  14.599 -0.0685  0.0664 -0.0181
19673W        W39207   1.461   5.674   3.785  0.2463 -0.0863  0.3144
19674W        W39208   0.099  15.228   2.143 -0.3242  0.1601  0.0048
19675W        W39209   1.364  13.944   4.080  0.1877 -0.0402  0.2356
19676W        W39210  17.197  15.892   4.807 -0.2869  0.0734  0.1142
19677W        W39211   0.660  12.543  11.978 -0.0008  0.0127 -0.0094
19678W        W39212   8.229   6.711   2.084  0.3542 -0.0717 -0.1932
19679W        W39213   1.582   5.292  14.817  0.1915  0.2136 -0.1386
19680W        W39214   9.686  13.716  11.924 -0.0164 -0.0080 -0.0181
19681W        W39215   5.690  14.799  14.598  0.1395 -0.0219 -0.0798
19682W        W39216  11.316  15.443  14.043  0.2608  0.0939  0.2871
19683W        W39217  14.350  12.649   0.640  0.1958  0.1052  0.0581
19684W        W39218  13.620   8.225   2.626 -0.0011 -0.1214 -0.0785
19685W        W39219  11.507   1.867   3.317  0.1468  0.0249  0.2841
19686W        W39220  13.205  14.805   1.778  0.1497  0.0270  0.0428
19687W        W39221  10.068   3.068   0.432 -0.1275 -0.0846 -0.2138
19688W        W39222  17.856   4.360  13.187  0.2458 -0.0494  0.3375
19689W        W39223   0.294   7.598  14.525  0.2093 -0.0738 -0.3690
19690W        W39224  13.710  16.039  13.506 -0.0451 -0.3544  0.1223
19691W        W39225   4.168  15.322  14.080 -0.0403 -0.0531  0.1172
19692W        W39226   3.679  18.216   5.634 -0.0907 -0.0443 -0.2692
19693W        W39227  18.016   6.115   3.218  0.0837  0.1400  0.0055
19694W        W39228   9.860   8.850  12.875  0.2206  0.0591 -0.2120
19695W        W39229  17.136  18.234   5.112 -0.1843 -0.0298 -0.1347
19696W        W39230   9.943   6.736   3.726  0.0178 -0.0756 -0.5739
19697W        W39231  14.221   3.112   2.163 -0.0209 -0.4554  0.0451
19698W        W39232  13.846   2.789  13.542 -0.1452 -0.2659  0.4075
19699W        W39233  14.580   2.439   4.302 -0.0255  0.2768  0.3021
19700W        W39234   2.087  10.554   3.484  0.2498 -0.0153  0.0322
19701W        W39235   0.636   4.169   3.055  0.0585 -0.0398  0.3866
19702W        W39236  11.095  17.767  11.330  0.2530  0.0212 -0.2084
19703W        W39237   9.183   8.896   3.080 -0.2663 -0.0175 -0.0770
19704W        W39238   0.054  17.031  15.769 -0.1831  0.0962 -0.0036
19705W        W39239   3.358   9.726  11.565 -0.2790  0.2765 -0.2151
19706W        W39240   5.813   5.954  13.714  0.4053 -0.1978 -0.0574
19707W        W39241  12.631  10.338   0.283 -0.1089 -0.0060  0.2275
19708W        W39242   5.473   0.779  13.788 -0.0060 -0.0782  0.4355
19709W        W39243  15.175   9.904   3.968  0.1235 -0.0831  0.2412
19710W        W39244   6.479   2.071   2.867  0.2240 -0.1335  0.1580
19711W        W39245  14.918   1.940   3.346 -0.1033 -0.0857  0.1972
19712W        W39246   6.239  10.104   2.643 -0.0158  0.2186  0.2329
19713W        W39247   4.050   8.915  11.199  0.1727  0.0835 -0.1770
19714W        W39248   2.597   0.410   1.591 -0.2690 -0.0521  0.4146
19715W        W39249   3.513  14.376   3.476  0.0551 -0.1390 -0.1678
19716W        W39250   8.656  13.021   3.352  0.0812  0.0069  0.1386
19717W        W39251   7.964   7.728   0.870  0.1952  0.4426 -0.0192
19718W        W39252  14.687   7.019   2.832  0.0481 -0.2530 -0.1314
19719W        W39253   8.322   3.865   3.445 -0.1322  0.1398  0.0961
19720W        W39254  18.023  11.966  12.960  0.1090 -0.1838 -0.0291
19721W        W39255  11.574  10.354   4.603 -0.0407 -0.0417  0.0177
19722W        W39256  15.006   4.453  15.492 -0.3212 -0.0229 -0.0439
19723W        W39257   2.557   9.377   4.371  0.1183 -0.0167  0.0602
19724W        W39258   6.124  15.867   3.522  0.0994 -0.1252 -0.0588
19725W        W39259   3.079   7.592   3.325 -0.0815  0.0811 -0.3284
19726W        W39260   8.484   6.887   3.885 -0.0114 -0.1204 -0.0504
19727W        W39261   3.938  15.465  13.626  0.1517  0.0845 -0.0192
19728W        W39262   9.094   5.465   2.437  0.2205  0.1935 -0.1002
19729W        W39263  15.810   5.855   4.037 -0.2600  0.0573  0.1736
19730W        W39264  16.651   2.463  15.530  0.0280 -0.2019  0.2137
19731W        W39265   4.386   4.769   1.574 -0.2124  0.0918 -0.2656
19732W        W39266   3.970  14.579   3.481  0.2455  0.1636  0.1979
19733W        W39267   5.062  17.387  15.126 -0.1631  0.1425  0.1140
19734W        W39268  10.106   2.900  14.541  0.0142 -0.0362 -0.1143
19735W        W39269   2.436  11.778   1.344 -0.1065 -0.0262 -0.1443
19736W        W39270   6.128   9.833  11.634  0.0425  0.3018 -0.1298
19737W        W39271   3.973  15.957  15.767 -0.0074  0.1551 -0.2616
19738W        W39272   7.805  15.444   1.313 -0.1460 -0.0997  0.0719
19739W        W39273  15.345  17.774   2.704 -0.1072 -0.0304 -0.0088
19740W        W39274   0.711  11.425   4.563 -0.0433  0.0828 -0.3228
19741W        W39275  12.041  13.618  14.617 -0.0635  0.3302  0.1068
19742W        W39276   3.111   0.532  13.450  0.3453 -0.0676  0.0257
19743W        W39277  17.623   6.789   0.095 -0.0597 -0.0596 -0.0456
19744W        W39278   4.629   2.024   0.916 -0.0828  0.0064 -0.2662
19745W        W39279  12.533  10.865   3.025  0.0952  0.0761  0.1736
19746W        W39280  10.684   5.562  15.010  0.0441  0.1052  0.2080
19747W        W39281   6.054  16.203  13.453 -0.0171  0.1974 -0.2334
19748W        W39282   5.410   4.294   4.234 -0.0648 -0.0520 -0.0054
19749W        W39283  15.187   5.116  14.443 -0.0080 -0.3999  0.1479
19750W        W39284  10.832  14.444  13.207  0.0697 -0.0898  0.1443
19751W        W39285   1.105  17.626   3.649 -0.0141 -0.0035 -0.1461
19752W        W39286   7.805   7.294  10.709 -0.2740 -0.1016  0.1279
19753W        W39287  18.117  16.527   2.552  0.1708 -0.0324  0.3103
19754W        W39288  16.923   4.815  11.139  0.1197 -0.2788  0.2032
19755W        W39289  15.712  16.972  14.397  0.0057  0.0624 -0.2027
19756W        W39290   8.296  14.578  12.598  0.0865  0.2878  0.2900
19757W        W39291  16.725   2.741  13.907  0.4191  0.0717  0.1292
19758W        W39292  17.295  16.041   3.513  0.1127  0.0532 -0.1976
19759W        W39293   8.048  14.065   3.387  0.2176  0.2212  0.1248
19760W        W39294   0.813  14.656   1.910 -0.0076 -0.0187  0.0888
19761W        W39295   3.295   3.100  11.315  0.0074  0.2564 -0.0010
19762W        W39296   5.383   7.913  12.159 -0.2198 -0.1448 -0.1869
19763W        W39297   3.539   9.622  15.666 -0.1094 -0.1746  0.0858
19764W        W39298  14.117   6.554  12.758 -0.1191  0.3944  0.0199
19765W        W39299  14.698  16.921  14.746 -0.0284  0.1872 -0.1315
19766W        W39300   2.434  12.585   4.120  0.0389 -0.6184 -0.0327
19767W        W39301  12.126  12.557   3.774 -0.1049  0.0787  0.2725
19768W        W39302  10.443   0.775  15.053  0.1545  0.1366  0.0601
19769W        W39303   4.334  15.094   4.052 -0.1557  0.1514  0.2299
19770W        W39304   2.614  15.154  12.375  0.0859  0.1646  0.0065
19771W        W39305   8.018   5.323  13.315  0.1292 -0.0805  0.4151
19772W        W39306  11.813  17.987  15.420  0.3101  0.0743  0.0715
19773W        W39307  14.812  16.720   4.258  0.2664  0.0023  0.1252
19774W        W39308  16.664   8.269  11.915  0.0731  0.2874  0.1145
19775W        W39309  15.542  11.353  14.182 -0.4527  0.3604  0.1676
19776W        W39310   0.825  13.629  13.814  0.2315 -0.2576 -0.0776
19777W        W39311  18.006  13.365  10.381 -0.1379 -0.3063 -0.3287
19778W        W39312   1.888  12.352  12.976 -0.0385 -0.2270  0.1596
19779W        W39313  17.297  14.244   2.457  0.1836  0.1638 -0.1896
19780W        W39314   3.653   9.245   1.202 -0.0253 -0.2354  0.0498
19781W        W39315   7.342   9.515   0.933  0.1673  0.0952 -0.3045
19782W        W39316  13.991  17.448   0.987 -0.0407 -0.2570  0.1330
19783W        W39317  18.060   1.860  15.763  0.0810  0.3454 -0.0407
19784W        W39318  11.080  11.997   3.614 -0.2169  0.1878  0.0161
19785W        W39319  15.808   0.606   1.918  0.0961  0.4591  0.1220
19786W        W39320   0.013  14.872  10.559 -0.1133 -0.0512  0.1725
19787W        W39321  13.309   9.604   3.013 -0.1104 -0.0781 -0.0325
19788W        W39322  10.046   2.594   3.937 -0.2169  0.2242 -0.0370
19789W        W39323   0.802   8.091  11.368 -0.0236 -0.2228  0.0594
19790W        W39324  16.931  15.118   3.861  0.1467 -0.3071 -0.0660
19791W        W39325   5.744   3.203  13.603  0.1522 -0.0363 -0.1484
19792W        W39326   1.084   3.870  14.118 -0.3276  0.0889  0.3081
19793W        W39327   2.646   8.701  12.439 -0.0639 -0.2932 -0.2804
19794W        W39328  13.097   3.969  12.916 -0.2808 -0.0219  0.2510
19795W        W39329   5.934   5.519   4.010  0.1234  0.0219 -0.1778
19796W        W39330   0.724  11.114  13.796  0.1627  0.0272  0.4756
19797W        W39331  12.161   1.501   3.799 -0.0957  0.0969 -0.1617
19798W        W39332  16.023   3.827  14.447 -0.2527  0.1645 -0.0040
19799W        W39333   7.611   7.327   2.635 -0.1478  0.2112 -0.0589
19800W        W39334  11.003   7.660   2.646  0.2194 -0.1248  0.1509
19801W        W39335  11.828  16.573   2.170 -0.3824  0.0084  0.0357
19802W        W39336   1.727  12.138  12.217  0.0304 -0.0426 -0.0413
19803W        W39337   4.191  12.585  15.614  0.0795  0.1109  0.2159
19804W        W39338  13.310   4.683  13.644 -0.0427  0.0292 -0.0945
19805W        W39339   5.178   0.663  14.575  0.4165  0.2937  0.2391
19806W        W39340   1.801   8.613  13.720  0.4881 -0.2080 -0.3792
19807W        W39341  11.398   6.144  12.251  0.0706 -0.2865 -0.0426
19808W        W39342   0.568  18.390   2.887 -0.0707  0.0056 -0.1030
19809W        W39343   2.433  11.417   0.590  0.1490  0.2734  0.1347
19810W        W39344   1.399   3.564  13.283 -0.0810 -0.1713 -0.1783
19811W        W39345   4.910  11.966   2.193 -0.0263  0.0677  0.0938
19812W        W39346  15.634   3.056  12.361  0.1062  0.4404  0.1004
19813W        W39347  10.420  13.646   2.909 -0.0693 -0.2064  0.0344
19814W        W39348   8.997  14.866  13.826 -0.0437  0.0728  0.0023
19815W        W39349   8.235   1.666  12.783 -0.0933 -0.0688 -0.5469
19816W        W39350   7.189   4.623   4.629 -0.0209 -0.0299 -0.0204
19817W        W39351   0.112   9.689   0.272 -0.0283  0.2891 -0.1205
19818W        W39352   8.974  12.608  12.844 -0.1178  0.0732 -0.0150
19819W        W39353  13.371  10.130   1.781 -0.2295 -0.0260  0.0468
19820W        W39354  15.946   8.792  10.901  0.0027 -0.0320 -0.1730
19821W        W39355  17.649   0.050  13.361 -0.1041  0.4024  0.2055
19822W        W39356  13.239  16.343  15.531 -0.0310  0.1199  0.2539
19823W        W39357  17.542  13.072   0.849  0.0760  0.1286  0.0637
19824W        W39358  16.482  15.004   3.617 -0.2033 -0.3226  0.2517
19825W        W39359  17.659   4.739   0.566 -0.1460  0.1640 -0.0715
19826W        W39360   4.510  11.757   3.112  0.4078  0.3442  0.4826
19827W        W39361   8.566   6.470   3.481  0.1183 -0.1019 -0.1558
19828W        W39362  18.052  11.216  11.633  0.0893 -0.2015 -0.2567
19829W        W39363   6.487  14.527   0.124  0.1822  0.1387  0.3613
19830W        W39364   3.104   6.505  14.532 -0.0402  0.0127 -0.1169
19831W        W39365   8.442   8.735  13.020 -0.1618 -0.1196  0.1191
19832W        W39366   8.323  12.521   1.733  0.0841  0.0593 -0.3252
19833W        W39367  10.803  17.094   3.546 -0.1549 -0.2843 -0.1662
19834W        W39368  13.629   2.255   2.490  0.1921 -0.0259 -0.1635
19835W        W39369  13.206  17.117  12.576 -0.0411  0.0139  0.3958
19836W        W39370  17.617  11.266   3.290  0.2121 -0.0993  0.0721
19837W        W39371  11.124  15.965   2.832  0.2029  0.2930  0.0088
19838W        W39372   1.725   2.261   4.632  0.1361 -0.1660 -0.1108
19839W        W39373   0.456   0.825   0.604 -0.2308  0.1001 -0.1412
19840W        W39374  16.827   5.698   2.072 -0.0658 -0.0876  0.0314
19841W        W39375   2.907  17.857   3.446  0.0356 -0.2903 -0.4203
19842W        W39376  16.717   4.506   1.616 -0.0450  0.2370  0.0365
19843W        W39377  14.115  15.793  13.273  0.0292  0.4386 -0.1982
19844W        W39378  15.168   2.623   3.588 -0.0796 -0.0498  0.0265
19845W        W39379  12.729   4.155  15.824  0.0800  0.0976  0.1138
19846W        W39380   7.876   2.775   0.792  0.2699  0.0207  0.1352
19847W        W39381  16.286   4.151  12.293 -0.0461  0.1231 -0.0245
19848W        W39382   5.911   9.685   2.852  0.2080 -0.0365  0.1275
19849W        W39383   9.348  11.612  12.032  0.1647  0.2031 -0.3001
19850W        W39384  18.373  12.440   0.153  0.0207  0.2473 -0.0442
19851W        W39385   1.658  17.976   4.264 -0.1901  0.0561 -0.0007
19852W        W39386  16.886   7.878  11.558 -0.1858  0.2450  0.0987
19853W        W39387   5.649   7.509   4.201 -0.0596 -0.2385  0.0078
19854W        W39388  13.992   9.126   5.461 -0.2007 -0.1633  0.2827
19855W        W39389  12.977  17.994   0.805 -0.0051 -0.1053  0.0273
19856W        W39390  15.303   9.880   1.124 -0.1498  0.0109  0.0067
19857W        W39391   7.956   2.870   4.836 -0.0790  0.0460  0.0916
19858W        W39392  15.769   9.070  13.800 -0.3502  0.0158 -0.0158
19859W        W39393  15.878   9.500   1.922  0.0954  0.2838 -0.0517
19860W        W39394   8.179   0.770  12.560  0.1453 -0.0533 -0.2007
19861W        W39395   7.797  16.077   0.086 -0.0060  0.1524  0.1555
19862W        W39396  12.324   5.376  14.047 -0.1117 -0.1914 -0.3658
19863W        W39397   5.956   7.908  11.770  0.2102 -0.1105 -0.1467
19864W        W39398   6.321   9.458  10.431 -0.0323 -0.2129 -0.3967
19865W        W39399   0.353   9.176   1.163 -0.0489  0.0760  0.0407
19866W        W39400   8.770   0.188   0.542 -0.4707  0.0171 -0.0285
19867W        W39401   8.642  12.116   1.717  0.0476  0.1383  0.0513
19868W        W39402  13.183  15.751  14.649 -0.2094  0.3465  0.1829
19869W        W39403   7.711  18.142  13.311 -0.0057 -0.0805  0.0390
19870W        W39404   5.173  10.387  14.090  0.3712 -0.0630  0.3898
19871W        W39405  14.704   5.292  11.640 -0.1900  0.0980  0.0136
19872W        W39406  10.599   9.918   3.041 -0.1351  0.0130 -0.1266
19873W        W39407   0.962  15.528   4.419  0.1337 -0.3302 -0.2244
19874W        W39408   8.204  13.034   2.117 -0.1256  0.2137 -0.2273
19875W        W39409  16.943   2.260   3.909  0.0166  0.1996  0.1727
19876W        W39410  15.271   6.044  11.453  0.0292 -0.2138 -0.1226
19877W        W39411   7.599  11.557  11.797 -0.0570 -0.1195 -0.1325
19878W        W39412  17.225   5.043  12.880 -0.1973  0.1079 -0.1661
19879W        W39413  15.013   8.288  15.331 -0.0970  0.1158 -0.2770
19880W        W39414   4.130   2.779  10.680 -0.2347  0.1013  0.1259
19881W        W39415   9.101  16.335   3.218  0.1230 -0.1236  0.0580
19882W        W39416  18.035   0.750   2.295  0.0366  0.1564 -0.0797
19883W        W39417   7.329  12.103  11.785  0.1819 -0.0324  0.0033
19884W        W39418  17.657   3.579   2.615 -0.1072 -0.4318 -0.0400
19885W        W39419   4.217   4.862  14.634 -0.2637 -0.2421 -0.1360
19886W        W39420   2.890  18.032  13.891 -0.3391 -0.0950  0.1450
19887W        W39421   6.841   1.692  13.705 -0.0271  0.1188  0.1610
19888W        W39422   4.373  16.335  12.583  0.1957  0.0001  0.2872
19889W        W39423  14.741   2.634  14.677  0.0782 -0.1223 -0.2015
19890W        W39424  13.999   2.802   0.047 -0.1003 -0.1330 -0.5793
19891W        W39425   9.172  15.569   2.093  0.1262 -0.0070 -0.0531
19892W        W39426   0.996  13.746   4.403 -0.0903 -0.0727 -0.0099
19893W        W39427  14.699   9.391   0.169  0.2251  0.0836 -0.2841
19894W        W39428  17.419  11.540   1.630 -0.2138  0.3379  0.4225
19895W        W39429   8.104  11.320  15.060  0.0473  0.2332 -0.0151
19896W        W39430   5.846  16.233  12.499 -0.0105 -0.3865  0.0278
19897W        W39431   2.038   4.540  13.328  0.0287  0.1997 -0.0367
19898W        W39432   1.694  12.433   0.520  0.0813  0.0273 -0.0298
19899W        W39433   2.014  13.657  14.013  0.1918 -0.1315  0.0962
19900W        W39434   4.026   4.925   2.776 -0.0948 -0.2445  0.2039
19901W        W39435  13.675   3.856  11.198 -0.0563 -0.1171  0.1066
19902W        W39436   3.453   1.797   0.692 -0.0103  0.1235  0.0603
19903W        W39437   7.406   2.844  15.314  0.1149 -0.2326 -0.1533
19904W        W39438  12.157   1.148  11.673 -0.1111 -0.0114  0.0924
19905W        W39439   3.545  13.517   4.442 -0.0019 -0.0413  0.1014
19906W        W39440  12.350  13.654   2.829 -0.0980  0.0101  0.0547
19907W        W39441   8.109  10.817  15.134 -0.0375 -0.1778  0.1188
19908W        W39442   2.935  13.257   3.942  0.1560  0.1301  0.5099
19909W        W39443   6.472   1.317   4.095  0.0511  0.2505  0.1491
19910W        W39444   0.443   9.201  13.424 -0.1634 -0.3864  0.0487
19911W        W39445  13.452   7.891   0.381 -0.0644  0.1576  0.0310
19912W        W39446   9.080  14.764   0.576  0.1328  0.0462  0.3568
19913W        W39447   0.296   2.450  11.809  0.3412  0.0205 -0.0282
19914W        W39448  15.805   7.755  13.319  0.1432  0.0592 -0.1099
19915W        W39449  14.112   4.273   1.697 -0.0294  0.0039 -0.0838
19916W        W39450  13.839   6.183  14.283 -0.1892 -0.0948  0.2106
19917W        W39451  12.066  15.369   0.793  0.1997  0.1591  0.0331
19918W        W39452   6.089   6.210   1.320  0.1147  0.1593  0.0554
19919W        W39453  15.911  10.249  13.833 -0.5696 -0.2438 -0.1413
19920W        W39454  17.735   2.148  12.249  0.0192  0.2585  0.1489
19921W        W39455   8.452   6.134   2.762 -0.0136  0.0956  0.3862
19922W        W39456  18.006   5.055  13.213 -0.0658 -0.0703 -0.1985
19923W        W39457  16.369  18.208  14.496  0.1588 -0.2491  0.1739
19924W        W39458   2.607  17.181   4.874 -0.0452  0.1749  0.0320
19925W        W39459   8.277  12.586  14.591 -0.1658  0.0625  0.0032
19926W        W39460   4.355   0.992  14.173  0.1054  0.0078  0.2603
19927W        W39461   2.925  12.155  11.793  0.1086 -0.4302 -0.1928
19928W        W39462  16.130  17.773  11.592  0.0297  0.1077  0.0962
19929W        W39463   6.180   8.733   2.422  0.1149 -0.1129 -0.1156
19930W        W39464   5.390   9.375  11.801  0.0805  0.0086 -0.1802
19931W        W39465   1.884   9.069  15.373  0.3801  0.4074 -0.1489
19932W        W39466   6.321   5.100   0.147 -0.0685 -0.1451 -0.1814
19933W        W39467   1.029  11.319  11.950 -0.1896  0.0089  0.3166
19934W        W39468   3.238   6.042  14.469 -0.2597 -0.0542  0.0915
19935W        W39469   6.251  14.581  15.338  0.1237 -0.0654  0.0784
19936W        W39470  12.785  17.131  15.248  0.1653  0.3308 -0.1003
19937W        W39471  10.392  14.489   2.332  0.0373  0.0398  0.0068
19938W        W39472  10.805  15.159  13.738  0.1438  0.1973  0.2336
19939W        W39473   8.715  15.337   4.331  0.0945 -0.1465 -0.1496
19940W        W39474  14.910   0.666  14.698 -0.1422 -0.2094 -0.3663
19941W        W39475  10.148   4.706  15.234 -0.1446  0.2565 -0.1963
19942W        W39476   5.440   6.324  11.676 -0.1579  0.1654 -0.0416
19943W        W39477   7.614   8.967   1.252 -0.0556 -0.1495  0.1487
19944W        W39478   8.948   0.837  11.528  0.1921 -0.0057  0.4035
19945W        W39479  11.765  13.980  11.747 -0.1813  0.1641 -0.3967
19946W        W39480   3.628   5.881   0.770 -0.1117 -0.1723 -0.0225
19947W        W39481   1.716  17.671   4.771 -0.5907 -0.1621 -0.0104
19948W        W39482   5.400   7.974   2.766 -0.0611 -0.1619 -0.1279
19949W        W39483   6.418   2.957  14.223  0.0158 -0.1571 -0.1240
19950W        W39484   3.211  11.697   0.870  0.0299  0.2086  0.0240
19951W        W39485   6.792  11.821   4.619 -0.0364  0.1648  0.2132
19952W        W39486   1.452   2.021   0.732  0.0527 -0.3474  0.1164
19953W        W39487   5.386   3.134   2.290  0.1783 -0.5450 -0.1842
19954W        W39488   2.414   3.034   0.402  0.2243 -0.0430  0.1558
19955W        W39489  15.652   2.175   5.428 -0.0935  0.2802 -0.0692
19956W        W39490  14.721  11.629  15.399 -0.4836  0.2796 -0.0293
19957W        W39491   9.591  17.281  13.025 -0.2028  0.0196 -0.0128
19958W        W39492  17.148   1.330   3.272 -0.2292  0.0434  0.1979
19959W        W39493  11.468   0.993   3.423  0.1548 -0.0333  0.1234
19960W        W39494   0.545  10.706   0.843  0.3868  0.1892 -0.0253
19961W        W39495   6.478  18.243  12.456  0.0774  0.4338 -0.1645
19962W        W39496  13.606   0.690  12.398 -0.1706 -0.3592 -0.0043
19963W        W39497  14.459   5.713  13.567 -0.2543  0.2867  0.2366
19964W        W39498   5.935  12.697  15.298  0.0703  0.1018  0.0838
19965W        W39499   9.406  16.643   5.545 -0.0680  0.2690 -0.0524
19966W        W39500   4.454  17.088   4.703  0.0330 -0.2566  0.0326
19967W        W39501   2.173   4.802  12.123  0.0664 -0.1840  0.0607
19968W        W39502   7.489   6.837   2.578 -0.0517  0.1071 -0.3678
19969W        W39503   6.829   6.773  13.697  0.1001 -0.0135  0.1486
19970W        W39504  12.194   4.105   2.828 -0.4148  0.2960  0.2230
19971W        W39505   0.681   5.417  15.695  0.3608  0.0197 -0.0728
19972W        W39506  10.507  10.040   0.641  0.1436 -0.1499  0.3967
19973W        W39507   4.463   8.716   0.017 -0.1351  0.0126 -0.0995
19974W        W39508   8.210  15.417   3.802  0.2923  0.3006  0.0801
19975W        W39509   7.093   4.118   4.821 -0.0098  0.1432  0.0164
19976W        W39510  17.058   5.825   3.439  0.0587 -0.0450 -0.0735
19977W        W39511   0.692  11.042  15.001  0.3511  0.1561 -0.1345
19978W        W39512   8.764  16.788   1.520  0.4081 -0.0404  0.1249
19979W        W39513  14.212   1.456  11.569 -0.2390 -0.0498  0.2747
19980W        W39514   8.065   9.887   2.943  0.3240 -0.2861  0.0304
19981W        W39515   9.494   6.188  15.132  0.0381 -0.1660 -0.3053
19982W        W39516   1.697  16.716  13.663 -0.1282 -0.1150  0.1437
19983W        W39517   6.626  14.617  13.924 -0.0944  0.1408 -0.4148
19984W        W39518  11.109   0.796  13.106  0.1332 -0.0703 -0.0199
19985W        W39519   5.439   8.662  12.463 -0.0134 -0.1829  0.0478
19986W        W39520   0.751  12.852  11.569  0.0065 -0.0544  0.2374
19987W        W39521   0.025  16.112   2.263  0.0476  0.0826 -0.3118
19988W        W39522   0.681   1.070  13.447  0.0384 -0.1283 -0.2505
19989W        W39523   1.888  11.306   2.240  0.1623 -0.4252 -0.1412
19990W        W39524  16.909  11.293  13.115  0.1270 -0.0787 -0.0161
19991W        W39525  18.390   0.029   4.190  0.2732 -0.0056 -0.3405
19992W        W39526  17.850   2.878   3.353 -0.0816 -0.0499  0.5151
19993W        W39527   8.626   0.294   1.204 -0.0663 -0.0354  0.2219
19994W        W39528  18.278  12.903   1.357  0.2982  0.0724  0.1367
19995W        W39529  15.356  15.351   4.377 -0.0049  0.1294  0.0024
19996W        W39530   6.055   8.394   4.337  0.0036 -0.0548  0.2756
19997W        W39531   5.860   0.224   4.158 -0.0352  0.2500 -0.0983
19998W        W39532  17.899   9.810  14.698 -0.1382 -0.1628  0.1736
19999W        W39533   2.907   4.036   4.856  0.1943  0.1618  0.1126
20000W        W39534   1.739  15.318  12.248 -0.0237 -0.2912 -0.0793
20001W        W39535  16.774  13.764  11.860  0.1813 -0.1379 -0.2481
20002W        W39536   5.491  17.421   0.143 -0.4243 -0.1596  0.0070
20003W        W39537   4.952   0.264   4.585  0.1280  0.1663  0.1818
20004W        W39538   3.939  17.370  12.179 -0.1261 -0.0436  0.2532
20005W        W39539   7.829  13.360   3.038 -0.0769 -0.2597  0.0163
20006W        W39540   2.119  17.872   0.321 -0.2222  0.0980 -0.1849
20007W        W39541   9.931   2.610   0.330  0.0559  0.0565 -0.3115
20008W        W39542  18.361   9.004  11.242  0.0469 -0.2452 -0.0223
20009W        W39543   5.069  11.557  15.396  0.0950 -0.0010 -0.4804
20010W        W39544   9.014   1.487  12.924 -0.2078  0.1386 -0.0568
20011W        W39545   2.959  12.886   2.693  0.0704  0.2046 -0.2645
20012W        W39546  12.628  11.937  15.187  0.0538  0.0825  0.1546
20013W        W39547   2.294   0.448  14.082 -0.1374  0.0254  0.1595
20014W        W39548  16.642   6.350  12.976  0.0677 -0.3385 -0.0625
20015W        W39549  10.882   7.839  15.413 -0.2401 -0.0359 -0.3527
20016W        W39550  15.342   8.156  11.486  0.1573  0.2543  0.0523
20017W        W39551   5.818  16.867  15.314 -0.0580 -0.0349 -0.0847
20018W        W39552  10.287  11.257   2.727 -0.2120  0.0846 -0.1156
20019W        W39553   8.404  10.016  11.456 -0.0133  0.0867  0.0855
20020W        W39554  16.207   7.330   3.164  0.2015 -0.3305  0.1600
20021W        W39555   1.227  13.821  14.875  0.0369  0.2815 -0.3547
20022W        W39556  13.138  12.168  13.270 -0.1785 -0.0006  0.0104
20023W        W39557  14.051   3.230   3.538  0.2630 -0.1259  0.0945
20024W        W39558  15.468   4.591  11.514 -0.0798 -0.0762 -0.1382
20025W        W39559   1.260   9.398  12.624  0.0630 -0.0023  0.2570
20026W        W39560  11.691  11.201   3.615  0.1104  0.0236 -0.0670
20027W        W39561   6.900  13.425  12.092  0.1575  0.0359 -0.2862
20028W        W39562   1.606   1.648  12.024  0.0608 -0.2951 -0.2166
20029W        W39563  15.020   4.487   0.772  0.2800 -0.3031 -0.3019
20030W        W39564  15.552  12.759   0.681 -0.2507  0.0832  0.2126
20031W        W39565   7.819   1.725   3.765 -0.0812 -0.1672 -0.0895
20032W        W39566   5.396   7.108  12.127  0.1043  0.2726 -0.0661
20033W        W39567   8.835  14.030   4.768 -0.2456  0.0215  0.1055
20034W        W39568  11.833   6.886  12.924 -0.1374 -0.1511 -0.2023
20035W        W39569  10.582   2.484  12.692  0.2228 -0.1845 -0.0343
20036W        W39570  17.892  12.013   2.231 -0.3828 -0.2573  0.0633
20037W        W39571   6.583   4.067   0.305 -0.1577  0.0132  0.1747
20038W        W39572   9.902   4.587   3.167  0.0418 -0.0264  0.1780
20039W        W39573  17.983   9.418  11.460  0.0331  0.0802  0.1191
20040W        W39574  18.160   3.978  14.058 -0.1636 -0.2680  0.1441
20041W        W39575  13.655  12.117  14.685  0.2934 -0.0091 -0.0144
20042W        W39576   9.196  15.008   5.795  0.1332 -0.0875 -0.2039
20043W        W39577   4.947  18.184  15.670 -0.3793  0.0396 -0.0905
20044W        W39578   5.513   7.183   1.127  0.2698  0.6086  0.3153
20045W        W39579   2.836   8.734   1.412  0.2867 -0.0345 -0.0264
20046W        W39580  14.167   1.414   2.864  0.0524  0.1826 -0.0409
20047W        W39581  13.881  15.267  14.088  0.2705 -0.2100  0.2772
20048W        W39582   0.073   8.039  15.242  0.0737  0.1795 -0.0069
20049W        W39583   3.851  10.673  11.282 -0.1645 -0.0851 -0.0927
20050W        W39584   9.566   4.268  13.393  0.0650  0.1971 -0.1180
20051W        W39585  16.892   3.619  12.514  0.0314 -0.1736 -0.2206
20052W        W39586  11.251  14.852   3.467 -0.0302 -0.1913  0.0997
20053W        W39587   2.740   5.576  15.460  0.1924  0.2352  0.2386
20054W        W39588   7.052   5.694   3.016 -0.2974  0.0680 -0.0885
20055W        W39589   5.986  15.789   1.309 -0.0195 -0.2710 -0.3178
20056W        W39590   3.684   2.751   3.536  0.2561 -0.1142 -0.1628
20057W        W39591   9.685  15.603   2.129 -0.2247  0.0695  0.0815
20058W        W39592  12.772   6.632   1.070  0.2329  0.1434 -0.2525
20059W        W39593  14.692  15.165   1.167  0.0108 -0.1168 -0.1244
20060W        W39594   7.351   9.964  12.579 -0.2960 -0.3641 -0.0240
20061W        W39595   6.700   9.194   4.263 -0.0250  0.0139 -0.3196
20062W        W39596   6.261  17.557   0.581 -0.4441 -0.1739  0.0741
20063W        W39597   5.267   9.343   0.720 -0.1687  0.0462 -0.0415
20064W        W39598   2.961  17.716  15.069  0.0813  0.0305 -0.0895
20065W        W39599   0.621  18.288  15.320 -0.3320 -0.1460 -0.3581
20066W        W39600  14.762   3.298  13.870  0.1803 -0.2428  0.1018
20067W        W39601  12.585  12.191   0.726 -0.1143 -0.0483 -0.0089
20068W        W39602   9.905  10.500  14.254 -0.1129  0.0316  0.0530
20069W        W39603   7.891  13.090   1.729  0.1229  0.2309 -0.1002
20070W        W39604  16.947   2.743  13.497  0.1058  0.2259 -0.0485
20071W        W39605   4.858   0.618  12.463 -0.3016 -0.0601 -0.0320
20072W        W39606  16.872   5.288   3.758 -0.0205  0.0765 -0.2668
20073W        W39607   9.439  15.124  13.105  0.0399  0.0643 -0.2251
20074W        W39608  17.491   4.480   2.974  0.0671 -0.2808  0.3592
20075W        W39609   8.024   8.084   0.459 -0.3323 -0.2041 -0.0759
20076W        W39610  15.633   5.263   4.044  0.0658  0.1726 -0.1276
20077W        W39611   7.901  16.479  12.518  0.0981 -0.0878 -0.4320
20078W        W39612   4.023   9.472  15.710  0.2252  0.4437  0.1120
20079W        W39613  11.212   0.363   0.975  0.0800  0.3154 -0.0601
20080W        W39614  10.905  15.426   2.862  0.0679  0.0958  0.2896
20081W        W39615   2.123   3.858   2.989  0.1052 -0.2039 -0.0447
20082W        W39616   2.218   6.952   2.206  0.0800  0.3044 -0.2101
20083W        W39617   4.692   4.482  15.073  0.1009 -0.0669  0.0096
20084W        W39618  13.815   3.049   0.496 -0.3783 -0.0194  0.2067
20085W        W39619   1.777   6.995  14.358 -0.1209 -0.0373  0.2056
20086W        W39620   5.293  13.551  14.536 -0.4526  0.2541  0.0783
20087W        W39621  17.055   2.966  11.494  0.0287  0.1710 -0.1324
20088W        W39622  11.066   7.154   2.564 -0.1036 -0.0658  0.1213
20089W        W39623   6.410  18.019   2.062  0.2250 -0.2482 -0.1727
20090W        W39624  15.408   0.071  10.878 -0.1747 -0.1912 -0.0630
20091W        W39625  15.179   6.044  13.936  0.1566  0.0725 -0.0705
20092W        W39626   5.187  15.699   4.260  0.2151  0.2236 -0.0482
20093W        W39627   4.231   8.851  14.956 -0.1359 -0.0653  0.0522
20094W        W39628  13.589   5.122   0.059  0.2735 -0.1334 -0.0676
20095W        W39629  12.753   4.222   1.828  0.0598 -0.0700  0.0511
20096W        W39630  13.378  13.509  12.705  0.2639  0.0016  0.2828
20097W        W39631  15.652  10.938   2.071 -0.1770 -0.0010  0.2840
20098W        W39632   4.781  15.088   3.804  0.1553  0.0171  0.0332
20099W        W39633  17.259  16.615  13.787 -0.2239 -0.2232 -0.0040
20100W        W39634  13.878  15.555   2.326  0.0754 -0.1562  0.2012
20101W        W39635  14.308   8.813   4.330 -0.3498  0.0786  0.1591
20102W        W39636  10.440   2.432  13.392  0.0935  0.3583  0.3633
20103W        W39637   0.740   3.510   2.600 -0.1893  0.1317 -0.0400
20104W        W39638   6.684  16.740  12.699 -0.1036  0.3014 -0.3532
20105W        W39639   7.662  15.504   3.585 -0.1068 -0.0298 -0.4716
20106W        W39640  13.657   7.925   3.081 -0.1275 -0.2256  0.1390
20107W        W39641   5.052   4.437  15.477 -0.0050 -0.1484 -0.3133
20108W        W39642   9.278  10.505   3.700 -0.0174  0.0376  0.1951
20109W        W39643   8.075   2.983   0.119 -0.0667 -0.0009 -0.1202
20110W        W39644  14.927   6.947  14.260  0.0458 -0.0987 -0.1152
20111W        W39645  13.002   8.836   3.207 -0.3442  0.1731 -0.1082
20112W        W39646   4.306  14.581   2.141 -0.0885 -0.2013 -0.2554
20113W        W39647   9.071   8.177  13.118  0.2994 -0.0815 -0.0022
20114W        W39648  11.048  11.143  14.119  0.3257  0.1283  0.0749
20115W        W39649   2.245   1.553   4.399 -0.0384  0.0335 -0.1654
20116W        W39650  13.865  14.175   0.035 -0.0445  0.3207  0.2336
20117W        W39651  17.943  16.229   2.142  0.1348  0.0956 -0.0977
20118W        W39652  10.736   9.863   1.985 -0.1030  0.0455  0.1552
20119W        W39653   0.331  11.747   3.276 -0.1082  0.1152 -0.2214
20120W        W39654  13.362  17.061  14.943 -0.1938 -0.2132 -0.2410
20121W        W39655   4.088   4.087  12.971  0.1414 -0.1838 -0.0386
20122W        W39656   7.698   6.587   2.206 -0.2016 -0.1196  0.1354
20123W        W39657   6.232  14.769  13.666  0.1889 -0.0290 -0.1136
20124W        W39658   6.235   9.175   1.724  0.1402 -0.0607  0.2239
20125W        W39659  10.200   7.502  15.600 -0.1097 -0.2000 -0.0668
20126W        W39660   5.772   1.812  12.986 -0.0987 -0.0178  0.1399
20127W        W39661   0.346  13.795   3.030  0.0102 -0.1115 -0.0393
20128W        W39662  17.480  16.428  14.888  0.0258  0.2024  0.0098
20129W        W39663   1.354   8.214  12.437  0.0893 -0.1313 -0.1990
20130W        W39664   6.374   8.908   2.878  0.1790 -0.1725 -0.0267
20131W        W39665  18.008   1.950   1.562  0.0472 -0.1169 -0.0367
20132W        W39666  12.767  11.559  14.746 -0.0271  0.0290 -0.0910
20133W        W39667   3.724  16.234  15.329 -0.1357 -0.0392 -0.0942
20134W        W39668  14.898   5.464   2.789  0.0486 -0.5507  0.0450
20135W        W39669   4.954  16.718   2.128 -0.0054 -0.0621  0.1820
20136W        W39670  17.228  16.830   3.016 -0.3221  0.0018  0.1671
20137W        W39671   7.320   0.893   2.341  0.2523  0.0668 -0.2354
20138W        W39672  11.454  10.648  11.766  0.3249 -0.1013  0.1122
20139W        W39673   3.823   5.691  13.271  0.0010 -0.1977  0.1587
20140W        W39674   9.994   8.884   0.244  0.1202  0.1442 -0.2027
20141W        W39675   4.945   7.141   2.333 -0.0686 -0.2577 -0.3862
20142W        W39676  14.634   1.361   1.584  0.0047  0.0027  0.3350
20143W        W39677   1.884   4.839   1.373 -0.1911  0.3431  0.1073
20144W        W39678   0.631   1.611   3.349 -0.1275  0.0407  0.1807
20145W        W39679   9.977   8.415  12.939 -0.0668  0.2652 -0.3207
20146W        W39680  16.626  11.813   2.192  0.1795  0.0863 -0.0819
20147W        W39681   0.578   1.045   1.965 -0.1575 -0.2922 -0.5607
20148W        W39682   2.320   0.980   4.556  0.1810  0.0963 -0.1075
20149W        W39683   5.265   8.760   4.350 -0.0771  0.0442  0.2316
20150W        W39684   6.952   5.417  11.090 -0.0983 -0.1562  0.1114
20151W        W39685   8.347  11.991  12.794  0.0374  0.3555  0.0157
20152W        W39686   8.983   9.738  12.785 -0.1707  0.0767  0.1068
20153W        W39687   7.481   3.841  13.911 -0.0013 -0.0859 -0.1497
20154W        W39688  11.448  17.194  13.340 -0.1569  0.2487  0.2571
20155W        W39689   5.849  14.884  12.530 -0.1205 -0.1763 -0.1886
20156W        W39690   6.086  10.418   1.000  0.0133  0.1257 -0.1019
20157W        W39691   8.454  14.252   2.116 -0.3757 -0.3133 -0.0026
20158W        W39692   2.117  10.520   4.059  0.0358  0.1141  0.1115
20159W        W39693   7.295   9.468   1.958  0.1600  0.3035 -0.2608
20160W        W39694  15.812  18.229   2.276  0.3311  0.2509 -0.0203
20161W        W39695   1.685  11.757   2.174  0.1857 -0.2819  0.0224
20162W        W39696   4.574   1.758  15.501 -0.0406  0.0671 -0.4095
20163W        W39697   2.343  14.619  12.499  0.0109  0.0166 -0.2391
20164W        W39698   8.843  12.262  13.765  0.2325  0.0814  0.4412
20165W        W39699   1.396   6.953   1.564 -0.1116  0.2532  0.0620
20166W        W39700  13.604   5.652  12.536  0.1095 -0.1287  0.0990
20167W        W39701   5.327   5.477  11.514  0.2024  0.1395  0.1076
20168W        W39702   0.263   4.556  14.079  0.1400  0.0475  0.0321
20169W        W39703   2.701   5.859   1.753 -0.0460  0.2890  0.1811
20170W        W39704  12.174  13.114  15.832  0.0399  0.0009 -0.0890
20171W        W39705  14.998  10.150  13.317 -0.0625 -0.0713  0.0399
20172W        W39706  14.298  16.164   3.070 -0.0803 -0.0773  0.3040
20173W        W39707   9.596   2.463  11.903 -0.0379 -0.2981  0.0602
20174W        W39708   7.745  14.341   4.219 -0.0457  0.1427  0.1273
20175W        W39709  11.835   4.761   3.272 -0.0926 -0.2820  0.2087
20176W        W39710   7.023   0.649  11.761  0.3025  0.0560  0.1355
20177W        W39711   1.206  15.533   0.792 -0.0810  0.1353  0.3243
20178W        W39712   9.317   0.506   2.118 -0.0238  0.0156 -0.0566
20179W        W39713   5.847   0.308   0.930  0.2525 -0.2498 -0.2431
20180W        W39714   2.102  17.740   3.920 -0.0339  0.2110  0.0029
20181W        W39715  10.453   6.164   1.059  0.0221 -0.0392  0.1987
20182W        W39716   0.148   0.440  13.035 -0.0114 -0.0693 -0.0497
20183W        W39717   6.442   4.400  14.882 -0.2279  0.0707 -0.3475
20184W        W39718   2.626  17.740   4.079  0.1496 -0.3006  0.0642
20185W        W39719  12.055  16.608  12.296 -0.0818 -0.0306  0.1397
20186W        W39720   2.936   9.317  12.863 -0.2006 -0.0698 -0.1976
20187W        W39721  16.882   9.154   2.023  0.0741  0.3511 -0.1024
20188W        W39722   2.220  17.317  13.024 -0.0828 -0.0733  0.4101
20189W        W39723   7.592  13.690   2.676  0.0291 -0.1110  0.0479
20190W        W39724  15.324   3.747  11.190 -0.1113 -0.1271  0.3237
20191W        W39725  16.368  14.501  12.446 -0.2876  0.3023 -0.0391
20192W        W39726   4.742   7.666  14.433  0.6630 -0.1032 -0.2618
20193W        W39727   5.585   7.906   0.126 -0.1743  0.3146  0.2315
20194W        W39728  11.849   9.739  13.845 -0.1885 -0.2559 -0.0428
20195W        W39729  13.342  15.223  13.988  0.0040 -0.0324  0.2185
20196W        W39730   1.438  11.444  11.514  0.0418  0.4177 -0.0842
20197W        W39731   3.918  11.785   5.458  0.1157  0.0755 -0.0831
20198W        W39732  15.703  12.750   4.135 -0.0255 -0.0095 -0.6568
20199W        W39733   5.493   7.819  14.646  0.4329  0.2400  0.0102
20200W        W39734   7.140  14.663   1.196 -0.0582  0.0360  0.1969
20201W        W39735   6.355  13.324  14.565  0.4104 -0.0673  0.1261
20202W        W39736   6.204  18.029  12.870  0.2694  0.1670  0.1150
20203W        W39737   1.610  10.661   3.380  0.0501 -0.1607 -0.0616
20204W        W39738   4.493  16.827  12.765  0.0718 -0.3333  0.0332
20205W        W39739   9.763  17.248  11.974 -0.1364 -0.4624  0.2990
20206W        W39740   1.857  16.768   2.291  0.1697  0.1738  0.1192
20207W        W39741   0.486  10.703  14.167 -0.2216  0.1413 -0.2338
20208W        W39742   2.911   0.714   3.915  0.1987 -0.1495  0.0876
20209W        W39743  14.423  12.544   1.984 -0.0605 -0.1411  0.0037
20210W        W39744   3.115   5.190   5.202 -0.3104 -0.2193 -0.1904
20211W        W39745   5.925  14.754  11.240  0.0901  0.0489 -0.2456
20212W        W39746  13.144   9.175  12.101 -0.3476 -0.1125  0.0599
20213W        W39747  10.637   2.233  15.428  0.4814 -0.3495  0.2308
20214W        W39748   3.978  18.188  13.392 -0.1301 -0.0683 -0.1040
20215W        W39749  16.415   4.915  13.584 -0.2523  0.0243 -0.0064
20216W        W39750  12.380   0.770  12.474 -0.1864 -0.3380  0.2357
20217W        W39751   5.660  12.490   2.448 -0.0744  0.1123  0.2927
20218W        W39752  15.125   5.360   2.369 -0.2098  0.0990 -0.0491
20219W        W39753   9.432  14.808  14.717 -0.2360 -0.5013  0.2097
20220W        W39754   7.286   3.684  11.677  0.1987 -0.0564 -0.1072
20221W        W39755   3.945  13.203  15.105 -0.0548  0.0541  0.2112
20222W        W39756  14.637   4.476  13.966 -0.0867 -0.3271  0.0082
20223W        W39757   5.493  11.538   3.912  0.2925  0.0149  0.1436
20224W        W39758  14.154   7.067   1.748 -0.3486 -0.0730  0.0801
20225W        W39759  12.016   6.315   2.083 -0.0215 -0.1692  0.4061
20226W        W39760  14.807   5.267   1.857 -0.0505  0.4775 -0.0096
20227W        W39761   9.190   8.708  15.689 -0.0420 -0.0431 -0.2077
20228W        W39762  15.478  10.175   2.404 -0.0952 -0.1015 -0.0828
20229W        W39763  17.666   8.323   1.243  0.0376 -0.0944 -0.0021
20230W        W39764  10.882   6.806  13.161  0.2412  0.0701 -0.2491
20231W        W39765  13.919  16.791  13.283 -0.0197  0.1479  0.0638
20232W        W39766   9.293   9.104  12.142  0.1891  0.2167 -0.0891
20233W        W39767   9.640  13.867   2.383 -0.1222  0.0564 -0.0594
20234W        W39768   3.221   2.033   1.106 -0.2233  0.1364  0.2028
20235W        W39769  18.161  15.852  15.230  0.3467  0.0011  0.0792
20236W        W39770  17.474   0.696  11.983  0.0412  0.1568 -0.0063
20237W        W39771   4.378   8.762   0.533  0.2271 -0.1483 -0.1199
20238W        W39772  13.098  10.458  11.709 -0.1437 -0.2468 -0.0180
20239W        W39773  10.205  17.036   5.355 -0.0550 -0.0144  0.0959
20240W        W39774   7.459   2.324   2.893 -0.0508 -0.0426  0.0198
20241W        W39775  13.351  12.760  14.575  0.0373  0.1120 -0.0204
20242W        W39776  11.048  12.984  13.498  0.1062 -0.0959 -0.0291
20243W        W39777   6.371   7.636  14.850  0.0053 -0.0290  0.0118
20244W        W39778  11.249  16.497  10.409 -0.1861  0.3096 -0.0785
20245W        W39779   6.470   2.825   4.656 -0.1772 -0.0993  0.1379
20246W        W39780  17.731   3.768   9.886  0.3692 -0.3053  0.0911
20247W        W39781   7.473   0.976   0.706 -0.0197 -0.3288  0.1743
20248W        W39782  14.418  12.998   0.146 -0.0046 -0.1409 -0.0422
20249W        W39783   6.334   4.146  13.704  0.3758 -0.0799  0.1345
20250W        W39784   7.662  16.607   2.795 -0.1038  0.1911  0.0013
20251W        W39785  16.321   5.971   2.071  0.1829 -0.2583  0.1474
20252W        W39786   7.548  10.301  13.593  0.2144 -0.2279 -0.1021
20253W        W39787   5.651   6.281   1.575 -0.2248 -0.3219 -0.1129
20254W        W39788   7.205   5.607   4.387 -0.1658 -0.1830  0.0930
20255W        W39789   9.719   7.444   2.530 -0.3890 -0.2341 -0.1613
20256W        W39790  11.465  15.997  15.472 -0.0518  0.0619 -0.0372
20257W        W39791  14.733  13.842  15.835 -0.1995 -0.0540  0.1361
20258W        W39792   5.068  10.191   3.531 -0.2468  0.3250  0.1473
20259W        W39793   4.914   6.288   3.586 -0.1086  0.1526 -0.0174
20260W        W39794  16.748   7.044  14.667  0.0435 -0.0456 -0.1592
20261W        W39795   6.237  16.197   1.131  0.1129 -0.0882  0.0037
20262W        W39796   1.630  14.245   4.966  0.1018  0.0505 -0.0600
20263W        W39797  16.073  13.608  12.089  0.2296 -0.1253 -0.0692
20264W        W39798   3.925   7.355  13.482 -0.0123  0.1838 -0.1630
20265W        W39799  11.673  12.904  15.069  0.0678 -0.0610 -0.0586
20266W        W39800  15.604  10.616  13.510  0.0579  0.4328  0.0278
20267W        W39801   2.497   9.661   3.510 -0.2106 -0.0621 -0.0934
20268W        W39802   3.420  17.584   4.364  0.3005 -0.0034 -0.2244
20269W        W39803   6.581   8.086  12.264  0.0791  0.1641  0.0904
20270W        W39804   7.207  16.944  14.076 -0.2180 -0.0023 -0.1262
20271W        W39805  15.831   0.062   3.972 -0.0678  0.0157  0.2802
20272W        W39806  16.533   8.957   2.342  0.0291 -0.4315  0.0338
20273W        W39807   6.261   9.595  14.490 -0.2897  0.1381 -0.0937
20274W        W39808   7.694  12.294   2.211 -0.2976  0.2475 -0.1624
20275W        W39809  18.149   5.733   1.837 -0.0320 -0.0370  0.1434
20276W        W39810   1.206  18.345   5.236  0.0868 -0.1103  0.3174
20277W        W39811  11.101   0.275   5.370 -0.1088 -0.0315  0.3810
20278W        W39812   8.722  10.494  15.091  0.2571  0.2877  0.0667
20279W        W39813   1.514  11.511   0.139  0.1346 -0.0542 -0.3230
20280W        W39814  15.456   4.304   1.669 -0.2254 -0.1424 -0.2114
20281W        W39815   2.779  16.269  13.348  0.0906  0.0876 -0.1212
20282W        W39816   1.898  13.825   4.086  0.4206 -0.2153 -0.4221
20283W        W39817  15.074   9.194  12.728 -0.0158  0.1318  0.0350
20284W        W39818  16.366   9.034   0.986  0.0813  0.1090  0.0221
20285W        W39819   9.784   0.966   0.784 -0.0537 -0.1597 -0.1008
20286W        W39820   1.866   5.665  14.640 -0.1519 -0.2775 -0.1643
20287W        W39821  11.499  14.518   4.547 -0.2246 -0.1068 -0.0323
20288W        W39822  12.915   7.379  12.592 -0.0232  0.3136  0.3047
20289W        W39823   7.000  13.744  13.187  0.0659 -0.2891 -0.0743
20290W        W39824   1.010  14.241  13.817  0.1621 -0.1982 -0.1711
20291W        W39825   5.182   8.333  13.697  0.2494 -0.0069 -0.2457
20292W        W39826   6.684   8.641  12.186  0.2416 -0.1694  0.1925
20293W        W39827   6.783   4.170   3.843  0.0593 -0.1359  0.1190
20294W        W39828   3.515   9.668   2.033 -0.1268 -0.2997 -0.0317
20295W        W39829   8.574  15.497  11.790  0.0796  0.0646 -0.1158
20296W        W39830  10.873   5.758   3.954  0.0822 -0.1888 -0.0532
20297W        W39831   8.611   1.051   1.713 -0.2061  0.3779  0.1637
20298W        W39832   3.089   2.246   2.604 -0.1127 -0.1235  0.2271
20299W        W39833   7.622   3.020   1.706 -0.1302  0.1541 -0.0751
20300W        W39834   6.107  13.073   3.339  0.0378 -0.2240  0.2176
20301W        W39835   6.724   2.959   4.164  0.2577 -0.0236  0.1291
20302W        W39836   4.697  12.593  13.670 -0.1249 -0.2544 -0.0091
20303W        W39837   1.212  13.460  12.963 -0.0579 -0.1224 -0.0412
20304W        W39838   8.839   9.502  11.435  0.2565  0.1698 -0.0121
20305W        W39839   6.066   6.178   0.810 -0.2157  0.1135 -0.0775
20306W        W39840   0.171  14.537  13.655 -0.1152 -0.0877 -0.0391
20307W        W39841  10.178   0.767  13.188 -0.0953 -0.0585 -0.1315
20308W        W39842   6.807   1.250  14.467  0.0313  0.1189 -0.0638
20309W        W39843  11.582   1.636  15.466  0.0484  0.0250  0.0429
20310W        W39844   3.046   7.583   4.362  0.0692 -0.1355  0.0198
20311W        W39845  18.320  14.935   2.474  0.3285 -0.0623  0.0249
20312W        W39846   6.136   8.617  13.583  0.0433 -0.0602 -0.1068
20313W        W39847   7.470  13.452  12.247  0.2611 -0.4835 -0.5007
20314W        W39848   7.903  12.029   3.137  0.0864 -0.0946  0.2799
20315W        W39849   9.822  17.371  14.944 -0.0107 -0.2704  0.0559
20316W        W39850  10.812  18.340   4.135 -0.1176  0.0195  0.2081
20317W        W39851   9.148  11.911   1.340 -0.0074  0.0185  0.1741
20318W        W39852  14.032   9.290  14.832  0.2447  0.1833  0.3409
20319W        W39853  11.539  16.767   3.296 -0.4423 -0.2952 -0.1620
20320W        W39854  17.391  15.528  12.998 -0.2078 -0.0485 -0.2878
20321W        W39855   7.912  16.047  14.371 -0.0203 -0.1656 -0.0291
20322W        W39856  17.739   1.264   1.131 -0.1946  0.0208 -0.1792
20323W        W39857   2.921  13.487   2.160 -0.0624  0.2240 -0.1381
20324W        W39858  13.532   6.043   4.037 -0.1672 -0.0013 -0.2912
20325W        W39859   4.382   8.994   2.756  0.0387  0.0181  0.3389
20326W        W39860  13.695  13.133  11.780 -0.0505  0.0262 -0.2200
20327W        W39861   4.239  11.853  11.956  0.1985 -0.3344  0.0027
20328W        W39862  12.166   1.058  15.791  0.2595  0.1787  0.1601
20329W        W39863  17.454  10.388  13.491  0.2499 -0.1678 -0.0399
20330W        W39864   2.568   4.288   0.785  0.0630  0.3471  0.0237
20331W        W39865  15.096  15.415  14.909 -0.1734  0.0424  0.3338
20332W        W39866  12.984  11.010  12.458  0.0409 -0.1880 -0.3136
20333W        W39867   3.831   4.574   0.962  0.0135 -0.5344 -0.0648
20334W        W39868   7.097   9.527   4.500 -0.0801 -0.1261  0.0771
20335W        W39869   7.046  16.762   4.546 -0.1444 -0.2176 -0.1445
20336W        W39870   7.232   1.346   2.497  0.2178  0.0275  0.0863
20337W        W39871  17.892  12.884  11.890 -0.4616 -0.0106 -0.0558
20338W        W39872   6.257  15.293  13.445 -0.0447  0.0536 -0.0099
20339W        W39873   6.121   4.554   0.506  0.1425 -0.0545  0.0231
20340W        W39874   5.142   7.502  12.072  0.2379 -0.2011  0.1474
20341W        W39875   8.390  15.300   4.793 -0.0950 -0.0613 -0.1447
20342W        W39876  15.342   5.112   1.995  0.0640 -0.0624  0.4199
20343W        W39877  14.465  11.631   3.746  0.0468  0.0390  0.0696
20344W        W39878   1.712   1.586  14.860  0.1190 -0.0802 -0.0178
20345W        W39879  14.648   4.947  13.044  0.1284 -0.1201 -0.1155
20346W        W39880  16.686   8.151  14.076 -0.0953 -0.2559 -0.0743
20347W        W39881   5.515   8.576  15.157  0.2586  0.2885 -0.0685
20348W        W39882  16.723  12.392   1.737  0.1474  0.0258 -0.2534
20349W        W39883   5.295  16.957   0.231 -0.0449 -0.0731 -0.3613
20350W        W39884  12.208  15.830   0.623  0.2323 -0.1451  0.1122
20351W        W39885  16.776  14.857   0.950 -0.1332 -0.2038 -0.0962
20352W        W39886  11.418   6.847  14.767  0.2699  0.5237 -0.0613
20353W        W39887   5.084   1.526   1.901 -0.2366 -0.1626  0.2928
20354W        W39888  15.017  10.390  11.906 -0.1100 -0.0568 -0.0433
20355W        W39889   9.425   0.981   1.997 -0.0710 -0.2228 -0.1450
20356W        W39890  16.829  17.617   1.659  0.2160  0.2127  0.1553
20357W        W39891  12.894  16.627   2.231  0.1967 -0.1856  0.0687
20358W        W39892  17.744  17.613   3.877 -0.0798 -0.3353  0.4109
20359W        W39893   7.526   4.350  13.924  0.0270 -0.1966 -0.0471
20360W        W39894  17.953  12.612  13.357 -0.1998 -0.2225  0.1626
20361W        W39895  16.588   1.967   3.702 -0.1952 -0.3915 -0.1644
20362W        W39896   6.020  10.629  11.576  0.3111 -0.0227  0.1289
20363W        W39897  14.165   2.231   1.442 -0.2203 -0.0137 -0.0574
20364W        W39898  14.144   2.720   1.358 -0.2438 -0.2768  0.1545
20365W        W39899  13.848  15.344  13.590  0.0151  0.0195  0.0122
20366W        W39900   6.182  12.054  12.883  0.0087  0.0285  0.0815
20367W        W39901  13.218   0.366   2.223  0.1463 -0.4208  0.0287
20368W        W39902   8.463  17.598  12.168  0.1044 -0.1714  0.2064
20369W        W39903  11.541  17.507  12.716  0.1711  0.1760  0.1968
20370W        W39904  16.068   6.253   2.454  0.0531  0.2517  0.0815
20371W        W39905  11.444  15.848   3.794 -0.0368 -0.1352 -0.1849
20372W        W39906   6.969  16.072   2.558  0.2302 -0.0221 -0.0684
20373W        W39907   3.266  13.744  10.793  0.1393  0.0468 -0.3257
20374W        W39908  14.767  15.133  15.618 -0.0396 -0.3373 -0.2756
20375W        W39909  16.170  16.386   0.102 -0.0443 -0.0404  0.2079
20376W        W39910   3.603   7.699   2.120 -0.1683  0.0592 -0.1057
20377W        W39911  12.106   1.140   5.037 -0.2453 -0.0942  0.0958
20378W        W39912  12.697   5.858   1.704 -0.1313 -0.0293  0.0115
20379W        W39913   9.421   6.235   3.020 -0.2538  0.2548 -0.0385
20380W        W39914   7.453   0.275   2.271 -0.2001 -0.1020 -0.2426
20381W        W39915   0.400  14.142  15.068  0.0076 -0.0760  0.0900
20382W        W39916   2.419   1.837  14.644  0.1500  0.0376  0.1346
20383W        W39917   0.509   3.096  15.411 -0.0162  0.0586  0.2315
20384W        W39918   7.815  17.129  15.635 -0.0629 -0.1345 -0.2025
20385W        W39919   2.704   1.815   0.855 -0.0545 -0.0936 -0.0515
20386W        W39920  14.221   2.150  14.912 -0.1496  0.4312 -0.1813
20387W        W39921  12.327  11.306  13.272  0.1974  0.0229  0.1874
20388W        W39922   8.904   5.152  12.508 -0.2990 -0.0974 -0.1614
20389W        W39923  11.845  13.784   3.571  0.1814 -0.1377 -0.3753
20390W        W39924   9.473   4.377  12.266  0.5129 -0.0562 -0.0108
20391W        W39925   5.936   7.422  11.009  0.0243  0.0340  0.3767
20392W        W39926  16.951  16.011   3.196 -0.2492  0.3203 -0.2008
20393W        W39927   9.734   8.680  15.692 -0.1687  0.3412 -0.2963
20394W        W39928   3.360  13.179  13.617 -0.2647 -0.1032 -0.1288
20395W        W39929   3.853  10.530   0.094 -0.0296  0.0527 -0.1014
20396W        W39930  10.677   0.580   3.179  0.0224 -0.2512  0.2298
20397W        W39931   6.263   6.974  12.906 -0.0888 -0.1137  0.2610
20398W        W39932  11.648  12.134   1.542 -0.2225  0.2281  0.1467
20399W        W39933   1.737   7.112   4.044 -0.1555 -0.2637 -0.2285
20400W        W39934   5.205   3.537   4.403 -0.1439  0.2097  0.2018
20401W        W39935   7.922  10.120   0.552  0.0286 -0.1817  0.2176
20402W        W39936   2.238  15.520  13.268 -0.0549  0.2345  0.0891
20403W        W39937  15.980  13.162   3.921  0.0093 -0.2276 -0.0722
20404W        W39938  15.738  11.827  15.127 -0.0695 -0.0504 -0.0882
20405W        W39939   5.634   6.099  15.281  0.0649  0.1925  0.1637
20406W        W39940  15.410   7.409  14.153 -0.2226 -0.2400  0.0057
20407W        W39941   5.163  12.441   2.060  0.1572  0.1013  0.0541
20408W        W39942   5.476   7.535  15.080  0.1082  0.0171 -0.0247
20409W        W39943   4.789   4.540   0.111 -0.0869  0.3292 -0.0550
20410W        W39944   2.760  12.742   3.772 -0.0005 -0.1689  0.1960
20411W        W39945   2.356   2.751  14.623  0.1171 -0.2497  0.0248
20412W        W39946   2.796   6.333   3.618  0.0950 -0.0377 -0.0733
20413W        W39947   2.675   9.646   2.663  0.0339  0.0134  0.1056
20414W        W39948  12.309  16.774  13.955  0.0619 -0.2657 -0.0579
20415W        W39949  11.073  17.019  11.931  0.2733  0.1883 -0.2504
20416W        W39950   8.550  12.611   2.532  0.0237 -0.1741  0.0219
20417W        W39951   9.849   8.231   1.213  0.4085 -0.2170  0.2126
20418W        W39952  14.476  13.876   4.056  0.0410 -0.0904 -0.4446
20419W        W39953   9.116   8.870   0.859 -0.2986  0.0203  0.1065
20420W        W39954  14.231   8.938   1.531 -0.0870 -0.0074 -0.1342
20421W        W39955   5.243  14.897   1.192  0.0591 -0.2791  0.0051
20422W        W39956  12.841  11.183  12.955 -0.2225 -0.0066  0.1986
20423W        W39957   4.187  10.094   4.011 -0.2118 -0.3241 -0.2227
20424W        W39958   8.803  10.898  13.403 -0.0456 -0.0819  0.1551
20425W        W39959   1.792   2.867  11.320 -0.0242 -0.0602  0.0116
20426W        W39960  15.790   3.244   4.784  0.0422  0.3161 -0.1168
20427W        W39961   5.274   9.469   3.730 -0.3137  0.0865 -0.0214
20428W        W39962  17.059  17.496  12.399  0.1969  0.1335  0.1054
20429W        W39963   3.170   7.907  12.992  0.0612 -0.1075 -0.2411
20430W        W39964  11.034   0.814   3.592 -0.3207 -0.1828 -0.0261
20431W        W39965   6.961  16.979  12.248 -0.0711 -0.2549  0.0122
20432W        W39966   5.072  10.666   2.673  0.2104  0.3406  0.0615
20433W        W39967  17.827  13.928  11.902 -0.0433 -0.3439  0.3301
20434W        W39968   2.763   4.690   1.017  0.2043 -0.1570 -0.2062
20435W        W39969   2.991   7.323  11.296  0.0570 -0.0490 -0.5025
20436W        W39970   5.019   7.325  15.001 -0.0381 -0.1084  0.0974
20437W        W39971  14.697   6.987   3.491  0.3828  0.2007 -0.0746
20438W        W39972   3.769  15.420   3.539  0.1791 -0.1882  0.1727
20439W        W39973  13.263   0.951   0.910  0.3416 -0.0797 -0.0821
20440W        W39974  13.021  16.984  11.658  0.1961 -0.1684 -0.3937
20441W        W39975  13.702  12.307   2.616  0.0425 -0.1481  0.3496
20442W        W39976   2.602   3.467   4.613  0.3229  0.3106 -0.1580
20443W        W39977  17.764  14.269  12.840 -0.2194  0.1576 -0.0635
20444W        W39978   2.954  17.889   4.452 -0.2142  0.1496  0.4001
20445W        W39979   6.468  18.189  14.712 -0.0521  0.0572 -0.4380
20446W        W39980   0.473   2.181  12.466 -0.4259  0.1993  0.0505
20447W        W39981   6.854  12.114  11.627  0.1865 -0.1604 -0.1896
20448W        W39982  11.368   6.921  13.227  0.3190  0.1764 -0.3923
20449W        W39983  13.053   8.317  15.518  0.0017  0.3247  0.1411
20450W        W39984  12.411  13.599   0.867  0.0251  0.2877 -0.1994
20451W        W39985   0.916  18.256   4.719 -0.3047 -0.1245  0.1361
20452W        W39986  15.070  15.808   2.790  0.1452  0.0209  0.1929
20453W        W39987  17.089   5.650  15.544 -0.0551  0.2547 -0.2329
20454W        W39988   3.962  12.603   1.752 -0.1271  0.2487 -0.0947
20455W        W39989   4.674   4.728  13.226  0.1527  0.1581  0.1432
20456W        W39990   6.935   0.374   2.145  0.1144 -0.2007 -0.2459
20457W        W39991  14.478   3.330   1.192  0.2823 -0.1196  0.0080
20458W        W39992   6.184   0.769  13.449 -0.1509  0.0156 -0.0979
20459W        W39993   6.379  16.015   4.041 -0.2129 -0.1563  0.0247
20460W        W39994   4.428   1.043  11.886 -0.1413  0.0475 -0.0462
20461W        W39995   0.726   1.752  12.253  0.0669 -0.0094 -0.2369
20462W        W39996   0.184  18.304  15.622  0.1877  0.0228 -0.4347
20463W        W39997  15.671  16.784   3.959 -0.1006 -0.0391  0.1814
20464W        W39998  18.320  13.576  13.097  0.2163  0.2647 -0.0827
20465W        W39999   9.252   2.820  13.660 -0.1055 -0.1165  0.1474
20466W        W40000  14.493  17.977  13.700  0.0499 -0.2731  0.0603
20467W        W40001  10.534   7.783   2.308  0.0602 -0.2218  0.2312
20468W        W40002  14.260   5.556   2.125 -0.3974  0.0728 -0.2851
20469W        W40003  16.189  15.309  11.766  0.2814  0.0783  0.0471
20470W        W40004   0.820   3.411   4.468  0.0462 -0.0267 -0.2746
20471W        W40005   8.927   6.276  13.105 -0.2948 -0.0781 -0.1855
20472W        W40006   8.851   6.559   1.399 -0.1843  0.1981  0.1306
20473W        W40007  17.835   1.081  13.956  0.3045 -0.1220  0.0030
20474W        W40008   7.200   8.581   1.288 -0.3629  0.1365  0.2127
20475W        W40009  15.517  18.387  15.281  0.0894 -0.3383  0.1542
20476W        W40010   0.144  15.779   2.890  0.2501  0.1823  0.1000
20477W        W40011  14.571  17.893  12.690 -0.0328  0.1258  0.1145
20478W        W40012   9.281   9.124   2.572 -0.2257 -0.4054 -0.1190
20479W        W40013   4.787   8.684   2.763 -0.2117  0.0667 -0.2310
20480W        W40014   2.111  10.730   2.938 -0.1770 -0.0998  0.1047
20481W        W40015   6.551   1.323   5.537  0.0985  0.0988 -0.0451
20482W        W40016  16.177  13.370  14.870 -0.2345 -0.2978  0.2007
20483W        W40017   8.274   0.253  14.907 -0.0932 -0.0423  0.2536
20484W        W40018  12.682   3.249  15.702 -0.1874 -0.1378 -0.0464
20485W        W40019  12.895  15.009   0.337  0.4337  0.1459 -0.0420
20486W        W40020  12.586  15.798  10.682  0.3655  0.1428  0.0765
20487W        W40021   0.734   5.468   0.984 -0.0296  0.1327  0.0680
20488W        W40022  18.265  17.748   1.233  0.0737  0.0250  0.1835
20489W        W40023  18.041  10.272  14.956  0.2286 -0.0485 -0.2649
20490W        W40024  13.707  17.378   0.498 -0.0798  0.1927 -0.0675
20491W        W40025   4.523  10.097   3.560 -0.2694  0.1074 -0.0536
20492W        W40026   2.552  11.588  15.171  0.3542 -0.0719 -0.0554
20493W        W40027  12.551   7.913   0.738  0.0929  0.0280  0.1079
20494W        W40028   7.801  13.469   4.382  0.3121 -0.0678 -0.3479
20495W        W40029   4.020   4.550   4.363 -0.2934  0.0971 -0.2234
20496W        W40030   0.457   1.681   2.451 -0.2432  0.0941  0.0532
20497W        W40031  15.864   4.201   1.278  0.2191  0.1352  0.1765
20498W        W40032  12.952   4.962   3.595 -0.2089 -0.1663  0.2951
20499W        W40033   3.961  14.188  12.059  0.0124  0.0808 -0.2238
20500W        W40034  17.361   1.024  13.607 -0.1682  0.2162  0.1327
20501W        W40035  13.458  14.733   0.730  0.0076  0.0374 -0.1582
20502W        W40036  10.732  13.520   0.579  0.2613 -0.0336  0.4642
20503W        W40037  11.762  15.260  15.342  0.0685  0.3028 -0.0395
20504W        W40038   7.445  12.279  12.818  0.0163 -0.2679  0.0737
20505W        W40039   1.406  17.179   3.837 -0.2587  0.0353  0.1184
20506W        W40040   0.901   1.779   2.612  0.2000  0.1201  0.2055
20507W        W40041   8.838   7.953  13.976 -0.2110 -0.2674 -0.2421
20508W        W40042   2.754  12.337  12.236  0.0430 -0.0892 -0.0253
20509W        W40043  15.945  10.891  15.253  0.0314  0.1416  0.1003
20510W        W40044  11.541  11.453  14.837 -0.1967 -0.1942  0.2429
20511W        W40045  13.574   0.589   0.302  0.1685  0.0510 -0.1491
20512W        W40046  16.878   9.621  12.600 -0.1727  0.0159  0.0925
20513W        W40047   2.679  13.480   1.613 -0.0684  0.1795  0.0630
20514W        W40048  12.414   3.509   0.629 -0.2552  0.2066 -0.0478
20515W        W40049   0.013   9.256   4.251  0.0122  0.0585  0.0412
20516W        W40050   8.218   9.740   5.354  0.3198  0.1723 -0.3158
20517W        W40051   6.341  10.992  15.554 -0.0445 -0.1433  0.0482
20518W        W40052   2.015  12.014   1.273  0.0009 -0.4155  0.3726
20519W        W40053  12.670   6.276   1.422 -0.2689 -0.1045 -0.1716
20520W        W40054  12.257   8.054   0.248  0.0315  0.1898  0.2388
20521W        W40055   4.200   9.814  10.839  0.0879 -0.2497 -0.0803
20522W        W40056  14.744   8.126  15.731  0.1307  0.1140 -0.1185
20523W        W40057  13.156   9.231  14.815 -0.1251  0.0292  0.0471
20524W        W40058  11.173  12.341  11.168  0.4018 -0.0054 -0.4069
20525W        W40059  14.725   4.869  12.085 -0.0527 -0.1586 -0.2576
20526W        W40060   9.630  15.822   4.717  0.0302  0.2058 -0.1729
20527W        W40061   6.410   3.952  14.644  0.0471  0.0694 -0.1497
20528W        W40062  16.856   2.820  12.002 -0.2696 -0.0816 -0.3204
20529W        W40063   9.290   2.141  12.153 -0.1175 -0.1708 -0.2740
20530W        W40064   2.701   7.860  11.406 -0.1969 -0.2687 -0.3342
20531W        W40065  11.564  14.400   1.371 -0.0847 -0.0204 -0.2508
20532W        W40066   8.489   3.937  15.828 -0.3144  0.1418  0.0636
20533W        W40067  15.082  15.301   3.935  0.0125 -0.0486  0.4422
20534W        W40068   0.237  15.435  15.019 -0.0191 -0.3204  0.0138
20535W        W40069  11.672   8.315  15.354  0.0767 -0.0831 -0.2996
20536W        W40070  12.172   3.918  14.643 -0.1566  0.0331 -0.1414
20537W        W40071   6.573  15.523   4.997  0.2543 -0.3006 -0.1908
20538W        W40072   5.247   0.858  11.230  0.3201  0.0225  0.3113
20539W        W40073   3.493  10.232   0.272  0.1903  0.2386 -0.1309
20540W        W40074  18.181   7.494  12.306  0.1445 -0.0822 -0.4028
20541W        W40075  13.373  14.022   2.838  0.1871 -0.1895 -0.0422
20542W        W40076   4.940   9.106  10.772 -0.1198 -0.0684  0.1285
20543W        W40077   7.346  14.345  11.232  0.0504 -0.0694  0.2932
20544W        W40078   9.879   3.458  14.414 -0.1016 -0.3036  0.1327
20545W        W40079   4.318  17.649   3.324  0.1198 -0.0242 -0.3213
20546W        W40080  11.232  12.553  13.639  0.0238  0.2822 -0.2577
20547W        W40081  16.354   7.013  15.066 -0.2124  0.1797  0.2122
20548W        W40082   7.721   4.869   4.526  0.0619 -0.0875  0.2278
20549W        W40083  18.156   6.690   4.354  0.1944 -0.0808 -0.0510
20550W        W40084   6.964  11.553  12.526  0.0156 -0.1659  0.1210
20551W        W40085   3.207   9.968  15.804 -0.0551 -0.1348  0.0408
20552W        W40086  17.053  10.771   1.937  0.2124  0.0167 -0.1081
20553W        W40087  18.299   6.340   5.305 -0.0243  0.2944  0.0845
20554W        W40088   2.267   6.039  12.387  0.0025  0.0796 -0.1885
20555W        W40089  18.212   6.939   2.689  0.0127  0.1324 -0.0173
20556W        W40090   6.816  11.644   4.055  0.0319  0.0146  0.2104
20557W        W40091  13.574   9.397   4.154 -0.1729 -0.1081  0.3812
20558W        W40092   2.697   7.821   4.060 -0.1739  0.0327  0.1526
20559W        W40093  11.372  17.383   2.155  0.2038 -0.0924  0.1658
20560W        W40094  12.262  10.807  14.575 -0.0040  0.1197 -0.0730
20561W        W40095  10.964   9.551   0.885 -0.0689 -0.0755 -0.0519
20562W        W40096   8.120   1.231   1.869  0.1563 -0.6391 -0.0727
20563W        W40097   8.462   7.092  14.116  0.1184 -0.0810 -0.2071
20564W        W40098   2.986  11.284  15.274 -0.0164  0.0496 -0.2442
20565W        W40099   9.846   8.630  13.857 -0.0624 -0.1219  0.0358
20566W        W40100   7.964  10.782   2.508 -0.0837 -0.0938  0.0596
20567W        W40101  10.115  18.094  15.652  0.1747  0.1816 -0.1094
20568W        W40102   8.885  16.670  11.465 -0.3114  0.0250  0.2735
20569W        W40103  13.172  16.396   1.767 -0.0758 -0.2419  0.0108
20570W        W40104  11.570  11.599   2.999  0.1102 -0.0155 -0.0772
20571W        W40105   5.942   3.289  13.109 -0.1362 -0.0184 -0.1271
20572W        W40106  16.565   6.515   4.185  0.0532  0.0029 -0.3664
20573W        W40107  11.895   3.018  13.486  0.2267  0.0397 -0.0911
20574W        W40108   9.299  15.688  11.135  0.0292 -0.2806  0.0938
20575W        W40109   8.227  12.536   4.435 -0.0468 -0.1537  0.0274
20576W        W40110  16.942  12.245  13.137 -0.3198  0.4128  0.1523
20577W        W40111  15.222  12.598   1.024  0.3404  0.0549  0.0675
20578W        W40112   2.358   0.209   2.611 -0.1825  0.2825 -0.2986
20579W        W40113   3.719   9.789  13.281  0.0529 -0.2071  0.1184
20580W        W40114   2.360   9.115   2.620 -0.1137  0.0030 -0.0967
20581W        W40115   7.653  16.485   2.209  0.0880  0.1291  0.1637
20582W        W40116   9.017   4.936  14.663 -0.3474  0.1820 -0.0578
20583W        W40117   4.832   5.433   3.321  0.1471  0.2119  0.0332
20584W        W40118  12.550  11.018   2.116  0.0772  0.0298 -0.1049
20585W        W40119   6.547   2.205  15.242  0.1799 -0.0069 -0.1193
20586W        W40120   0.508   2.144   2.520 -0.0860 -0.0765 -0.1075
20587W        W40121   5.433  15.783  13.052  0.2349  0.0183 -0.3405
20588W        W40122   9.044   1.606  14.732  0.2564  0.0150  0.0948
20589W        W40123   1.856  16.658  14.162  0.0312  0.0762 -0.0215
20590W        W40124   2.658   8.728   0.412  0.0281  0.1417  0.0045
20591W        W40125  11.031   5.561   4.462  0.0055 -0.4873 -0.0383
20592W        W40126  14.375   7.062  12.960  0.0956  0.0493  0.1402
20593W        W40127  15.967   2.536   0.940 -0.1494 -0.0429  0.0173
20594W        W40128   5.633  16.385   5.433 -0.0339 -0.1950  0.2093
20595W        W40129   5.565  14.962  15.766 -0.1476 -0.2238  0.1999
20596W        W40130  15.473   8.506   0.977  0.0724 -0.1345  0.0661
20597W        W40131  18.301   7.708  13.732 -0.0638 -0.5594  0.0334
20598W        W40132   6.342   6.581  14.939 -0.2608  0.0126  0.0327
20599W        W40133   2.575  10.842  12.569  0.3804 -0.1219 -0.0643
20600W        W40134   9.704   2.367  13.124  0.2057  0.2515 -0.1205
20601W        W40135   2.041  14.381  14.589  0.0471 -0.0252 -0.2667
20602W        W40136   2.734  16.988   3.426  0.0205 -0.0850  0.0223
20603W        W40137  14.606   1.085   3.668 -0.0980 -0.0783 -0.0013
20604W        W40138  13.393   2.075  11.887 -0.0664  0.1913 -0.0314
20605W        W40139   9.771  11.588   4.973  0.0417 -0.0358 -0.3199
20606W        W40140   9.109   0.584  13.040  0.2072  0.1223 -0.3115
20607W        W40141  11.242   1.009  14.717 -0.0827 -0.0161 -0.3411
20608W        W40142  14.748   8.348   3.406  0.0214  0.0773  0.0124
20609W        W40143   5.031   8.652  12.864 -0.0566  0.0731 -0.0513
20610W        W40144  15.256  17.605  12.535  0.3303  0.0400 -0.0857
20611W        W40145  11.201  16.373  15.518 -0.1020 -0.2329 -0.1975
20612W        W40146   5.690  14.349   5.308 -0.1281 -0.2410 -0.3305
20613W        W40147  10.969   0.295   3.634  0.2073  0.0968  0.1493
20614W        W40148   9.591   4.794  11.916  0.1892  0.0840  0.0864
20615W        W40149  13.614   3.931   2.086 -0.1981 -0.1424  0.1991
20616W        W40150   0.546   3.478   5.012 -0.2876  0.0720 -0.1798
20617W        W40151   7.209   5.554  15.451 -0.0578 -0.1126  0.0947
20618W        W40152  10.878   8.506   2.198  0.1918  0.0154 -0.3382
20619W        W40153  11.356   3.312   0.996  0.1291  0.0516  0.1909
20620W        W40154  13.009   8.250  12.628  0.1580 -0.2584  0.2272
20621W        W40155  11.847   7.562   4.185 -0.2364  0.1201  0.0591
20622W        W40156   0.193   1.749  15.103  0.1363  0.0634  0.3811
20623W        W40157  15.661   2.396   2.807 -0.4156  0.0700 -0.3021
20624W        W40158   6.870   6.723   3.600  0.1602 -0.0141 -0.1868
20625W        W40159   8.279  11.234  10.262 -0.0753  0.3297 -0.0874
20626W        W40160   5.921   8.791  13.174 -0.2386 -0.0219  0.0878
20627W        W40161   6.625  11.377  15.368  0.1277  0.1454  0.0893
20628W        W40162   1.650  10.033  13.734 -0.3774  0.1401  0.1406
20629W        W40163   1.853   5.771  11.292 -0.0588  0.0780  0.0865
20630W        W40164   3.443   2.393   1.374 -0.1863  0.0077 -0.0872
20631W        W40165   1.964  11.291  13.603 -0.2706 -0.0366 -0.2171
20632W        W40166   0.141  11.281  15.453  0.0510  0.0679  0.0893
20633W        W40167  10.316   0.720  10.750  0.1056 -0.0604 -0.0254
20634W        W40168  16.554   5.874   3.227  0.1424  0.0129  0.0103
20635W        W40169  15.823  17.146   0.127 -0.1118 -0.1299 -0.0073
20636W        W40170  14.710   8.322  13.949 -0.2397 -0.0683 -0.0215
20637W        W40171  12.710   1.755  11.407 -0.1079  0.0602 -0.0311
20638W        W40172   7.793  11.427  14.683  0.0085 -0.3058 -0.0941
20639W        W40173   4.138  16.830  13.648  0.1968  0.0741 -0.1918
20640W        W40174  12.154   5.010  13.132  0.3697 -0.3550  0.0185
20641W        W40175   6.980   7.005   2.629  0.0439  0.1447  0.1339
20642W        W40176  14.705   1.848  12.079  0.1018  0.3288 -0.2229
20643W        W40177   6.218   7.687   1.093 -0.0396 -0.1395 -0.0339
20644W        W40178   4.700   1.487   1.550  0.1196 -0.0632  0.2942
20645W        W40179  12.467  11.029  15.672  0.1507  0.2279  0.0599
20646W        W40180   9.623  12.964   1.773 -0.0729  0.3170  0.0943
20647W        W40181  13.526  11.249  14.272  0.3046 -0.1900  0.0036
20648W        W40182   0.816  18.154   4.233  0.0143 -0.2363  0.0351
20649W        W40183   5.441   6.313  13.888 -0.1211  0.1636 -0.0510
20650W        W40184  12.715   8.658   1.409 -0.1154 -0.0536 -0.1789
20651W        W40185   3.057  10.438  13.737 -0.0208 -0.1368 -0.0148
20652W        W40186  15.831  14.835  12.418 -0.2195 -0.2312  0.1771
20653W        W40187   3.379  11.972  12.211 -0.1273 -0.2140  0.2872
20654W        W40188  16.171   3.847   1.453  0.0822  0.1382  0.1381
20655W        W40189   5.502   9.883  14.691  0.3873 -0.0976 -0.0191
20656W        W40190  16.480   6.293   0.686 -0.0502 -0.0137 -0.2178
20657W        W40191  17.382   7.383   2.276  0.0283 -0.0434 -0.4684
20658W        W40192   1.030  14.647   4.424 -0.2824  0.0134 -0.0183
20659W        W40193   8.877  15.651  15.809 -0.2695  0.0182 -0.0493
20660W        W40194   5.039  10.145   1.266  0.0073  0.2521 -0.1816
20661W        W40195   1.554   4.108   1.770 -0.1800  0.2618  0.3082
20662W        W40196   2.975   8.251  13.838 -0.0811 -0.0167  0.0457
20663W        W40197  13.012  17.093   1.313  0.3029  0.0851 -0.3057
20664W        W40198  13.856  16.293  13.901  0.0426  0.1582  0.0116
20665W        W40199  10.241   1.824   4.214  0.0651  0.0368 -0.0798
20666W        W40200   6.448   4.448   3.018  0.1524 -0.1711 -0.0015
20667W        W40201   3.827  11.456   0.091  0.1591 -0.0940  0.0254
20668W        W40202   0.650  15.063  12.394  0.1760  0.2849  0.1330
20669W        W40203   4.057   6.151   3.791 -0.0070 -0.0745  0.3559
20670W        W40204   6.597   7.950   0.121  0.3777  0.2043  0.1627
20671W        W40205  10.540   7.112   5.566 -0.0408  0.2061 -0.0385
20672W        W40206   0.719  17.973  14.377  0.2691  0.3315 -0.2904
20673W        W40207   8.080   0.275   1.241 -0.0192 -0.1146  0.0895
20674W        W40208   3.111  13.691   1.687  0.0359 -0.0430 -0.0748
20675W        W40209   4.727  11.320   2.777 -0.4357 -0.0036 -0.0421
20676W        W40210  11.724  11.438  13.026  0.3048  0.2610 -0.1187
20677W        W40211  10.053   1.277   2.704  0.1004 -0.0583  0.0720
20678W        W40212  11.467   5.101   0.888  0.0967 -0.1560 -0.1450
20679W        W40213  11.809   5.376   1.767  0.3508 -0.0322  0.0499
20680W        W40214   3.448  13.949   3.697 -0.0036  0.0286 -0.2494
20681W        W40215   9.895  12.198  12.748  0.0953 -0.1510 -0.4139
20682W        W40216   4.592  10.564  11.894 -0.0780 -0.0976 -0.2312
20683W        W40217  14.746  16.554  13.822 -0.3545  0.0712  0.2274
20684W        W40218   9.888  11.118  11.802 -0.0940 -0.2048  0.0972
20685W        W40219  17.373   3.487  12.553  0.1354  0.0635  0.2254
20686W        W40220   4.683   8.731  14.854 -0.1182  0.3728  0.2979
20687W        W40221   7.250  12.970  13.401  0.0625 -0.1232 -0.2704
20688W        W40222   5.095   8.918   1.092 -0.0054 -0.0809  0.0622
20689W        W40223  14.276   1.366  12.848  0.2603 -0.0153 -0.2714
20690W        W40224   7.702   0.222   4.028  0.0240  0.1928  0.1579
20691W        W40225  12.150  15.833  10.437  0.2510  0.1949  0.2144
20692W        W40226   8.954  17.253   3.528  0.0292  0.1069  0.2254
20693W        W40227  11.420  13.997  12.640  0.0802  0.2118 -0.1091
20694W        W40228   2.285  12.437  12.212 -0.0451 -0.0054  0.0840
20695W        W40229   2.298  16.713   3.454 -0.2129  0.0294 -0.1614
20696W        W40230   6.029   8.096  12.228  0.1109  0.1682 -0.0421
20697W        W40231  12.727   9.843  13.275 -0.0957  0.0665  0.2947
20698W        W40232   8.966   7.498  10.538 -0.1623  0.0348  0.1076
20699W        W40233  18.347  10.518  15.791 -0.0365 -0.1728 -0.1232
20700W        W40234   9.496  11.192  15.719  0.3657 -0.1474 -0.2278
20701W        W40235   4.676  15.364  13.945 -0.0386 -0.1101 -0.3221
20702W        W40236  10.791   4.751   3.348  0.1995 -0.3216 -0.2304
20703W        W40237   7.109  17.049  14.903  0.0458  0.2694  0.1617
20704W        W40238   5.452   8.294  10.559 -0.0056  0.2547  0.1826
20705W        W40239   2.722  17.699  14.232  0.4035 -0.2465 -0.1435
20706W        W40240   6.323   0.044  15.527  0.1713  0.1962 -0.0651
20707W        W40241  13.670  14.147  13.197 -0.1282  0.1218  0.0385
20708W        W40242   9.507   9.083   3.434  0.0542 -0.0854 -0.0365
20709W        W40243  14.341   1.594  14.719 -0.0591 -0.2035  0.1132
20710W        W40244   3.450  16.482   2.383  0.2328  0.0164  0.0220
20711W        W40245   8.971   9.085  15.320 -0.0901 -0.1270  0.1806
20712W        W40246  15.109  13.774   4.854 -0.0968 -0.2130 -0.4146
20713W        W40247  12.594   3.945  12.560  0.0673 -0.2488 -0.0186
20714W        W40248   7.005   6.779  15.565  0.0217 -0.1712  0.3984
20715W        W40249   2.528  18.220   1.933 -0.1929  0.0604 -0.0696
20716W        W40250   8.774  10.146  13.045  0.0308  0.0515  0.1676
20717W        W40251   9.168  18.076  10.550  0.1239 -0.1116  0.1329
20718W        W40252   6.125  16.282   2.802  0.0765 -0.2184  0.0506
20719W        W40253  17.759  16.509   4.336 -0.2369 -0.3245  0.2854
20720W        W40254  13.153  11.339   0.890 -0.3629  0.1697  0.2109
20721W        W40255  17.066   7.130   1.923 -0.0371 -0.2022 -0.0638
20722W        W40256  15.477  18.107   4.136 -0.2985 -0.4066  0.0023
20723W        W40257  15.714   1.887  11.739 -0.0011  0.1357  0.2205
20724W        W40258  13.607   2.550   3.157 -0.2643  0.0451 -0.2177
20725W        W40259  14.128  17.626  12.541  0.3729 -0.0516  0.0074
20726W        W40260   3.284  14.343  11.362  0.3484  0.5034  0.1688
20727W        W40261   1.558   3.978   3.059 -0.0443  0.1569 -0.1496
20728W        W40262   6.682   3.585  14.835  0.0333  0.2080 -0.2981
20729W        W40263   0.407   4.930  12.594  0.0201 -0.0411  0.0071
20730W        W40264  17.539   0.787  14.610 -0.2074 -0.0371  0.2168
20731W        W40265   0.682   3.436   3.787  0.1133 -0.0143  0.3383
20732W        W40266  12.422   6.405  11.458  0.0077 -0.0334  0.1490
20733W        W40267  11.058   7.208  11.784  0.2204 -0.0397  0.2765
20734W        W40268  12.225  15.398  15.140  0.1351 -0.0753  0.3843
20735W        W40269   7.096   5.945   4.927  0.0130 -0.0764 -0.2243
20736W        W40270  10.199  14.311   3.557  0.0542 -0.1197 -0.2359
20737W        W40271   7.847  17.994  13.930  0.0570 -0.0811  0.0456
20738W        W40272   0.233  10.471   1.686  0.0286  0.0678 -0.1740
20739W        W40273  15.156  10.173   0.281  0.0893  0.0508 -0.2882
20740W        W40274   9.496  10.487   2.279  0.0829 -0.2301 -0.4452
20741W        W40275   7.483  16.526   4.617  0.0559 -0.0592  0.0889
20742W        W40276   2.585  13.617   3.467  0.1993  0.4666  0.2090
20743W        W40277   8.913   6.602   4.769  0.1627 -0.4783  0.0375
20744W        W40278  11.670   9.858   4.585 -0.2163  0.1386  0.0077
20745W        W40279  12.480   6.517  10.473  0.0625  0.0281  0.2449
20746W        W40280  14.954  16.274   4.019  0.1635 -0.2691 -0.0995
20747W        W40281   6.296   4.688  13.963 -0.0372 -0.0184 -0.1082
20748W        W40282  10.340   8.788  13.039  0.0493  0.2050 -0.5668
20749W        W40283  11.057  16.000   0.008  0.2982  0.3291 -0.1782
20750W        W40284  12.003   0.685   4.786  0.3024 -0.1371 -0.2241
20751W        W40285  17.707  10.705   2.272  0.0698  0.1157  0.1277
20752W        W40286  12.359  17.561   4.558  0.1676 -0.0167 -0.0206
20753W        W40287  16.441   9.919   3.624 -0.1132  0.1305 -0.0790
20754W        W40288   1.726   7.666   2.095  0.0328  0.0815  0.0483
20755W        W40289  14.814   3.025  12.974  0.3080 -0.3191 -0.2639
20756W        W40290   1.128   9.131  12.224 -0.3026 -0.0420 -0.0955
20757W        W40291  12.643   7.778  13.281 -0.0163 -0.0796  0.0630
20758W        W40292   0.882  17.078   0.070  0.0268 -0.0559 -0.1661
20759W        W40293   1.499  10.976  14.776  0.0239 -0.2952 -0.2484
20760W        W40294  17.397   2.485   0.754  0.0373 -0.1725 -0.5201
20761W        W40295   7.083   5.921  14.438  0.1783  0.1992  0.1821
20762W        W40296  18.280   2.167  11.884  0.2478  0.2151  0.1549
20763W        W40297   9.724   0.045   2.183 -0.1350 -0.0978  0.0868
20764W        W40298  14.135  10.321  15.033 -0.2213  0.0569 -0.2408
20765W        W40299   2.999  10.628  12.489  0.2774 -0.1454  0.3278
20766W        W40300  11.063   6.104  11.475  0.0780  0.0778  0.1379
20767W        W40301   9.479   6.399  13.220 -0.1257  0.2608 -0.3967
20768W        W40302   4.151   1.708  15.253  0.6080 -0.0387  0.0842
20769W        W40303   8.446   0.639  13.841  0.1953  0.1716  0.2410
20770W        W40304   2.977  16.465   1.714 -0.0703  0.2083 -0.3086
20771W        W40305  15.808   4.290  12.314  0.0521  0.1904  0.0097
20772W        W40306   6.212  16.363  13.909 -0.1997  0.0581 -0.0182
20773W        W40307  17.946   4.831   2.129 -0.2803 -0.0420 -0.0807
20774W        W40308  16.818  10.328   1.060 -0.0520  0.0490  0.0758
20775W        W40309   8.007  11.486  10.994  0.1053  0.1198 -0.1019
20776W        W40310   3.280   8.037   3.291  0.1474  0.0492 -0.1622
20777W        W40311   0.658  17.436   2.354  0.2546 -0.2170  0.2116
20778W        W40312  12.837  15.726  12.531  0.2482 -0.1107 -0.0444
20779W        W40313  16.719   7.404   3.145 -0.0688 -0.0504  0.0967
20780W        W40314  13.227   7.436  11.532  0.0408 -0.2152  0.1339
20781W        W40315  11.508  14.370  11.530  0.0101  0.2326 -0.1341
20782W        W40316  11.949   9.567  14.362 -0.1450 -0.0456 -0.0892
20783W        W40317  16.167  11.623  12.841  0.0760  0.0976 -0.1885
20784W        W40318   1.246   9.559   2.106 -0.3215  0.1375  0.0603
20785W        W40319  15.425  14.498   1.318 -0.0980 -0.2308 -0.0743
20786W        W40320  10.576   1.103   2.796 -0.0961  0.4053 -0.1075
20787W        W40321   3.753  14.888  14.946 -0.1295 -0.1601  0.0552
20788W        W40322   3.665  16.158   2.041  0.0141  0.5365 -0.3901
20789W        W40323   5.234   4.592  12.621 -0.0580 -0.0605  0.3096
20790W        W40324  13.387  17.242  15.488  0.1141 -0.1511  0.3207
20791W        W40325   5.826  11.817   3.665  0.0467  0.0829  0.1631
20792W        W40326  14.005   2.282   0.208 -0.4105  0.0607  0.1501
20793W        W40327   9.508   4.283   1.547  0.0714 -0.1775 -0.0054
20794W        W40328  18.267  13.280  11.346  0.0804 -0.2284 -0.0659
20795W        W40329  10.499  14.626  15.376 -0.1102  0.0351 -0.0601
20796W        W40330  14.186   3.100  13.656 -0.1460 -0.1225  0.1816
20797W        W40331   2.439  12.254  11.771 -0.0706 -0.1661  0.0550
20798W        W40332   7.300  14.033   2.410  0.0686 -0.0912 -0.0218
20799W        W40333   1.167  10.265  12.805 -0.1083 -0.0553  0.2502
20800W        W40334  11.546   8.864  13.081  0.0912  0.0474  0.0851
20801W        W40335  12.294  16.437   0.062 -0.1112 -0.0920  0.1392
20802W        W40336   2.698   6.034   2.280 -0.2064 -0.3583  0.1886
20803W        W40337  17.399   2.490  13.548 -0.0348 -0.0635  0.0653
20804W        W40338   1.396   9.844   1.076  0.1191  0.1578  0.1034
20805W        W40339  10.520   0.149   2.324  0.4158 -0.3247  0.0164
20806W        W40340  13.588   4.746  14.085  0.2672 -0.0810  0.1660
20807W        W40341  10.057   1.662  14.753  0.0765 -0.0244 -0.1205
20808W        W40342  10.760  16.093   4.595  0.0886 -0.0249  0.0234
20809W        W40343   9.955   7.001   1.622 -0.1484  0.1544  0.1415
20810W        W40344  15.194   0.502   0.552  0.3015 -0.1051 -0.0205
20811W        W40345   0.546  17.641  11.310  0.3238 -0.1771 -0.2142
20812W        W40346  14.915   5.849  14.833 -0.0718 -0.1485  0.0497
20813W        W40347  11.612   9.971   2.964  0.1026  0.2117 -0.1034
20814W        W40348   8.686   4.891   3.582 -0.1571 -0.1224  0.1146
20815W        W40349   0.818   2.191  12.912 -0.3353 -0.3563 -0.1620
20816W        W40350   8.107   6.252  12.481 -0.0981  0.0081 -0.2218
20817W        W40351  17.563   1.069   3.033  0.2904 -0.2396  0.0483
20818W        W40352   5.250   3.184   3.978 -0.3343  0.1608 -0.0476
20819W        W40353   0.006  14.835  11.743 -0.2147  0.1093  0.0588
20820W        W40354   6.504  15.371   2.145 -0.2720 -0.0872  0.0069
20821W        W40355   9.637  15.999   0.759  0.3327  0.4573  0.0856
20822W        W40356   5.080   8.929  13.310 -0.0595  0.1326  0.1006
20823W        W40357   7.415   0.748  12.178 -0.0460 -0.1193 -0.1615
20824W        W40358  14.212  10.819  12.703  0.0344 -0.2869 -0.1384
20825W        W40359  15.343  15.502  13.357  0.0863  0.1509 -0.0789
20826W        W40360  16.461   8.244  15.598 -0.0959 -0.2556 -0.0487
20827W        W40361  12.300  16.467   3.730  0.0088  0.0342 -0.0301
20828W        W40362  16.070  11.847   2.085  0.2605  0.0287  0.0838
20829W        W40363  13.461  11.815   1.753  0.0104  0.1385 -0.0120
20830W        W40364   7.097   6.389  15.279  0.1942  0.2219  0.0980
20831W        W40365   0.765   6.434   3.383 -0.2777 -0.0002  0.0333
20832W        W40366  16.395  13.979  12.643 -0.3163  0.1054 -0.0288
20833W        W40367   9.086   0.780  14.562  0.2988 -0.0511 -0.3098
20834W        W40368   6.662   0.896   1.351 -0.1592  0.1267 -0.2543
20835W        W40369  11.845   7.457   3.652  0.3238  0.3120  0.1760
20836W        W40370  10.233   5.711   3.953  0.1113 -0.0950  0.0545
20837W        W40371   7.939   4.254   0.696 -0.0398  0.0412  0.0875
20838W        W40372  16.510  11.362   1.071  0.3508 -0.4000 -0.1261
20839W        W40373   1.591   9.590   0.144  0.3198 -0.0918 -0.0321
20840W        W40374   9.221   1.077   0.738 -0.0934  0.3189  0.3803
20841W        W40375   1.840   0.204   3.522  0.2579 -0.1956  0.0057
20842W        W40376   2.239  16.526  11.929  0.0648  0.1707 -0.1125
20843W        W40377   8.261  14.355  14.747 -0.1938  0.0121  0.3346
20844W        W40378   4.962   2.509  11.688 -0.3169  0.1289 -0.1821
20845W        W40379  15.953   4.462   0.091  0.1369  0.4840  0.2767
20846W        W40380   2.858  15.619   5.542  0.0648  0.0276  0.0204
20847W        W40381  15.778   2.727  15.821 -0.3590 -0.1708  0.0421
20848W        W40382  10.419  10.789  14.931  0.0530  0.0315 -0.0583
20849W        W40383  11.812  14.421  15.024  0.0524  0.2221  0.2237
20850W        W40384  14.421   1.364  15.236 -0.1258  0.1436 -0.2234
20851W        W40385  12.092  15.922  13.523  0.1982 -0.0181  0.4133
20852W        W40386   2.191   4.479   3.601  0.0495  0.3668  0.2594
20853W        W40387  11.355   5.294  11.109  0.3582  0.1937  0.1567
20854W        W40388   9.199   6.453   4.366  0.0548  0.2156  0.0075
20855W        W40389   8.095   1.157  12.888 -0.1152 -0.0651 -0.0064
20856W        W40390   0.425   2.241  13.763  0.2738  0.2009  0.1985
20857W        W40391  14.850   4.263   5.002  0.2457 -0.1931 -0.1131
20858W        W40392  10.625   6.490  10.520 -0.1587 -0.1133  0.0610
20859W        W40393   6.528   9.090   1.314  0.3699  0.2873 -0.0304
20860W        W40394   7.438   4.772   1.512  0.1590  0.0259 -0.1055
20861W        W40395   9.268   6.105   2.431 -0.2166 -0.0443 -0.0547
20862W        W40396  12.999   6.321   3.291  0.0799 -0.1275 -0.2228
20863W        W40397  13.883  17.398   0.031 -0.0672 -0.0086  0.2571
20864W        W40398   8.277  11.288   0.443 -0.4064 -0.2072 -0.1346
20865W        W40399  17.037  18.365  15.014  0.2053 -0.2715 -0.1307
20866W        W40400   6.260  12.185   0.445 -0.0480  0.2337 -0.0908
20867W        W40401  17.888  16.897  12.569  0.1657 -0.1047  0.2041
20868W        W40402   4.598  14.283  12.148 -0.0038 -0.1152  0.0789
20869W        W40403   4.223   2.913  15.022  0.0112 -0.2846 -0.0685
20870W        W40404  13.661  11.295   1.064 -0.3032 -0.1791  0.0931
20871W        W40405   9.073  16.486  14.108  0.2690 -0.0356  0.1568
20872W        W40406  10.134   2.698   0.835  0.1308  0.1535  0.1182
20873W        W40407  13.161   6.637   5.682  0.1926 -0.0465  0.3232
20874W        W40408   8.211  14.266   2.516 -0.0176 -0.1964 -0.1502
20875W        W40409   1.121   6.165  15.279  0.1054 -0.0411  0.1521
20876W        W40410   9.413   9.308  11.720 -0.0951 -0.1350 -0.0304
20877W        W40411   3.043  11.791  15.216 -0.0060  0.1606  0.0354
20878W        W40412   2.459  14.608   3.164  0.1931  0.0694  0.1255
20879W        W40413  18.247   2.313   4.274  0.2409  0.0088  0.0123
20880W        W40414  10.609  16.209  12.287  0.1893  0.1188 -0.0110
20881W        W40415  16.784   4.055  13.212  0.0639 -0.3311 -0.1561
20882W        W40416  13.064   0.839  12.526 -0.1181  0.3402 -0.3220
20883W        W40417   4.613  13.016   0.533 -0.0267  0.0531  0.1072
20884W        W40418  11.268   0.387  13.702  0.0962  0.2975 -0.1806
20885W        W40419  12.558   3.968   0.447  0.2112 -0.0330  0.2492
20886W        W40420   3.139   0.213  11.318 -0.0049  0.0049  0.0969
20887W        W40421  14.843  14.548  15.159 -0.0467 -0.1257  0.2130
20888W        W40422   9.776   9.349  12.816 -0.1057 -0.2923  0.1453
20889W        W40423  13.341   0.855   2.896 -0.3028  0.1961 -0.2912
20890W        W40424   6.916  16.075   3.288  0.0166 -0.0518 -0.1932
20891W        W40425  18.305  12.266  12.473 -0.0242 -0.0019  0.3468
20892W        W40426   0.782  12.103  12.201 -0.0418 -0.0623  0.1038
20893W        W40427   6.207  10.191  11.350  0.0391  0.1927 -0.1874
20894W        W40428   0.930   1.711   0.677  0.0456 -0.3018  0.3398
20895W        W40429   8.026  13.534   0.421  0.0131  0.2842 -0.2027
20896W        W40430   4.972  18.240   1.080 -0.0051 -0.1177 -0.0938
20897W        W40431   6.629   7.059   0.679 -0.1103 -0.0335 -0.2142
20898W        W40432   4.665   5.784   4.240 -0.0165  0.1612  0.3698
20899W        W40433  12.483  18.151   0.780 -0.2913  0.0954 -0.1354
20900W        W40434  10.368  15.060  11.593 -0.0249 -0.0041 -0.3028
20901W        W40435   9.218   5.720   4.454 -0.4298 -0.0217  0.2516
20902W        W40436  11.745   9.784  13.345  0.0843  0.2931  0.1254
20903W        W40437  14.192  17.733   0.519 -0.0502  0.2801 -0.0334
20904W        W40438   9.701   3.405   0.380 -0.2310  0.3879 -0.1750
20905W        W40439  11.957   2.577  14.964  0.0293 -0.0660  0.0206
20906W        W40440   8.606   5.261   3.987  0.1566  0.2024 -0.0905
20907W        W40441   4.425   2.011   3.619 -0.1708  0.0787  0.2044
20908W        W40442   6.363   0.775  13.866  0.1566 -0.1061  0.0084
20909W        W40443   5.278  16.467  12.014 -0.3975 -0.1543 -0.3706
20910W        W40444   6.454  15.108   4.754  0.0426 -0.2537  0.2036
20911W        W40445   0.701   4.248   1.778  0.1786 -0.0278  0.2913
20912W        W40446  11.884  12.116   2.496 -0.3674 -0.3137  0.1424
20913W        W40447   6.535  11.804  12.335  0.1987  0.0233  0.0722
20914W        W40448   0.027  11.086  12.576  0.0435 -0.0575 -0.0286
20915W        W40449   3.521  14.525   4.084 -0.1621 -0.1837  0.2662
20916W        W40450   3.048   1.980  15.450  0.1575  0.0013  0.1156
20917W        W40451  13.522  11.549  11.290 -0.0249  0.0751  0.0779
20918W        W40452  18.024  14.413   2.897 -0.0464 -0.2769 -0.1119
20919W        W40453   4.921   6.394  13.860  0.2984 -0.1740  0.2493
20920W        W40454  15.243  10.276   3.655  0.1043 -0.1095  0.3165
20921W        W40455  14.388   8.026  14.643  0.0643 -0.3008 -0.1035
20922W        W40456   1.458  11.044   0.934 -0.1305 -0.0211 -0.3207
20923W        W40457  14.269   3.866   1.175 -0.0990 -0.0255 -0.1406
20924W        W40458  13.108   0.788  11.489 -0.1404  0.0828 -0.1705
20925W        W40459   1.636  15.403   3.811 -0.0692 -0.1252  0.0635
20926W        W40460   8.912  15.395   4.905 -0.0215 -0.1773 -0.2622
20927W        W40461   0.863   1.708   5.762 -0.1689  0.2331  0.0683
20928W        W40462   6.893  10.539   3.196 -0.3158  0.0152 -0.1180
20929W        W40463   0.983  16.615  15.346  0.3066  0.1359 -0.0923
20930W        W40464   4.854  12.827  12.808 -0.2932  0.3101 -0.0415
20931W        W40465   0.424   4.930   0.164 -0.1028 -0.2763 -0.2597
20932W        W40466  10.585  13.794  11.967 -0.1433  0.2282  0.0080
20933W        W40467  12.358  18.053  13.395  0.0626  0.0738  0.0313
20934W        W40468   4.822   6.351  14.953 -0.1473  0.0791  0.0469
20935W        W40469   4.451   2.014  12.171  0.1632 -0.2240  0.0767
20936W        W40470   0.412  15.041   3.926  0.2903 -0.1025 -0.0229
20937W        W40471   2.294  13.356  14.367  0.1634  0.2837  0.1109
20938W        W40472  12.373   1.892  14.331  0.2006  0.0565  0.0628
20939W        W40473   9.507   9.500  14.571 -0.1686 -0.3563  0.0387
20940W        W40474   2.808   2.041  14.339  0.3531 -0.1971 -0.0050
20941W        W40475  13.824  15.924   1.076  0.1124 -0.0679 -0.0612
20942W        W40476   9.238   0.654   0.459 -0.2031 -0.2160  0.3259
20943W        W40477  14.090  10.287   0.060  0.1908  0.0254 -0.2955
20944W        W40478   5.738   8.722   4.672 -0.0806  0.2278 -0.1653
20945W        W40479   0.571   6.805  15.577 -0.0629 -0.1924  0.0527
20946W        W40480   1.623  10.812   2.927  0.0560 -0.3120 -0.1570
20947W        W40481  10.521  11.912   2.080  0.4440 -0.2611  0.0962
20948W        W40482   3.857  14.332  13.297 -0.0245 -0.1804  0.1526
20949W        W40483  13.207  12.650  12.946 -0.0830 -0.2165  0.1671
20950W        W40484   4.543   6.101  15.733  0.1304 -0.1321 -0.0146
20951W        W40485  13.803   8.400   4.296 -0.1142  0.1603 -0.2144
20952W        W40486  10.982   2.984   2.920 -0.3364 -0.0378  0.3267
20953W        W40487   7.559  17.109  11.307  0.1852 -0.0686 -0.0877
20954W        W40488  15.300   6.451  15.704  0.1629 -0.0038 -0.2406
20955W        W40489   9.198   0.566   5.649 -0.1492  0.1967 -0.0920
20956W        W40490  10.595   4.757  14.102 -0.0536 -0.0987  0.1734
20957W        W40491  14.883  17.326  13.961 -0.0458  0.0988 -0.2059
20958W        W40492   4.800   3.929  11.716 -0.0036  0.0174  0.1231
20959W        W40493   6.502   4.684  11.316  0.0725 -0.0983  0.3023
20960W        W40494   1.433   2.014   5.628 -0.0552  0.3224  0.1079
20961W        W40495   0.299  17.970   4.080  0.1092  0.2575  0.0254
20962W        W40496   1.780   5.415  11.703  0.1767  0.0016 -0.0842
20963W        W40497   2.763   3.560   5.108  0.1653  0.0922  0.0948
20964W        W40498  14.725   5.668  15.667 -0.1658 -0.0116  0.0260
20965W        W40499  18.099  11.411  12.225  0.2019  0.1182 -0.0873
20966W        W40500  15.522   5.036  13.163  0.0848 -0.1228  0.4129
20967W        W40501  13.008  15.057  11.626 -0.0678 -0.1392 -0.1781
20968W        W40502   1.682   5.391  15.381 -0.0660  0.1870 -0.0246
20969W        W40503   7.769   1.600   2.573  0.2493  0.2228  0.1918
20970W        W40504  14.510   4.177   3.164 -0.2456  0.0174  0.1000
20971W        W40505  17.598  15.142  12.679 -0.1741 -0.0254 -0.3021
20972W        W40506   9.915   1.645   3.671  0.1589  0.1803 -0.0669
20973W        W40507  13.130  16.035   2.756 -0.2719  0.0225 -0.2779
20974W        W40508  17.091   1.708  12.917  0.3734 -0.1945 -0.3646
20975W        W40509   7.490   2.009   0.782  0.1108 -0.1394  0.2302
20976W        W40510   9.507  11.407  13.361 -0.1465 -0.0570 -0.1666
20977W        W40511   0.068   0.029  12.739  0.0820 -0.1438 -0.0503
20978W        W40512   8.934  11.272   3.791  0.1633 -0.1996 -0.0731
20979W        W40513   4.024  17.881   0.305  0.1385  0.0369 -0.1493
20980W        W40514  14.223  13.819   3.146  0.3051  0.1039  0.0900
20981W        W40515   0.980   0.067  11.343 -0.0921 -0.2381 -0.0841
20982W        W40516   5.705   1.902  14.624  0.2264  0.1051 -0.1228
20983W        W40517  16.929  16.004  13.275 -0.2258  0.0132 -0.1110
20984W        W40518   0.927  16.423   1.271 -0.0108 -0.0221  0.2287
20985W        W40519   9.869  18.141  12.115  0.2249 -0.2152  0.1132
20986W        W40520   7.714  16.864  13.698  0.1236  0.0080 -0.2493
20987W        W40521   2.985   5.450  10.540  0.0535  0.1951 -0.1680
20988W        W40522  15.614  14.901   1.159 -0.0866 -0.1711 -0.0984
20989W        W40523   8.209  15.788   4.726 -0.1278 -0.0661 -0.6065
20990W        W40524   5.039  10.123   4.547 -0.1639  0.0698  0.1857
20991W        W40525  14.852   5.747  12.678 -0.0350  0.0954 -0.1330
20992W        W40526   4.738   0.552   1.416 -0.0510  0.0797  0.0135
20993W        W40527   2.403  14.668  13.275 -0.0649  0.1875  0.2627
20994W        W40528  12.380  11.310  13.759 -0.0207  0.2611 -0.0385
20995W        W40529   3.523   7.812  15.163  0.0155 -0.2441 -0.2404
20996W        W40530  13.197  17.821   1.890  0.1218 -0.0197 -0.2632
20997W        W40531   4.235  18.124  14.494 -0.1857  0.3963  0.1381
20998W        W40532  11.923   3.365   3.218  0.1193  0.1981 -0.2751
20999W        W40533  16.754  16.865   2.767  0.1369 -0.2978  0.3776
21000W        W40534  10.328   7.815  14.611  0.2785 -0.0279 -0.0642
21001W        W40535  12.276   4.376  14.977  0.0335  0.1199  0.0140
21002W        W40536   9.689  17.057   2.066  0.0292  0.1431  0.0145
21003W        W40537   4.615   7.429  13.499  0.2000 -0.2422 -0.0392
21004W        W40538  14.047  16.881  11.336 -0.0188 -0.1440  0.0448
21005W        W40539  15.429   5.715   3.310  0.0383 -0.4757 -0.0209
21006W        W40540   8.780  14.331  13.455  0.3342  0.0173 -0.0092
21007W        W40541  11.567  15.078   1.678 -0.0415  0.0470  0.0778
21008W        W40542  14.843   8.810  15.130  0.0193  0.0321  0.3010
21009W        W40543   2.405  16.032  15.475  0.0355  0.0448 -0.1216
21010W        W40544   1.602  11.868   3.466  0.2829  0.1426 -0.0608
21011W        W40545  11.870  11.679   1.252  0.1388 -0.0625  0.0376
21012W        W40546  17.676  15.827   2.241 -0.0240 -0.0550 -0.0715
21013W        W40547   7.501   7.653  14.099  0.1688 -0.2879 -0.1134
21014W        W40548  14.494  15.950  14.216  0.0222 -0.1244  0.0561
21015W        W40549   6.614   1.346   3.596  0.3143 -0.0639  0.0019
21016W        W40550   5.012  15.655   0.161 -0.1717 -0.0352  0.2084
21017W        W40551   2.455  18.060   1.129 -0.0174 -0.1535 -0.0486
21018W        W40552  18.284  10.088  14.605  0.2645  0.1369  0.1670
21019W        W40553  16.944   7.604  13.923 -0.1532 -0.2009 -0.2157
21020W        W40554  14.204  10.487   0.513 -0.2427  0.1220  0.0954
21021W        W40555  10.113   9.949  10.968  0.2344 -0.1755  0.1035
21022W        W40556   0.998   8.191   3.188 -0.0967  0.2296 -0.0043
21023W        W40557  11.890   8.315   1.554 -0.0236 -0.2209 -0.0253
21024W        W40558   9.085   1.547  15.257 -0.1643 -0.0363  0.0778
21025W        W40559  17.409  16.979  15.776  0.0052  0.4513 -0.1433
21026W        W40560  10.947   0.382  13.308  0.1315 -0.2981 -0.2522
21027W        W40561  15.206  15.906   1.039 -0.1057 -0.1101  0.0328
21028W        W40562   8.018   0.970  15.410  0.1782  0.0792  0.0729
21029W        W40563  13.641  11.689   4.501 -0.1266  0.2541  0.0996
21030W        W40564   1.918   3.729  13.487  0.3636  0.3791  0.0437
21031W        W40565   7.829   4.589   1.060 -0.0055  0.1678  0.2681
21032W        W40566  16.457  10.570  12.553  0.2278 -0.2469  0.1475
21033W        W40567   6.251   0.657  11.340  0.0851 -0.1090 -0.0728
21034W        W40568  15.623  10.846  15.777  0.1151  0.0628 -0.1202
21035W        W40569   1.806  11.501   3.727 -0.0743 -0.0957 -0.3219
21036W        W40570   7.693   1.398  13.886 -0.0988 -0.1977  0.1352
21037W        W40571  10.830  10.194  12.226  0.1176  0.0601 -0.0662
21038W        W40572  11.296  18.291   0.888 -0.2307 -0.1988 -0.1111
21039W        W40573  14.673   5.921   2.673  0.0514  0.1313  0.0457
21040W        W40574  17.084  18.329  10.598  0.0282 -0.0047  0.1223
21041W        W40575   9.300   9.609  13.766  0.0345  0.3352 -0.0640
21042W        W40576  12.379   2.237  14.807 -0.0219 -0.1580 -0.0827
21043W        W40577   2.137   6.115  11.612 -0.0621 -0.0846 -0.1624
21044W        W40578  10.176   2.571  14.879 -0.0526  0.0206  0.0169
21045W        W40579   2.192   2.141  15.329  0.4150  0.1096  0.1421
21046W        W40580   7.130  15.561  15.377 -0.3682  0.0966  0.2867
21047W        W40581  11.231   1.872  12.468  0.1460 -0.2424  0.3487
21048W        W40582   6.788  13.105  14.872  0.0839  0.1562  0.1060
21049W        W40583   3.567   2.870   3.051 -0.4724  0.0484 -0.1307
21050W        W40584   4.374   3.779  14.729 -0.1433  0.1721  0.2124
21051W        W40585  14.514   8.046  12.156  0.0958  0.1898 -0.3089
21052W        W40586   6.636   9.275  14.987 -0.1395 -0.1597  0.2635
21053W        W40587   5.464   1.519  14.392 -0.1108 -0.2254  0.0623
21054W        W40588  15.908  18.129  12.802 -0.0240  0.2820  0.0206
21055W        W40589  17.840   0.009  13.939 -0.0182  0.0094  0.1054
21056W        W40590  14.666   2.300  15.448  0.0064 -0.0400  0.1593
21057W        W40591  12.480  17.485   1.289  0.1379 -0.6272  0.1260
21058W        W40592  12.411   1.396   2.803  0.0649  0.1461 -0.2600
21059W        W40593   2.406   6.910  14.689  0.2634  0.1138  0.1199
21060W        W40594   7.761  11.333   2.282  0.2751  0.0595 -0.1363
21061W        W40595  12.682  10.999  10.398 -0.2033  0.0764  0.1079
21062W        W40596   2.604  16.465  12.669 -0.2081  0.2836  0.0605
21063W        W40597   0.772  16.836   0.923  0.0695 -0.3670 -0.1503
21064W        W40598  11.511   9.816   3.438  0.2820  0.1001 -0.0248
21065W        W40599  15.527  15.996  12.152  0.3870 -0.0421 -0.1948
21066W        W40600  15.044  16.725  11.544  0.1536  0.0647 -0.2678
21067W        W40601  14.189   8.812   0.457  0.0835 -0.0462 -0.4170
21068W        W40602   3.867  17.768  14.313 -0.0746 -0.0899 -0.0170
21069W        W40603  15.923   4.613   2.063 -0.0673 -0.1771 -0.1460
21070W        W40604   1.206   9.052   2.220 -0.1439 -0.0112  0.2420
21071W        W40605   3.042   1.088   1.258 -0.1282 -0.3071  0.1965
21072W        W40606  14.486   9.138   1.103  0.1593 -0.2796  0.0273
21073W        W40607  13.578  16.972  12.880 -0.1258  0.0643 -0.1727
21074W        W40608   9.778  16.316   4.702 -0.1640  0.2994  0.0703
21075W        W40609   7.354   4.057  13.481  0.1016  0.2557 -0.0580
21076W        W40610   4.706   2.920  15.104  0.1889  0.2315 -0.2811
21077W        W40611  11.089  12.908  11.777  0.2002 -0.1442 -0.1439
21078W        W40612   5.955   2.700   0.664 -0.2182  0.1357  0.1728
21079W        W40613   0.901  17.892  12.569  0.1729 -0.1883  0.1889
21080W        W40614  12.971  13.159   2.167 -0.0408 -0.1219  0.0438
21081W        W40615  15.279   9.524  13.600 -0.1674  0.0807 -0.0002
21082W        W40616  10.199   3.486   3.879 -0.0596 -0.1073  0.0543
21083W        W40617  11.502  13.788   0.494 -0.1055  0.0894  0.0992
21084W        W40618  14.308   4.995   3.459  0.0874 -0.0834  0.2266
21085W        W40619  16.127  17.499   3.211 -0.0904 -0.0146  0.0837
21086W        W40620   1.506  15.937  13.455 -0.1135 -0.0510  0.0161
21087W        W40621  10.115   0.944   5.679  0.3531  0.1348  0.0744
21088W        W40622   3.879   5.839   1.269 -0.0649 -0.0676  0.1093
21089W        W40623   3.907   6.810   1.660 -0.1477 -0.3432 -0.1007
21090W        W40624   3.983  12.441   1.247 -0.2591 -0.0912 -0.0487
21091W        W40625   3.867   4.470   3.271  0.1902  0.1981  0.0809
21092W        W40626  17.744   5.096   3.497 -0.2844 -0.3092  0.1044
21093W        W40627  15.022   1.284   2.182 -0.3807  0.0195  0.3692
21094W        W40628  14.413   3.864  14.532 -0.1543  0.2951 -0.1801
21095W        W40629  17.102  13.842  10.571  0.1514  0.0783 -0.0249
21096W        W40630  12.415  15.487  14.304 -0.0045  0.0748 -0.3502
21097W        W40631  16.026   4.260  15.084  0.1012 -0.1511  0.0812
21098W        W40632  17.758   9.980  11.535  0.0391  0.1041  0.0808
21099W        W40633  13.911   9.295   1.381  0.0630 -0.4475 -0.1291
21100W        W40634   4.399   8.833  13.897  0.1545  0.3372 -0.1005
21101W        W40635   3.425  16.188   1.612  0.0756  0.1264 -0.0825
21102W        W40636  18.331   6.283   4.833 -0.0062  0.0663 -0.0089
21103W        W40637   8.378  11.129   1.958  0.3630  0.3178 -0.0867
21104W        W40638   8.137  16.953  14.031  0.0046 -0.2510  0.1972
21105W        W40639  16.545  10.521  14.060 -0.1607 -0.0097  0.0299
21106W        W40640  10.742   3.147   2.511 -0.5371  0.2283 -0.2020
21107W        W40641   3.716  14.558  14.151  0.0734 -0.0258  0.1197
21108W        W40642  13.931   8.325   0.350  0.2558 -0.1731  0.1997
21109W        W40643   3.153   7.202   2.538  0.0474  0.0067  0.1647
21110W        W40644  17.792  13.045   1.395  0.1668 -0.0331 -0.2590
21111W        W40645   7.997   1.068  11.748  0.1596  0.1510  0.2163
21112W        W40646   1.737  16.652  11.882 -0.1222  0.1167 -0.1761
21113W        W40647  10.347   2.309   4.252  0.4392 -0.2033 -0.1094
21114W        W40648   8.795   1.685  11.604 -0.1109 -0.2424  0.1957
21115W        W40649  15.034   4.249   4.026  0.1619  0.1338  0.2100
21116W        W40650   6.552   4.375   2.522  0.0479  0.0020 -0.1088
21117W        W40651   4.077  17.250   0.653 -0.0955  0.2174  0.1190
21118W        W40652   0.546   6.536  12.357 -0.1712 -0.0152 -0.1664
21119W        W40653  17.706  16.340   3.498  0.5035  0.4697  0.0428
21120W        W40654  11.179   9.998   2.130  0.0936 -0.1880  0.0860
21121W        W40655  11.368   1.913  14.189  0.0784  0.0024  0.0868
21122W        W40656  18.287  17.264  13.453 -0.1195  0.0105 -0.2336
21123W        W40657   5.259   0.047   2.541  0.0476  0.3056 -0.2356
21124W        W40658   0.769  15.776  11.820  0.2711 -0.4306 -0.0302
21125W        W40659  17.281   1.556   0.258  0.4322 -0.0417 -0.0353
21126W        W40660  15.330   2.198   3.810  0.1921  0.0903 -0.2496
21127W        W40661   6.301  15.488  11.878  0.0182 -0.0573  0.0518
21128W        W40662  10.403   3.942  12.139  0.3290 -0.2025 -0.2531
21129W        W40663  17.317   6.367  14.410  0.0735  0.0649 -0.0320
21130W        W40664  16.768  13.269  12.007  0.0511 -0.0045 -0.0813
21131W        W40665   8.089   1.809   4.774  0.0294  0.1704  0.0159
21132W        W40666  16.141   5.411  15.546 -0.0154  0.3950 -0.3529
21133W        W40667  12.741  13.324   1.166 -0.1285 -0.2594 -0.2268
21134W        W40668   0.359   1.308   1.513 -0.3627 -0.5497  0.2154
21135W        W40669   9.605  15.456  11.552  0.1026 -0.2034 -0.0989
21136W        W40670   1.068   0.898   4.419  0.1105 -0.0997  0.1690
21137W        W40671  17.058  11.854  10.477 -0.0321  0.0725 -0.0815
21138W        W40672   3.561   2.167   0.407  0.0154  0.1984 -0.0421
21139W        W40673   0.708   2.368  14.393  0.0430  0.0598  0.2547
21140W        W40674  16.579  10.657   1.720  0.1368 -0.0615  0.0497
21141W        W40675   4.791  14.391   0.580  0.1273 -0.0191  0.0769
21142W        W40676   2.378   6.895  15.190 -0.2350 -0.0096 -0.1375
21143W        W40677   5.531  15.077   0.433  0.0105  0.0788  0.3615
21144W        W40678  17.360  13.116   2.729  0.0429  0.1783  0.0972
21145W        W40679  17.802   6.440   3.516  0.2637  0.0190  0.3774
21146W        W40680  11.442   3.071   3.567  0.3198 -0.0655  0.2591
21147W        W40681   8.269  15.859  11.867  0.1785 -0.2426 -0.0170
21148W        W40682   2.843   4.090  12.706 -0.1897  0.1573  0.0641
21149W        W40683  11.889   4.187  12.460 -0.0108  0.1098  0.0543
21150W        W40684  12.882  11.245   2.718 -0.0646  0.0143 -0.0379
21151W        W40685   6.604  15.058   4.298 -0.0649 -0.0849 -0.0163
21152W        W40686   7.141   5.793   0.670  0.0993 -0.1904 -0.0512
21153W        W40687  18.128  13.332   4.777 -0.1127 -0.1637 -0.0792
21154W        W40688   3.812   3.384   2.978 -0.2271  0.1851  0.0600
21155W        W40689   0.144  10.342  14.292 -0.1027  0.1028 -0.1193
21156W        W40690  18.059   8.128  11.848  0.3393  0.1036  0.3790
21157W        W40691   4.823   7.906  12.148  0.0554 -0.4759 -0.3308
21158W        W40692  16.270   1.939   3.288 -0.0137 -0.1287  0.3665
21159W        W40693   2.875   8.276  11.190  0.0494 -0.1877  0.1670
21160W        W40694   8.108   2.881   2.422 -0.1379 -0.0398  0.0463
21161W        W40695   2.814  16.492   0.856 -0.0483 -0.0698 -0.4497
21162W        W40696   7.323  17.319  12.396  0.1230  0.0014  0.1254
21163W        W40697   3.295   7.721   3.739  0.1855  0.1906 -0.0406
21164W        W40698  16.474   3.118   1.365  0.1826 -0.0054  0.0537
21165W        W40699  12.163  12.958  12.641 -0.0609  0.0205  0.0720
21166W        W40700   4.202  16.247   3.340  0.0537  0.2083 -0.1203
21167W        W40701  18.077   8.240   0.305  0.0780  0.0732  0.0809
21168W        W40702   0.992   0.687  13.756 -0.0799  0.0409 -0.0710
21169W        W40703  13.736   4.904  15.058 -0.1373 -0.1251  0.0383
21170W        W40704   3.535   7.401   4.295 -0.0573  0.2650 -0.1555
21171W        W40705   4.066   6.565  13.967 -0.0309  0.0952  0.0325
21172W        W40706   5.017  10.033  12.989 -0.0005 -0.1164 -0.0854
21173W        W40707  10.994   0.022   1.339 -0.1917 -0.0248  0.1116
21174W        W40708  13.515   1.631   4.639  0.0405 -0.2925 -0.0347
21175W        W40709   2.112   6.524  12.595  0.1272 -0.1027  0.2467
21176W        W40710  13.011   9.281  13.959 -0.0862 -0.0918 -0.1301
21177W        W40711  13.479   7.967  14.252  0.0783 -0.0670 -0.2898
21178W        W40712  18.250  10.564  12.983  0.1987  0.2124  0.0246
21179W        W40713  16.875   4.084  14.459  0.0626  0.2104 -0.2833
21180W        W40714  13.307   1.338   3.263  0.1006  0.1517  0.2890
21181W        W40715  12.945   1.232  13.882 -0.1759 -0.0870 -0.3001
21182W        W40716  12.391  12.276  14.895  0.0090 -0.0930  0.0527
21183W        W40717  14.646  10.288   0.098  0.1813 -0.0084 -0.1444
21184W        W40718   0.688  10.092  11.485 -0.2134  0.0607 -0.1782
21185W        W40719  18.147  16.099  15.638 -0.0537 -0.1421  0.1314
21186W        W40720  14.057   0.060   3.803  0.0883 -0.0990  0.1340
21187W        W40721  15.720   0.339  14.946 -0.2933  0.0911 -0.0861
21188W        W40722   2.961   7.862  10.963 -0.2629  0.2230  0.1050
21189W        W40723   9.849   0.211   4.925  0.3745  0.0953 -0.3679
21190W        W40724   8.113  14.753  11.621  0.3992 -0.0867 -0.0631
21191W        W40725  10.394   0.406  13.537  0.0659  0.1305 -0.1128
21192W        W40726  15.155   1.730  15.193 -0.2983  0.0856 -0.1429
21193W        W40727   5.204  17.201  14.599  0.2898 -0.1314 -0.1003
21194W        W40728  12.946  14.899   3.695  0.2404  0.1817  0.1146
21195W        W40729  11.600  18.079   0.449 -0.2348  0.1161  0.0850
21196W        W40730  16.512  11.311  11.383 -0.0273 -0.1132 -0.0876
21197W        W40731   0.034   0.034  14.701  0.1806 -0.0203  0.7279
21198W        W40732  11.130  13.059  12.871  0.1002  0.3200 -0.1584
21199W        W40733  13.053  17.603   5.885  0.2990 -0.0799  0.4946
21200W        W40734   6.384   4.830  11.819 -0.1368 -0.2913 -0.0263
21201W        W40735   3.290  15.745   1.862 -0.3497 -0.0161  0.0183
21202W        W40736   3.917   1.955  14.854  0.3609  0.0335  0.0163
21203W        W40737  12.404   3.333  14.182 -0.1494 -0.0173  0.1318
21204W        W40738  13.037   5.044   2.692 -0.1329  0.0149 -0.1585
21205W        W40739  16.061  11.653  14.129 -0.1070  0.0318 -0.2186
21206W        W40740   6.378   3.189  13.476  0.1275  0.2161  0.3163
21207W        W40741   1.589  14.410   2.850  0.1954 -0.0891 -0.0177
21208W        W40742   0.921  14.186   4.173  0.2329  0.1309  0.1768
21209W        W40743   4.109   1.524  13.981 -0.2177  0.3743 -0.1128
21210W        W40744  12.841  15.839   3.589 -0.0646  0.1309  0.1166
21211W        W40745   3.491   0.995   1.457  0.2415 -0.2734  0.3068
21212W        W40746   8.231   1.460   2.366  0.2165 -0.2050  0.0765
21213W        W40747  10.236  10.929   4.430  0.0519  0.2892  0.0769
21214W        W40748  17.254   1.180  11.303  0.0832  0.2307 -0.0169
21215W        W40749   6.469  15.353   0.885  0.2553  0.0216  0.1728
21216W        W40750  15.944   9.786   0.949  0.1094  0.1329 -0.0022
21217W        W40751  11.021  13.307   1.031  0.0037  0.1150  0.2579
21218W        W40752  17.866   3.955   1.384 -0.2565  0.0436 -0.0157
21219W        W40753   3.429  12.726   1.965 -0.0797  0.1718  0.0154
21220W        W40754   2.718   9.181   0.124 -0.0580 -0.1603  0.0351
21221W        W40755  14.235   7.030  11.787  0.3201  0.0796 -0.1408
21222W        W40756  12.300  14.666  11.666  0.0522 -0.0272  0.1173
21223W        W40757  13.360   9.726   2.239 -0.2302  0.1193  0.2194
21224W        W40758  11.120  14.980  12.408  0.3990  0.2910  0.2605
21225W        W40759  15.803   0.278   4.405  0.3807 -0.0862 -0.0621
21226W        W40760  14.665  13.345  13.881  0.0684  0.0384  0.0993
21227W        W40761  14.653  15.331  14.147  0.0557  0.0834  0.0156
21228W        W40762   4.550   9.119  13.394  0.0129  0.3054 -0.2292
21229W        W40763  12.244   4.631  13.937  0.0255  0.1828  0.0816
21230W        W40764  14.675   2.365   1.242 -0.0155 -0.0301  0.0554
21231W        W40765   2.506   7.138  12.541 -0.0053 -0.0604  0.0503
21232W        W40766   3.990   5.418   0.936 -0.1255 -0.3489 -0.0303
21233W        W40767   3.415  12.673  12.863 -0.1010  0.0367 -0.0752
21234W        W40768  13.179   4.894   4.396 -0.2418 -0.2059  0.0502
21235W        W40769   5.262   2.829  12.083  0.5779  0.1022 -0.0056
21236W        W40770   2.464   2.240   1.499 -0.0515  0.0649  0.0062
21237W        W40771  16.712  15.130  11.435 -0.1015  0.0200  0.0706
21238W        W40772   5.535  17.049  13.478  0.0277 -0.0408  0.1049
21239W        W40773   5.653  17.972  13.450 -0.1679 -0.1577  0.0598
21240W        W40774   7.443   6.778   0.329 -0.1582 -0.1241 -0.0241
21241W        W40775  16.860   1.816  14.532  0.1986  0.0943  0.0098
21242W        W40776   5.171  11.671  11.299 -0.0775  0.0813  0.1126
21243W        W40777  18.230  13.574  14.004 -0.4227  0.1309  0.1358
21244W        W40778   3.134   6.183  11.854 -0.1716 -0.1725 -0.1072
21245W        W40779   4.618  15.540  13.110  0.3299 -0.0081 -0.1360
21246W        W40780   7.603  17.173   2.849 -0.0697 -0.1364 -0.1739
21247W        W40781   6.506   5.050   4.101 -0.3177  0.2445 -0.0985
21248W        W40782   8.781  15.496   1.470 -0.1053 -0.1056 -0.1960
21249W        W40783  14.822  13.827  14.020  0.0703 -0.0900 -0.1525
21250W        W40784   0.029   9.222   5.280 -0.1337 -0.2062  0.0576
21251W        W40785   2.020  17.313   2.161  0.2158  0.1854  0.3812
21252W        W40786   1.626  10.365   0.317 -0.3300 -0.1456  0.1250
21253W        W40787   8.869   1.606   0.095 -0.3081 -0.1451  0.2440
21254W        W40788  12.248  12.571  14.422  0.0517  0.3032 -0.2405
21255W        W40789  18.130  12.601  14.202  0.0242 -0.1690  0.1280
21256W        W40790  12.100   3.659   3.590  0.2393 -0.1200  0.1600
21257W        W40791  10.662   6.124  13.618  0.2325 -0.0017 -0.0701
21258W        W40792   8.573  10.011  12.529 -0.0570 -0.0085  0.2405
21259W        W40793  15.215   5.837   0.812  0.3544 -0.1702  0.3840
21260W        W40794   6.227   4.912  12.490 -0.3444  0.0531  0.2639
21261W        W40795   4.201   9.785  12.429 -0.1143  0.1807 -0.0986
21262W        W40796  10.043   0.348   2.453  0.1155  0.2061 -0.1816
21263W        W40797  15.622  14.191   2.332 -0.1140 -0.1204 -0.0797
21264W        W40798   8.376  17.360  12.688  0.0393 -0.0354  0.1457
21265W        W40799  16.946  17.056   5.443  0.3709  0.1097 -0.2642
21266W        W40800  14.510  10.919  13.599 -0.0909  0.0211 -0.2350
21267W        W40801  16.063  17.232   2.580  0.0004 -0.4642  0.1575
21268W        W40802   0.031  14.584  15.213 -0.1877  0.0101  0.1608
21269W        W40803  16.549   9.884  15.559  0.0126 -0.2053  0.2822
21270W        W40804  10.285   9.107  15.130  0.0772  0.0652  0.0067
21271W        W40805  13.996  15.943  15.112  0.2960 -0.2301  0.1328
21272W        W40806   6.525  15.251   3.752  0.1393  0.3157 -0.3199
21273W        W40807  17.640   7.362  13.203 -0.1677  0.2346 -0.0526
21274W        W40808  17.664   7.077   0.555 -0.0941 -0.1152  0.2484
21275W        W40809   7.856  11.196  14.147  0.1579  0.2194  0.1197
21276W        W40810   2.892  11.557   0.412  0.1094  0.1270  0.0502
21277W        W40811  17.969   7.049  15.349 -0.0588  0.0280 -0.3512
21278W        W40812  15.982  13.590  13.450 -0.1128 -0.3688  0.1532
21279W        W40813   2.486   4.290   1.636  0.0038 -0.2660  0.0422
21280W        W40814   9.744   4.174  11.486 -0.2929 -0.1828  0.1044
21281W        W40815  18.157   1.954  15.187 -0.2993  0.1371 -0.1481
21282W        W40816  12.825   9.201   4.221  0.1100  0.0289  0.1039
21283W        W40817   1.823  17.489   0.577  0.1494 -0.0088 -0.1432
21284W        W40818   5.274   1.327   2.302 -0.2364 -0.0790 -0.1117
21285W        W40819  12.189  16.945   2.109 -0.0581 -0.0332  0.2145
21286W        W40820  16.164   7.338  15.385  0.0323 -0.0938  0.0359
21287W        W40821   9.548   2.484   3.770 -0.0027  0.2659 -0.1318
21288W        W40822   0.116   8.933   3.188 -0.0171 -0.2751  0.0364
21289W        W40823   9.041   8.513   3.826 -0.0910 -0.0194 -0.4801
21290W        W40824  14.406   9.358  13.977 -0.1094 -0.0979  0.1069
21291W        W40825  12.713   5.180   1.178 -0.1005  0.0258 -0.5267
21292W        W40826   7.082  13.229  14.320  0.0158  0.1956 -0.1917
21293W        W40827   8.043   0.829  11.298  0.0437 -0.4967  0.0114
21294W        W40828   1.821   4.060  12.665  0.0337 -0.0059  0.1559
21295W        W40829   3.192  18.076   2.990 -0.1079  0.0008 -0.0227
21296W        W40830  17.538  15.985   5.172 -0.1600  0.1080  0.0445
21297W        W40831  14.274   5.124  11.862  0.2898 -0.0115  0.0049
21298W        W40832  10.431   1.417  11.969 -0.2494 -0.0931  0.3396
21299W        W40833  13.645   1.539  15.410  0.1714  0.0005  0.0298
21300W        W40834   1.106  16.104   2.315  0.1765 -0.2037  0.1146
21301W        W40835   7.292  11.563   2.500  0.1844 -0.1809 -0.1253
21302W        W40836  15.594   7.915   1.881  0.0735 -0.0956  0.1006
21303W        W40837  16.768   5.478   1.238  0.1607 -0.3486  0.2105
21304W        W40838  12.876   6.668   2.936 -0.3749  0.0256 -0.0803
21305W        W40839   3.430   5.443  11.842 -0.0737  0.0895  0.1290
21306W        W40840  13.246  12.570   4.096  0.0168 -0.0813 -0.1295
21307W        W40841   0.916  17.307  13.640 -0.0590 -0.0881  0.2769
21308W        W40842   3.872   5.306   3.277 -0.1402 -0.1643 -0.0769
21309W        W40843   7.554   2.335  13.403 -0.0231 -0.6058 -0.0208
21310W        W40844   0.570  11.990   2.460  0.1350 -0.1846  0.0193
21311W        W40845   2.867   3.867  11.949 -0.2603  0.2099  0.2317
21312W        W40846   6.591  15.282  14.718  0.0563 -0.0145  0.4229
21313W        W40847   8.785  15.803   0.421 -0.1264 -0.0923 -0.0528
21314W        W40848   1.758  11.150  12.340 -0.0052 -0.1553 -0.0621
21315W        W40849  18.147   0.451  12.744  0.1818 -0.2733  0.0339
21316W        W40850  17.674   8.731  12.545 -0.2146  0.4400 -0.1877
21317W        W40851  16.906  10.318   2.716 -0.1470  0.1906  0.3129
21318W        W40852   4.890  17.387  14.296  0.2504  0.1407  0.0615
21319W        W40853  13.368  18.119  15.460  0.2863  0.0949  0.1267
21320W        W40854  14.300   5.826   3.047 -0.0275 -0.2480  0.0600
21321W        W40855  15.772   4.629   3.403  0.1863 -0.2537  0.0079
21322W        W40856   8.288   1.574  13.800  0.0600  0.0611  0.1208
21323W        W40857   7.964   7.360  12.443  0.2212 -0.3884  0.1177
21324W        W40858   6.582  11.801   1.674 -0.1475 -0.3011  0.0752
21325W        W40859   3.897   1.260  11.535  0.1576  0.0964 -0.3787
21326W        W40860   7.173   9.456  12.558  0.2153 -0.2429  0.2165
21327W        W40861   4.579   6.696   3.825 -0.1915  0.1916  0.1598
21328W        W40862  15.826   1.454   3.710  0.0194  0.0470  0.0405
21329W        W40863  13.132   3.910  12.290  0.0251  0.0336 -0.2009
21330W        W40864  16.849   4.477  10.670  0.0998 -0.0435  0.1937
21331W        W40865   3.689   0.161  10.431 -0.0218 -0.0279  0.0719
21332W        W40866  14.899  14.519   0.613  0.1773  0.0368 -0.2784
21333W        W40867   5.850   8.350  11.518  0.1683  0.0872  0.0811
21334W        W40868   5.781  10.398  15.454 -0.0586  0.0521 -0.0418
21335W        W40869   5.484   5.525  14.639 -0.0788 -0.0051 -0.3129
21336W        W40870   6.637  11.531   0.441  0.1030 -0.0190  0.1857
21337W        W40871  14.462   7.543  12.983  0.2619 -0.1239  0.0552
21338W        W40872   9.497   8.718   3.715 -0.0601  0.0859 -0.1811
21339W        W40873  10.542  15.640   5.561 -0.2093  0.1656  0.2703
21340W        W40874  11.137   5.742  12.086 -0.1910 -0.3219  0.0136
21341W        W40875  14.437   0.987  12.561  0.1064 -0.0900 -0.2006
21342W        W40876   7.523  13.426  14.473  0.1543  0.0607 -0.1812
21343W        W40877   6.897  15.368   4.576  0.2012  0.4200 -0.1736
21344W        W40878  14.074   6.627  13.303 -0.1683  0.0768 -0.1159
21345W        W40879  15.047  17.628  11.964  0.0158 -0.0022  0.3030
21346W        W40880   8.006  17.984   2.802  0.0750 -0.1318 -0.3847
21347W        W40881   0.149  13.270   3.266  0.1853  0.1341 -0.2085
21348W        W40882   5.796  17.809   4.560  0.1536  0.0589  0.1342
21349W        W40883  11.209   7.253  13.637 -0.0836  0.1069  0.0238
21350W        W40884   3.806  14.700   4.515 -0.0032 -0.0444  0.0285
21351W        W40885   0.937   8.434   2.126 -0.1310 -0.0364  0.0972
21352W        W40886   9.968   0.708  14.885  0.0983 -0.0429 -0.2890
21353W        W40887   5.891   1.119  14.994  0.3850 -0.4690  0.2629
21354W        W40888   8.532   1.854   2.951 -0.2271 -0.0850 -0.1456
21355W        W40889   3.883   2.828   4.752  0.0646  0.1215  0.0378
21356W        W40890   4.396   4.347   4.179 -0.3313  0.2003 -0.1978
21357W        W40891  14.479  12.008   1.917  0.0525  0.3801 -0.1010
21358W        W40892   3.218  13.282   0.802 -0.1167  0.3021 -0.0161
21359W        W40893   4.941   7.731   1.290 -0.2065 -0.0098  0.0303
21360W        W40894   5.155  13.991   4.775 -0.0326  0.0895 -0.1617
21361W        W40895   6.369   8.713  12.891 -0.1631  0.2416 -0.0190
21362W        W40896   5.631   1.439   0.975  0.2020 -0.2301 -0.0624
21363W        W40897  11.201  14.919   4.656 -0.0159 -0.1371  0.1699
21364W        W40898   5.471   9.616  11.178  0.0602  0.2432  0.1429
21365W        W40899  16.109   2.376   4.619 -0.0250 -0.3262  0.0611
21366W        W40900  17.092   5.148   3.324  0.0348  0.3879  0.1503
21367W        W40901  13.954  17.272  13.628 -0.3798  0.0964 -0.0501
21368W        W40902  17.102   2.541   2.391 -0.0564  0.0483 -0.0285
21369W        W40903   7.533  12.960  12.120 -0.2553  0.0363 -0.1784
21370W        W40904   8.249   0.352   0.326  0.1120  0.0583  0.0823
21371W        W40905   1.281  13.453   1.549 -0.0458 -0.1261  0.2613
21372W        W40906   6.769  10.553  12.366 -0.0195 -0.0186 -0.2293
21373W        W40907  16.405  12.397  15.612  0.0909 -0.0226  0.1759
21374W        W40908   0.345  13.111  13.443  0.2531 -0.0762  0.1855
21375W        W40909  16.979  13.747   1.368  0.4244  0.2477  0.0572
21376W        W40910  13.536  10.394   0.080  0.0993  0.1910 -0.2001
21377W        W40911   3.505   1.483  13.116  0.2948 -0.2645 -0.0989
21378W        W40912   7.296  18.074   3.375  0.1949 -0.2517 -0.2839
21379W        W40913   0.795   6.124  12.101  0.3554  0.0342 -0.2771
21380W        W40914   5.913   0.472  13.781 -0.1821 -0.0055  0.0742
21381W        W40915   0.033   8.962  13.256 -0.0225 -0.2154  0.0089
21382W        W40916   8.539   7.163   1.056  0.3197  0.1528 -0.1639
21383W        W40917  17.858  17.592  13.561 -0.1331  0.0043 -0.1669
21384W        W40918   1.957   9.482   0.553  0.1337  0.1180  0.0313
21385W        W40919   0.117  15.652  15.533 -0.0780 -0.4787  0.2043
21386W        W40920   9.758  16.928  14.445 -0.2388  0.0389  0.0134
21387W        W40921   6.607  16.769  15.811  0.0135 -0.0197 -0.0527
21388W        W40922  10.480  17.466   3.292 -0.0099 -0.3799  0.0799
21389W        W40923  10.006   2.317  12.653 -0.1008 -0.1742  0.1384
21390W        W40924  14.491  11.215  10.879 -0.1340  0.4391 -0.0023
21391W        W40925   6.545  13.462   1.353  0.2138  0.0271  0.0762
21392W        W40926   7.248   8.391  11.753  0.0779  0.1655 -0.0565
21393W        W40927  11.889  10.166   3.321  0.2292  0.2135  0.2613
21394W        W40928   2.197   2.683   1.688 -0.1146  0.2209  0.4125
21395W        W40929   5.018   6.526  12.127  0.1662  0.2581  0.3920
21396W        W40930   6.540  12.107   4.220  0.2237  0.0830  0.0621
21397W        W40931  10.522  16.656   5.189 -0.0522 -0.0487  0.0479
21398W        W40932   5.296   4.563   1.823 -0.0010  0.0686 -0.0760
21399W        W40933   2.227   9.050   0.410  0.1315  0.0467  0.0271
21400W        W40934   6.854  12.620   3.160  0.0644  0.0038  0.0860
21401W        W40935  17.897  13.821   1.652 -0.0909 -0.1286 -0.0096
21402W        W40936  15.753  12.999  11.215 -0.2620  0.0314  0.1314
21403W        W40937  12.948  11.838  15.577  0.3012 -0.2039 -0.1293
21404W        W40938  17.724  15.234  13.226  0.1084 -0.0338 -0.0131
21405W        W40939  11.868   6.916  14.470 -0.0853  0.1279 -0.2384
21406W        W40940  14.818   9.730   3.083  0.0953 -0.2239 -0.0133
21407W        W40941   0.304  11.164  14.091  0.1763 -0.2344  0.2201
21408W        W40942   6.671   1.718   4.325  0.2595  0.2501 -0.2034
21409W        W40943   1.284   3.277   4.438  0.0943 -0.2357 -0.0693
21410W        W40944  15.135   0.980   0.395 -0.3871  0.1376  0.0444
21411W        W40945   3.043  16.123   1.073 -0.1065  0.1597 -0.0679
21412W        W40946   7.659   1.466   3.118  0.0512  0.2030 -0.1541
21413W        W40947  15.195   7.063   1.906  0.1189 -0.0374  0.0488
21414W        W40948   9.913  15.890  13.701 -0.0189  0.0997 -0.0842
21415W        W40949  12.083  13.414  15.399  0.0237  0.1218  0.0876
21416W        W40950  18.310  12.757  11.665 -0.0330 -0.0300 -0.1080
21417W        W40951   5.571  13.624   1.662 -0.1412  0.4621  0.2065
21418W        W40952   8.893   7.652   0.710  0.1035 -0.0269  0.4277
21419W        W40953  12.685  11.069  14.634 -0.1596 -0.1245 -0.0498
21420W        W40954   7.891  16.576   1.398  0.1098  0.2407  0.1738
21421W        W40955   8.007   7.381   4.629 -0.0232  0.2456  0.0670
21422W        W40956  12.283   0.072  13.753  0.1497  0.2493 -0.4683
21423W        W40957   2.738  11.249   3.298 -0.0532  0.0503 -0.0681
21424W        W40958  17.868  13.574  14.318  0.0154 -0.0934  0.3097
21425W        W40959  17.519  12.547   4.519 -0.0104  0.1924 -0.1442
21426W        W40960  10.371  12.282  13.504 -0.0956 -0.2854  0.0842
21427W        W40961  14.660  12.223  12.253 -0.0060 -0.1313  0.0836
21428W        W40962   2.006  13.505   1.240 -0.1331 -0.3210 -0.3303
21429W        W40963  12.368   7.202   4.265  0.1321 -0.1437 -0.3238
21430W        W40964  17.163   9.715  11.695  0.3604 -0.3786 -0.2214
21431W        W40965   8.696   6.417  15.349  0.0901  0.0462  0.0375
21432W        W40966  11.773  15.914  14.078  0.2652  0.0229 -0.2577
21433W        W40967  15.547  11.477   0.074 -0.1103 -0.0215 -0.4774
21434W        W40968   3.813   8.849   1.523 -0.2121  0.0248 -0.2000
21435W        W40969   0.185  16.626  13.067 -0.2108  0.1561  0.2850
21436W        W40970   6.052  14.442   4.958 -0.2650 -0.1905  0.3601
21437W        W40971   5.811  15.717  12.133 -0.0873 -0.0904  0.3414
21438W        W40972  11.717  11.667  13.513 -0.1602 -0.0555 -0.1284
21439W        W40973  12.939   6.262   3.814 -0.0001  0.0026  0.1436
21440W        W40974  17.594   4.760   3.837 -0.1892 -0.0914 -0.1918
21441W        W40975  13.864   1.081  14.255 -0.1676 -0.0822  0.1526
21442W        W40976  18.387   7.530   3.823 -0.2213  0.1815 -0.0447
21443W        W40977   0.879  10.352   1.686  0.0830 -0.0393  0.0068
21444W        W40978  15.489  15.885  11.678  0.1395  0.3528  0.0724
21445W        W40979  14.451  17.751  15.347  0.1546  0.1033 -0.0339
21446W        W40980   6.129   7.838  13.113 -0.0250 -0.2830  0.0884
21447W        W40981   5.269   4.189  13.915 -0.3624 -0.0260  0.0120
21448W        W40982   2.908  15.543  11.596 -0.2927  0.0593 -0.2478
21449W        W40983   7.838   1.255   3.813 -0.0004  0.2000 -0.1020
21450W        W40984   3.501  16.452  15.808  0.1565  0.1402 -0.0994
21451W        W40985  17.757   5.511   0.239 -0.1511  0.1252  0.3265
21452W        W40986  16.606   3.208  11.213  0.0433 -0.2738 -0.0906
21453W        W40987   7.839  15.002   5.926  0.3471 -0.3176  0.0480
21454W        W40988   2.620   0.001   4.299 -0.0366 -0.1178  0.0741
21455W        W40989   6.655  11.649  14.350 -0.0144  0.2585 -0.1962
21456W        W40990  12.703   3.015  12.170  0.0633 -0.0110 -0.0569
21457W        W40991  15.899   3.556   4.315 -0.1346 -0.3240  0.0944
21458W        W40992   4.539  11.242   1.007 -0.0938 -0.2732  0.2754
21459W        W40993   6.737   7.410   2.848 -0.2531  0.1267 -0.1315
21460W        W40994  15.935   2.212  12.672  0.1168 -0.0434 -0.2009
21461W        W40995  14.217  13.154  15.581 -0.0430 -0.0416 -0.0912
21462W        W40996   7.529   9.169  12.256  0.1174  0.0766  0.0373
21463W        W40997  13.365  18.359  14.557  0.1868 -0.1906 -0.2114
21464W        W40998  15.242  16.474  15.432  0.1375  0.1134 -0.0856
21465W        W40999   8.568  15.912  15.520  0.1061  0.3624  0.0596
21466W        W41000  15.135  11.613  11.889  0.2021 -0.2122 -0.0623
21467W        W41001   5.493  16.576  15.089 -0.0727  0.3201 -0.0414
21468W        W41002   2.791  18.196  12.069  0.2753  0.0180 -0.2846
21469W        W41003  16.278  10.546  15.482 -0.2657 -0.0852 -0.1780
21470W        W41004  18.068   8.498   2.432 -0.1395  0.0946  0.1417
21471W        W41005  12.925   5.799  12.175  0.1208  0.2849  0.0158
21472W        W41006   9.641  10.273  15.112  0.0405 -0.1569 -0.1475
21473W        W41007  15.005  12.994  15.311 -0.3545  0.0271 -0.0342
21474W        W41008  11.060  10.362  14.924 -0.2887 -0.0709  0.1103
21475W        W41009  15.057   7.924   2.975 -0.1695  0.2862 -0.0246
21476W        W41010   9.583  16.595  14.101 -0.1623 -0.0858 -0.1002
21477W        W41011   3.356  11.594   1.354 -0.0056  0.0375  0.0078
21478W        W41012  15.615   2.408   3.451  0.1332  0.0680 -0.0700
21479W        W41013  11.160  10.719   3.149 -0.2991  0.0151 -0.1878
21480W        W41014  12.811  13.960   3.923 -0.0311 -0.0429  0.0674
21481W        W41015   0.207   6.553   1.481  0.0290 -0.0014 -0.0103
21482W        W41016   2.815  12.017   0.609 -0.0689  0.1394  0.0855
21483W        W41017   3.629  15.278  12.415 -0.0225  0.0358 -0.1855
21484W        W41018   5.137  16.033   0.541 -0.0154  0.2076  0.1919
21485W        W41019  13.848  14.736  12.875  0.0560 -0.2695 -0.0053
21486W        W41020   4.174  10.126  14.589  0.1716  0.0209  0.0640
21487W        W41021  12.851   0.118  15.300  0.1504 -0.1133  0.2501
21488W        W41022  18.085   9.242   1.808  0.2677 -0.1544 -0.2865
21489W        W41023   7.083   5.248  12.371 -0.1177 -0.2896  0.2477
21490W        W41024  12.144   2.347  12.517  0.1498  0.0223 -0.0205
21491W        W41025  15.402   3.873   1.340  0.3380 -0.2304 -0.0125
21492W        W41026  15.323   0.593   1.756 -0.0567  0.0300 -0.2383
21493W        W41027  16.771  18.297  11.698  0.0080 -0.0095  0.0677
21494W        W41028  13.475   5.680  13.028  0.1984 -0.0532  0.1283
21495W        W41029  15.399   0.829   0.996  0.2686 -0.0357 -0.0175
21496W        W41030  15.210  16.495   2.297  0.1108  0.1250  0.0225
21497W        W41031   8.960   4.480   3.127 -0.1670  0.0914 -0.1844
21498W        W41032   9.507   4.838   1.560 -0.0417  0.1445 -0.3134
21499W        W41033   4.063   4.516  13.840  0.0572 -0.1386 -0.0838
21500W        W41034  15.027  11.164   1.129 -0.1956 -0.1933  0.2661
21501W        W41035   8.213   5.715   2.971  0.1404 -0.0447 -0.1416
21502W        W41036   8.557   2.080  12.448  0.0856  0.1060 -0.2941
21503W        W41037   2.936   8.203   1.526 -0.1031  0.1514 -0.2464
21504W        W41038   8.544   8.402  12.231  0.0365  0.1353  0.2104
21505W        W41039  12.083  13.888  14.204 -0.0867  0.0433  0.0230
21506W        W41040  16.001   0.387   5.474 -0.1403  0.1814  0.0761
21507W        W41041   8.335  12.294   0.786 -0.0352  0.2293 -0.0732
21508W        W41042  12.321  16.272   5.132  0.1369 -0.0665  0.1174
21509W        W41043   8.778  18.284   3.073  0.3639 -0.1028 -0.2535
21510W        W41044  17.531   9.043   3.458 -0.2524  0.0185  0.0342
21511W        W41045   1.028   5.403   1.487 -0.1651  0.1537 -0.1482
21512W        W41046   4.291  17.609  14.080 -0.1824  0.0811 -0.1720
21513W        W41047  10.164   6.664  11.726 -0.0907 -0.1846 -0.3973
21514W        W41048   6.379  12.115  14.989 -0.0130  0.0729 -0.0443
21515W        W41049  10.819   1.896  12.096 -0.1797  0.0879 -0.1807
21516W        W41050  12.776  17.426  14.380  0.0294 -0.2386 -0.0431
21517W        W41051  12.519  18.064  12.897 -0.0304  0.0998  0.0083
21518W        W41052   3.347   6.240   0.600 -0.2930 -0.0046  0.0660
21519W        W41053   6.637  10.947   5.865 -0.2347  0.0866 -0.0661
21520W        W41054   7.332   3.048   2.166  0.0028  0.0425 -0.1348
21521W        W41055  12.443   6.522   1.898  0.0105 -0.0427 -0.0901
21522W        W41056   1.905   8.152   0.840  0.1844 -0.0619 -0.0402
21523W        W41057  17.935   9.451   2.648 -0.0133 -0.0888  0.1161
21524W        W41058  16.109  16.174   0.606  0.0091 -0.0794  0.0710
21525W        W41059   3.995  13.772  14.303  0.0885  0.0866 -0.0249
21526W        W41060  13.164  11.757   4.329  0.1044 -0.4064 -0.0320
21527W        W41061  17.379  17.263   4.091  0.3961 -0.1902 -0.2717
21528W        W41062   6.883   4.689   4.117  0.0000 -0.1354  0.2064
21529W        W41063   9.935   9.029   4.042  0.0214  0.0359 -0.2859
21530W        W41064   2.683   7.194   4.219  0.0589 -0.3294  0.0215
21531W        W41065  15.452   5.438  15.156 -0.2718 -0.0086 -0.0156
21532W        W41066   6.887   7.423   3.815  0.0238 -0.3178 -0.2064
21533W        W41067  11.222  15.950   1.906  0.1998 -0.0520 -0.1387
21534W        W41068   5.988   9.426  13.521  0.1533 -0.0435  0.0465
21535W        W41069   6.976   3.298   0.795  0.1322 -0.0851  0.2566
21536W        W41070  14.688   1.180  14.860  0.3498  0.1252  0.1994
21537W        W41071   2.824   9.480  13.444 -0.1144  0.2470  0.0185
21538W        W41072  13.504   1.961   3.971 -0.1846 -0.2284 -0.3318
21539W        W41073   1.173  14.644  13.443 -0.0344  0.0258 -0.1755
21540W        W41074  15.396   1.048   3.959  0.1437 -0.1258  0.1630
21541W        W41075  10.916  15.828   1.493 -0.6055  0.2728 -0.2433
21542W        W41076  12.507  15.372   2.854  0.4239 -0.0123 -0.0266
21543W        W41077  14.930   9.478   3.872  0.0745 -0.5869 -0.0913
21544W        W41078   4.990   4.862  15.206 -0.0374 -0.0800 -0.3073
21545W        W41079   1.026   4.809   4.456  0.2209  0.1912 -0.4051
21546W        W41080  16.979  12.375  12.260  0.0345 -0.1689  0.0027
21547W        W41081  17.233   8.178   2.727 -0.4046  0.1137 -0.1126
21548W        W41082   7.085   8.846  14.253 -0.1029  0.3456 -0.1210
21549W        W41083   4.741  10.769   0.511 -0.0171  0.0072 -0.0618
21550W        W41084  15.918   9.083   3.014 -0.3047 -0.1318  0.2154
21551W        W41085  10.044  18.307   2.938 -0.0530 -0.1776 -0.1214
21552W        W41086  10.244   7.619  12.369 -0.0612  0.1604  0.2153
21553W        W41087  14.601   7.559  12.243 -0.2760 -0.2425 -0.1173
21554W        W41088  13.318  16.637  12.590  0.1152  0.1350  0.0443
21555W        W41089   7.390   0.805   1.399 -0.3612  0.0913  0.0151
21556W        W41090   7.256   9.781  11.217 -0.0024 -0.0226 -0.1353
21557W        W41091  16.568   1.835   0.820  0.0605  0.0595 -0.0398
21558W        W41092   6.133   7.411   5.228  0.2026 -0.0591 -0.0772
21559W        W41093  16.507   8.151  11.389  0.0759  0.0820 -0.2808
21560W        W41094  10.870   7.648  14.369  0.0529 -0.3493  0.0559
21561W        W41095   1.731  13.506  14.557  0.0873 -0.1863 -0.0086
21562W        W41096  10.902   6.129   1.254 -0.0695 -0.2894  0.5097
21563W        W41097   7.843  13.952   0.086  0.0593 -0.1322  0.0549
21564W        W41098  15.836   5.704   2.852  0.1879  0.0525  0.3262
21565W        W41099  15.928   4.889   3.839  0.2903 -0.0287  0.0943
21566W        W41100   8.594   9.353   0.290 -0.0749 -0.0190 -0.0405
21567W        W41101  12.559   8.334  15.793  0.2105 -0.0251  0.0338
21568W        W41102   6.133   0.202  12.287 -0.3156  0.0706 -0.0500
21569W        W41103   1.836  13.921   3.210  0.1445  0.1018  0.1612
21570W        W41104   1.244   5.222  10.151  0.0091  0.0749  0.1767
21571W        W41105   7.792  17.680   1.098  0.2747 -0.1317 -0.2267
21572W        W41106  14.801  13.065   0.508 -0.2153  0.4017  0.4780
21573W        W41107   3.787  16.661   1.331 -0.0056  0.1559  0.0042
21574W        W41108  12.887   9.633   3.454  0.0463 -0.1113  0.1805
21575W        W41109  13.819  13.548   1.271 -0.1269 -0.0605  0.1828
21576W        W41110   6.687   4.869  15.647  0.1383  0.0330  0.2542
21577W        W41111  17.143   8.406  10.840  0.2060 -0.1431 -0.3378
21578W        W41112  16.432  15.928   0.231 -0.0254 -0.0881 -0.3629
21579W        W41113  16.050   4.075   0.432 -0.2720  0.0004 -0.1233
21580W        W41114   7.846  10.645   3.004 -0.0716 -0.1491  0.2032
21581W        W41115  17.561   3.893  12.805  0.3639 -0.1802  0.1835
21582W        W41116   9.535   2.515   2.675  0.1782  0.0975  0.1799
21583W        W41117   3.634   7.025   2.811  0.0147 -0.0845 -0.1025
21584W        W41118  17.718  17.425  15.777  0.1399 -0.1567  0.0618
21585W        W41119  17.610   2.096  14.020 -0.0315 -0.2049 -0.0361
21586W        W41120   2.459  15.777  11.848 -0.1078  0.0833  0.0151
21587W        W41121  11.358  15.231   3.151  0.1355  0.2003  0.0180
21588W        W41122   2.060   6.865  15.837  0.0731  0.1569  0.0749
21589W        W41123  15.564  10.413  12.598  0.0303 -0.2252  0.1051
21590W        W41124  18.244   4.234   0.005 -0.1082  0.0797 -0.0661
21591W        W41125  10.864   4.799  14.498 -0.0946 -0.1764 -0.0923
21592W        W41126   6.426  17.755   3.100 -0.1261  0.1277 -0.1499
21593W        W41127   4.689   1.149   0.123  0.2450  0.2376 -0.0464
21594W        W41128  15.295  11.570   0.552 -0.0392  0.1940  0.1316
21595W        W41129  18.149  10.742  15.413 -0.0527  0.0015 -0.0217
21596W        W41130   8.713  14.660   3.099  0.2319  0.2461 -0.0246
21597W        W41131  11.425   0.611   5.628 -0.0416 -0.2543  0.1048
21598W        W41132   8.814   7.640   1.271  0.0223  0.1843  0.0754
21599W        W41133   6.330  14.004   1.468  0.1080 -0.1699  0.1079
21600W        W41134  11.685  13.161  15.552  0.2928 -0.0767 -0.2286
21601W        W41135   3.278   9.416   0.778 -0.0823  0.2116  0.2436
21602W        W41136   4.521  13.100  14.435  0.2063 -0.2048  0.2189
21603W        W41137  17.102  14.661  10.861 -0.1167  0.0147 -0.0268
21604W        W41138   0.470   9.511  14.871 -0.0646 -0.0493 -0.0118
21605W        W41139   3.346  17.958   0.988 -0.0855  0.1405  0.4580
21606W        W41140  16.067   9.150   1.522 -0.2691 -0.1818  0.0590
21607W        W41141   2.795  12.133   4.101  0.1096 -0.1914  0.2769
21608W        W41142  18.061  14.848  15.628 -0.2492 -0.0123 -0.0140
21609W        W41143   0.243   7.907  10.184 -0.1788  0.1180 -0.0208
21610W        W41144  16.487   4.008  11.666 -0.1729  0.0485 -0.0606
21611W        W41145   2.071  15.107   0.696  0.0874 -0.3580 -0.0711
21612W        W41146  12.060  12.584   1.470 -0.0352 -0.1893  0.1169
21613W        W41147   6.730  12.952  12.168 -0.0211 -0.0891  0.1125
21614W        W41148  16.668   1.820  13.235  0.1551 -0.2693 -0.0741
21615W        W41149   6.640   0.441  12.496 -0.0475  0.1328  0.2639
21616W        W41150  14.408  10.957  14.166 -0.0977  0.0760 -0.0314
21617W        W41151   5.001  10.373   4.056  0.1348  0.0570  0.0574
21618W        W41152  13.884   5.870   0.216  0.2828  0.0474  0.1753
21619W        W41153   6.683   0.839  12.218  0.0023  0.0641  0.2063
21620W        W41154   6.030   9.270  12.993 -0.0478  0.0393 -0.0838
21621W        W41155   8.691   8.892  12.157 -0.0737  0.2238  0.0772
21622W        W41156   1.169  10.011  11.389  0.0182  0.2362  0.1469
21623W        W41157   8.136   6.660   3.568  0.4702 -0.1702 -0.1353
21624W        W41158   1.726  12.610   1.052 -0.1920 -0.0254  0.0551
21625W        W41159   1.926   9.856  11.688  0.1924 -0.0786  0.1923
21626W        W41160   7.431   9.196  14.037  0.0949 -0.1888 -0.0579
21627W        W41161   7.812  13.004   4.689  0.1703 -0.0414 -0.0259
21628W        W41162  14.080   5.308   3.081 -0.2097  0.2730  0.1646
21629W        W41163  11.284   2.217  12.781 -0.0231 -0.0647 -0.0883
21630W        W41164   2.481  13.163  15.666  0.3398 -0.1258  0.1724
21631W        W41165   4.318   3.189   0.061  0.2438 -0.1354 -0.1598
21632W        W41166   4.267  14.609   4.301 -0.0654  0.0523 -0.2893
21633W        W41167  12.389   1.850  12.786  0.3035 -0.0403  0.1570
21634W        W41168   2.457  11.428  14.476 -0.1693  0.2621 -0.1855
21635W        W41169  12.527   5.901  14.839  0.0221 -0.1567 -0.1501
21636W        W41170  15.797  17.987  15.578  0.1219 -0.2980  0.0205
21637W        W41171   4.537  18.194   1.824 -0.0601 -0.2398 -0.1292
21638W        W41172   6.097  17.465  15.219  0.0710  0.0924 -0.1212
21639W        W41173   8.022  12.386  12.855  0.0004 -0.0204 -0.0742
21640W        W41174   3.407  14.967   4.322  0.2833  0.0794 -0.0349
21641W        W41175   2.789  14.548  14.674 -0.0836 -0.1554 -0.2080
21642W        W41176  13.757  12.270   1.364 -0.1917  0.1691  0.0323
21643W        W41177  12.096   3.735  15.548 -0.1864  0.2142 -0.0133
21644W        W41178   2.293   4.426   4.112  0.1565  0.1780 -0.1259
21645W        W41179   7.133  10.868  12.000 -0.4833 -0.0524 -0.1316
21646W        W41180  11.550   9.073   5.097 -0.0085 -0.1154  0.1597
21647W        W41181  17.882   3.106  14.343  0.2643 -0.3623 -0.0258
21648W        W41182   7.165  13.559   4.478 -0.1359 -0.1025 -0.1678
21649W        W41183   0.143   0.894  14.278 -0.0337 -0.3524 -0.1872
21650W        W41184   4.699  17.866   0.979  0.2008 -0.1833  0.2849
21651W        W41185  16.080   7.901  11.334  0.1025 -0.2798 -0.1316
21652W        W41186   5.395   2.830   4.597  0.0038 -0.0073  0.1519
21653W        W41187  11.699   6.863  15.381  0.1776  0.1687 -0.0217
21654W        W41188  11.465   8.971   3.168 -0.0563 -0.0015  0.1374
21655W        W41189   7.052  12.870  13.954 -0.1768  0.0422 -0.1559
21656W        W41190   2.382   4.836  15.032 -0.1713  0.0396  0.0504
21657W        W41191   6.727   7.173  12.610 -0.0817  0.1735  0.0019
21658W        W41192   0.847  11.331   1.303  0.1431 -0.0504  0.0214
21659W        W41193   0.617  13.318   0.966  0.0088  0.2259  0.0734
21660W        W41194   1.829  14.352   2.386 -0.0465 -0.0960 -0.0541
21661W        W41195   4.905   6.352   0.105 -0.2349 -0.1796  0.0594
21662W        W41196   5.134   1.793  15.376 -0.1870  0.1410  0.0382
21663W        W41197  12.339  17.793  14.902 -0.0803  0.1561  0.2589
21664W        W41198  13.932   3.905  14.027 -0.2139 -0.1543 -0.3762
21665W        W41199   2.512  12.587  14.805 -0.2708  0.1046  0.3450
21666W        W41200   9.581   0.713  14.530 -0.0234 -0.0666  0.0573
21667W        W41201   8.566   2.604  14.542  0.1767 -0.2103  0.3242
21668W        W41202  12.996   3.007   5.303 -0.2596 -0.1772 -0.1179
21669W        W41203  16.813  14.919   1.929 -0.0232  0.1081 -0.1784
21670W        W41204  13.633  17.007  12.394  0.1538 -0.1442 -0.0706
21671W        W41205   6.593  11.838   2.628  0.1116  0.2623 -0.1214
21672W        W41206   3.775  11.530   3.374  0.2127 -0.1309 -0.3202
21673W        W41207  11.249   1.990   5.162  0.1978 -0.0100  0.1640
21674W        W41208  18.168  14.235  14.657 -0.0810  0.1204 -0.0415
21675W        W41209  11.545  17.434   0.372 -0.1601 -0.0276  0.3222
21676W        W41210  12.094   7.202  15.384 -0.3367 -0.0548 -0.1526
21677W        W41211   4.294  11.470  12.279  0.0612 -0.0389  0.1475
21678W        W41212  14.693   5.777   0.795 -0.1618 -0.0528  0.0685
21679W        W41213  17.318  13.731   2.566 -0.1592  0.4381 -0.0239
21680W        W41214  14.959   2.283  12.018 -0.1639 -0.1622  0.0369
21681W        W41215   1.848  17.040   2.713  0.1899  0.0732  0.0322
21682W        W41216   4.912  11.907  15.784  0.4133  0.1017 -0.1632
21683W        W41217  18.370   3.281  15.531  0.1802  0.1076  0.2446
21684W        W41218   1.635  12.466  14.932  0.0636  0.1331 -0.1124
21685W        W41219   6.140  13.190   0.467 -0.3597  0.0266 -0.0599
21686W        W41220   2.196   5.384  11.300  0.0522 -0.2368 -0.0478
21687W        W41221   8.374   0.716  14.697  0.3464  0.1293 -0.1713
21688W        W41222   1.190  10.455   2.523 -0.0871  0.0234 -0.1876
21689W        W41223   9.232   5.214  13.827  0.0343  0.1297 -0.1031
21690W        W41224  17.227  12.657  13.210 -0.0018  0.1946 -0.0383
21691W        W41225   0.493  12.771  13.048 -0.2624 -0.1849  0.2398
21692W        W41226   7.052  15.607  13.761  0.0282  0.1615 -0.0407
21693W        W41227  17.972   0.582   3.206 -0.0818  0.2358  0.2779
21694W        W41228   5.434  17.134  11.496  0.1379  0.3134 -0.3030
21695W        W41229   8.176  18.189  12.926 -0.0373  0.0244 -0.0248
21696W        W41230  16.412  10.253   0.151  0.0338 -0.1353  0.0313
21697W        W41231   0.796   9.372   1.339 -0.0496 -0.0690  0.1703
21698W        W41232   9.187   0.846   1.140  0.0239 -0.4104  0.1119
21699W        W41233   2.364  15.974  13.205 -0.0543 -0.0932  0.1379
21700W        W41234   8.344   0.550   0.849 -0.0271 -0.2474  0.0912
21701W        W41235   4.634  10.780  14.566 -0.3827  0.2563  0.2281
21702W        W41236  14.454  17.517  12.994  0.2386 -0.0836 -0.0320
21703W        W41237   4.435   9.996  15.013 -0.0879 -0.2025  0.1128
21704W        W41238   6.282  15.428   2.808 -0.1082  0.1937  0.1005
21705W        W41239   9.424   7.587  13.744 -0.0963 -0.0852  0.3214
21706W        W41240  17.303   0.109   2.038  0.2931 -0.1015 -0.3318
21707W        W41241  12.852  10.530  12.172 -0.3132  0.0090  0.0576
21708W        W41242   7.261   4.532  12.746 -0.2636 -0.0068 -0.2000
21709W        W41243  12.223   7.732  11.619  0.0741  0.0407  0.3404
21710W        W41244   5.711  16.985   4.158 -0.1376  0.0662 -0.0739
21711W        W41245   3.767   4.232   0.285 -0.2126  0.0563  0.2892
21712W        W41246   4.458   0.915   3.504 -0.0581 -0.0866 -0.1969
21713W        W41247   6.946   9.640  13.566  0.1497 -0.0516  0.1114
21714W        W41248  18.333   3.878   2.794  0.0819  0.1697  0.0241
21715W        W41249  14.024   8.147   3.419 -0.1701 -0.0729  0.0559
21716W        W41250   1.024   4.328  14.766 -0.1410 -0.1023 -0.1191
21717W        W41251   0.348  15.804  14.682 -0.0082  0.0330 -0.2415
21718W        W41252  18.353   6.483   0.737  0.0739 -0.1167  0.0559
21719W        W41253  14.800  10.869  11.606 -0.2501 -0.2868 -0.1933
21720W        W41254  14.946  12.694   1.537 -0.1857  0.2424  0.4020
21721W        W41255   5.328  13.080  13.056 -0.2814 -0.2465 -0.0582
21722W        W41256   3.924  10.512  14.161  0.2432  0.0603  0.0088
21723W        W41257   1.431   3.426   3.170  0.0198  0.0202 -0.2398
21724W        W41258   3.563   7.271  11.402  0.3043 -0.0042  0.0837
21725W        W41259  14.883   4.531  12.428  0.0573 -0.0721 -0.1753
21726W        W41260  12.717  13.887   1.151 -0.4688  0.0793  0.0599
21727W        W41261   2.109  10.360   0.471  0.1096 -0.2344  0.0587
21728W        W41262  17.773   3.079  13.864  0.0653 -0.0844  0.2020
21729W        W41263  14.722   1.477  12.707  0.2556 -0.0106 -0.0493
21730W        W41264   7.579   0.445  15.147  0.1470  0.0508  0.2567
21731W        W41265  12.614  13.693  12.046  0.2063 -0.0648  0.2231
21732W        W41266  18.171  15.045  11.312  0.4122 -0.2538  0.1598
21733W        W41267   6.741  13.652  14.351  0.1694  0.0523  0.0556
21734W        W41268   5.748   6.595   2.106 -0.1836  0.3356  0.0783
21735W        W41269  13.757   2.515   4.013 -0.0609  0.1052 -0.0021
21736W        W41270  16.703   7.830  12.111 -0.1256  0.0986  0.0070
21737W        W41271   7.962   7.060   2.378  0.1108 -0.2131 -0.1254
21738W        W41272  15.394   3.410   4.258  0.2327 -0.1556 -0.1017
21739W        W41273  10.404   3.465   0.976 -0.0883  0.0375  0.0415
21740W        W41274   8.260  10.153   4.442  0.0393  0.4010  0.1217
21741W        W41275  12.223   9.870   4.088 -0.0815  0.0612 -0.0022
21742W        W41276   4.685  11.744  12.209  0.0002 -0.0195  0.2250
21743W        W41277   3.861  18.062  12.216  0.0545  0.0479 -0.0220
21744W        W41278   6.691  15.625  15.648  0.0089 -0.2387  0.0105
21745W        W41279   5.114   0.985   2.715  0.0301  0.0787  0.2164
21746W        W41280   7.396  14.751  13.186 -0.1835 -0.1411  0.0212
21747W        W41281   0.247  17.836   3.595  0.0696  0.1347 -0.1679
21748W        W41282   7.779   4.885  14.219  0.0006  0.3507  0.2155
21749W        W41283   9.650   3.278  15.698 -0.0368 -0.2458 -0.0606
21750W        W41284   4.715  13.560  10.543  0.0988  0.1993 -0.4045
21751W        W41285   4.374  17.048  13.253  0.0027 -0.1214  0.0521
21752W        W41286  13.911   1.386  11.959 -0.0208 -0.0264 -0.1465
21753W        W41287  11.374  18.012  12.833 -0.0986  0.3024  0.0764
21754W        W41288   0.077   2.884  10.612  0.0719  0.1220  0.0455
21755W        W41289   7.110   2.197  14.484 -0.0948 -0.2793  0.1864
21756W        W41290  12.813  10.030  14.897 -0.0024  0.1435  0.0779
21757W        W41291   9.030   6.051  15.305 -0.0720  0.1379  0.0646
21758W        W41292  16.066  11.996  11.574 -0.1261 -0.0626 -0.4156
21759W        W41293   6.970   2.564   4.746  0.1162  0.1627  0.0494
21760W        W41294   2.613   7.033  11.083  0.0263  0.3183  0.0933
21761W        W41295  10.086  16.486  12.316  0.4674  0.1077 -0.3710
21762W        W41296  13.675  14.431   4.178 -0.0694  0.2372  0.1230
21763W        W41297   7.707  13.078  15.091 -0.0743  0.0839  0.2771
21764W        W41298  13.996  11.198  14.762 -0.3795 -0.1310  0.1722
21765W        W41299  15.285   4.003   3.681  0.0360 -0.0849  0.5121
21766W        W41300  15.991   8.081   2.111 -0.0207 -0.0005 -0.1285
21767W        W41301   3.521   1.545  11.770  0.0778 -0.1649 -0.1683
21768W        W41302  17.598   6.107  12.298 -0.0109  0.2862  0.1509
21769W        W41303   7.063   6.190   1.527 -0.1940 -0.0485  0.0384
21770W        W41304   0.590  14.320  15.537 -0.2556 -0.0234 -0.1557
21771W        W41305   6.286   9.441   2.619  0.0338  0.0197  0.1577
21772W        W41306   1.410   4.875   1.463 -0.1229  0.1146 -0.0575
21773W        W41307   5.243   3.944  11.969  0.1428 -0.0850 -0.1856
21774W        W41308   4.779   7.130   1.833  0.1552 -0.4073  0.0953
21775W        W41309   8.419  16.323  12.120 -0.1198  0.1172  0.1631
21776W        W41310   6.381  10.329  15.008 -0.0722 -0.0057 -0.2390
21777W        W41311   0.588   4.768   3.128  0.1647  0.0952  0.0702
21778W        W41312   4.510  18.307   4.538  0.1069 -0.0535 -0.1192
21779W        W41313  13.944   4.758   1.811 -0.0021  0.0594 -0.2065
21780W        W41314  12.878   0.017  13.125  0.2793  0.0437 -0.1186
21781W        W41315  15.505   2.566   1.203 -0.1521 -0.0492 -0.1510
21782W        W41316   5.149  17.228   2.289  0.1034 -0.0551 -0.2963
21783W        W41317   3.570   8.382   1.547 -0.0864 -0.1991  0.0647
21784W        W41318  13.117  12.937   3.271 -0.0341  0.0509  0.0605
21785W        W41319   6.933  15.155   3.388 -0.2455 -0.2473 -0.0639
21786W        W41320  13.525  10.550   4.440 -0.1536 -0.1297  0.1903
21787W        W41321  17.316  13.985  14.670  0.1607 -0.1084 -0.0878
21788W        W41322   5.187  17.509   3.843  0.0267 -0.0057  0.1180
21789W        W41323   3.133   0.246   4.922  0.2825 -0.2420  0.0303
21790W        W41324  12.936   2.169   2.343 -0.0614 -0.0954 -0.4075
21791W        W41325  10.968   6.826   4.045  0.1599  0.1313 -0.0654
21792W        W41326  16.531  12.492   2.582  0.1377  0.2829 -0.3065
21793W        W41327   8.000   2.944   3.407 -0.1271  0.1523 -0.2749
21794W        W41328   6.790  12.449  12.154 -0.1604  0.0689  0.1412
21795W        W41329  10.355  18.313  15.227 -0.0811  0.0383 -0.2660
21796W        W41330   4.582  10.378  12.993 -0.0253 -0.1381  0.0254
21797W        W41331  15.914   5.313   0.296  0.4445 -0.1859 -0.0153
21798W        W41332  14.999  15.014   4.370  0.0600  0.2716 -0.1914
21799W        W41333   8.212   9.867   4.048  0.0894 -0.2240  0.0386
21800W        W41334   2.166   7.427  13.156  0.0139 -0.0737 -0.3196
21801W        W41335  16.242  11.621   0.784 -0.0620  0.1004 -0.1774
21802W        W41336   0.599   3.360   2.101  0.3152 -0.3455 -0.0723
21803W        W41337  17.401  16.988   2.204  0.0271  0.0149  0.1437
21804W        W41338  15.263  14.964   3.643  0.0355 -0.2862  0.2196
21805W        W41339  15.454   6.906   3.326 -0.1567 -0.0870  0.0064
21806W        W41340  18.318   9.216   2.819  0.2396  0.3108  0.0311
21807W        W41341  11.035   5.845  13.499  0.0863 -0.0662  0.1880
21808W        W41342  18.330   2.541  13.762 -0.1055 -0.1908  0.0672
21809W        W41343   3.033   6.448   3.124  0.1098 -0.0469  0.1295
21810W        W41344  17.209   7.638   1.195  0.1964 -0.0165  0.2232
21811W        W41345   5.788  14.383   0.854 -0.0666  0.2708 -0.1349
21812W        W41346   6.076   4.311  14.465 -0.0411 -0.0840  0.1315
21813W        W41347  11.984   9.315   2.079  0.2225  0.1998 -0.0492
21814W        W41348  13.443   4.137   4.689 -0.2203 -0.0459 -0.1590
21815W        W41349   2.627   9.204   0.665  0.1657 -0.0404 -0.0663
21816W        W41350   2.724   4.778   1.696 -0.2875 -0.1678 -0.1812
21817W        W41351   9.687   0.907   2.798  0.0511 -0.0929 -0.0566
21818W        W41352  12.615  15.958  13.459 -0.0790  0.1065 -0.2078
21819W        W41353  16.903   1.483  14.929  0.0468  0.2037  0.3682
21820W        W41354   0.053   7.380   0.129 -0.1798  0.2468  0.0733
21821W        W41355   8.501  17.732  13.015  0.2995  0.0610  0.0630
21822W        W41356  13.311   4.200  15.249 -0.0597  0.1272  0.0344
21823W        W41357  13.093   6.944  15.588  0.0409  0.3451  0.1278
21824W        W41358  16.054  11.255   2.027 -0.0769  0.2450  0.1186
21825W        W41359  17.307   9.861  15.098  0.3833  0.4257  0.0633
21826W        W41360  16.758   5.316   5.199  0.1327 -0.2246  0.1405
21827W        W41361   6.715   2.219  14.799  0.3060 -0.1498  0.3077
21828W        W41362  13.243  15.277   0.589  0.3789 -0.2607 -0.1193
21829W        W41363  13.451  16.673   0.691  0.1434  0.0670 -0.1377
21830W        W41364  12.600   9.552  14.245  0.1496 -0.3137 -0.0290
21831W        W41365   6.470  12.128  11.954  0.0589 -0.1068  0.2809
21832W        W41366  11.116   9.897  11.884  0.3245  0.0791  0.2490
21833W        W41367   8.000  15.770   3.375  0.2284  0.0869  0.1494
21834W        W41368  14.013   0.296   2.680  0.0625  0.0521 -0.2119
21835W        W41369  15.246  13.849  15.759 -0.0731  0.1505 -0.1717
21836W        W41370  14.903   8.273   1.547 -0.3015  0.0103  0.1534
21837W        W41371  11.614   7.780  12.719  0.2931  0.3824 -0.2123
21838W        W41372  10.897   2.494   4.335  0.1271 -0.0133 -0.2454
21839W        W41373   7.504   0.735   1.911 -0.0115 -0.5401  0.0743
21840W        W41374  13.306   6.942   2.965  0.3111  0.1517 -0.0724
21841W        W41375  14.052  12.694  12.800 -0.1718  0.2191 -0.1383
21842W        W41376   4.259   4.729  15.115  0.2473  0.2513  0.0007
21843W        W41377  12.727   2.971   4.565  0.1843 -0.0311 -0.0833
21844W        W41378  10.256  11.453  15.166 -0.0127  0.2047  0.3983
21845W        W41379  16.921  10.680  13.046  0.0935  0.0153 -0.0897
21846W        W41380  14.582  11.393   1.120 -0.0120  0.2804 -0.0827
21847W        W41381  15.254  16.449   1.128 -0.0380  0.2189 -0.0028
21848W        W41382   3.477   4.936  12.696 -0.0122 -0.1441 -0.0549
21849W        W41383  14.941  12.104  15.068 -0.0609 -0.0086  0.1865
21850W        W41384  17.235  12.866   4.310  0.3353  0.1548  0.1311
21851W        W41385  15.036  15.525   1.402 -0.0638 -0.0494 -0.2191
21852W        W41386   9.455   6.909   4.540 -0.0624  0.0170 -0.2911
21853W        W41387   4.285  14.219   2.543 -0.0047  0.0596  0.0182
21854W        W41388   4.731  16.304   4.702  0.2001  0.0008 -0.0271
21855W        W41389  10.598   4.590  14.928  0.3093 -0.3509  0.1338
21856W        W41390   7.597   6.604   3.326 -0.1590 -0.0325 -0.1111
21857W        W41391  11.683  14.578   5.747  0.2546 -0.0887  0.0945
21858W        W41392  13.252  12.833   4.506 -0.1460  0.3138  0.1407
21859W        W41393   0.523  18.065   1.746 -0.0014 -0.1177  0.0302
21860W        W41394   2.901   6.567  13.564  0.0240  0.1009  0.2059
21861W        W41395  15.736   3.978  15.839 -0.0529  0.0485  0.1768
21862W        W41396   1.984  15.546   0.548  0.2778  0.1087  0.2317
21863W        W41397  14.231   8.784  11.514  0.0166 -0.0110 -0.0286
21864W        W41398  11.475  11.100   1.465 -0.0365  0.1244  0.1107
21865W        W41399  12.520  15.445  13.436  0.3462  0.0399  0.2354
21866W        W41400   6.435  13.432  11.400  0.1954 -0.0411 -0.0205
21867W        W41401  14.723  16.837   2.807  0.1734 -0.2348 -0.0868
21868W        W41402   5.845  13.578   0.598  0.1701 -0.1585 -0.3051
21869W        W41403   4.607   1.734  13.336 -0.1751 -0.2100 -0.1502
21870W        W41404  13.481  13.903  15.720  0.1146  0.2507  0.0296
21871W        W41405   4.039   5.286  14.305 -0.1967 -0.0579  0.3859
21872W        W41406  13.877   7.922  11.679 -0.1155  0.1926 -0.0180
21873W        W41407   9.160  11.575   0.023  0.1901  0.1594  0.3358
21874W        W41408   0.367   2.452   2.144 -0.1416 -0.1411  0.1313
21875W        W41409  17.763   7.473   3.936  0.0287 -0.0596 -0.1157
21876W        W41410  15.741   1.591   1.571  0.2977 -0.3325 -0.0626
21877W        W41411   7.003   4.429   2.384  0.0732  0.0244  0.5243
21878W        W41412  12.125   3.571   4.280 -0.4440  0.2487  0.1132
21879W        W41413   8.809   7.458  14.241 -0.0595 -0.3274  0.2511
21880W        W41414   2.505  15.561  15.531 -0.1388 -0.3117 -0.1107
21881W        W41415  14.079   8.842   2.262  0.3510 -0.1312  0.2677
21882W        W41416   5.529   3.406   0.269  0.0996  0.0880  0.0238
21883W        W41417   7.474  10.946  14.356 -0.2005 -0.1436  0.1682
21884W        W41418   6.550   8.374  13.843  0.3496  0.2598 -0.0515
21885W        W41419   8.375  14.926   3.678  0.0116  0.0878 -0.0071
21886W        W41420   6.733   2.576  14.390  0.2015  0.3326  0.1102
21887W        W41421  10.738   9.067  12.814 -0.2111  0.2283 -0.1243
21888W        W41422   5.747  14.073   4.020 -0.2918 -0.0033  0.0951
21889W        W41423  10.897   5.757   1.577 -0.1396 -0.1399 -0.1073
21890W        W41424   4.656  14.578  11.660 -0.0479 -0.0034 -0.3023
21891W        W41425  13.502  16.204   0.451  0.2703  0.0776  0.3637
21892W        W41426  13.741  18.124  15.027  0.0322  0.1527  0.2511
21893W        W41427   2.970  11.631  13.481  0.1161  0.2668 -0.2621
21894W        W41428  15.588  13.786   5.483 -0.0670 -0.0964 -0.1024
21895W        W41429   7.650  11.462   0.333  0.3133 -0.1731  0.2330
21896W        W41430  17.440   1.643  11.565 -0.2150  0.2035 -0.2288
21897W        W41431   0.280  16.147  12.865 -0.2695  0.1698 -0.0509
21898W        W41432   4.404  13.727  12.787 -0.1825  0.0905 -0.1560
21899W        W41433   4.240   0.881  11.341 -0.1049  0.1044  0.0630
21900W        W41434  14.881   0.023   0.688  0.0453  0.0116 -0.3078
21901W        W41435   7.352   3.512   3.637 -0.1126  0.0326  0.2953
21902W        W41436   0.385   5.974  14.376 -0.1654 -0.1858 -0.1081
21903W        W41437  12.476   0.196  13.304 -0.1021 -0.0622 -0.0637
21904W        W41438   8.575  17.163   0.754 -0.0359  0.1115 -0.0874
21905W        W41439  12.025  14.522   1.234 -0.3341  0.0499 -0.0400
21906W        W41440   3.305   5.123   3.062 -0.0223 -0.1452  0.0654
21907W        W41441   0.222  11.525  12.154 -0.1698  0.0115  0.3576
21908W        W41442  11.357  17.450   3.857  0.2117  0.1905 -0.1884
21909W        W41443   0.380   1.243  15.086 -0.1995 -0.0890  0.1488
21910W        W41444   3.441   3.764   2.621 -0.0390 -0.0408 -0.3420
21911W        W41445  17.871  16.979  15.512 -0.0325  0.2448 -0.1363
21912W        W41446   3.373  10.725   2.921  0.0752  0.0684 -0.2437
21913W        W41447   7.606   1.142   2.724 -0.0211 -0.3331 -0.2259
21914W        W41448   8.029  16.208  15.491  0.1242  0.0781  0.1069
21915W        W41449  13.305   5.327  14.464 -0.2290 -0.2274 -0.1949
21916W        W41450   4.422   5.594   4.739 -0.0380 -0.1227  0.1139
21917W        W41451   7.445  13.602  12.818 -0.0678 -0.0115 -0.1032
21918W        W41452  10.745   0.138   4.594 -0.1289 -0.0194 -0.2155
21919W        W41453   6.514   9.583  11.856 -0.2218 -0.0067  0.0609
21920W        W41454   2.408  13.753   0.394  0.1399  0.0592 -0.2059
21921W        W41455   9.444   8.014  14.962  0.0018 -0.0968 -0.0733
21922W        W41456   4.715  10.990  15.015  0.3621 -0.3316  0.0321
21923W        W41457   2.101   7.674   0.605  0.0040  0.2142 -0.0177
21924W        W41458   2.569   3.282  12.089 -0.3266  0.2578  0.2263
21925W        W41459   8.492   2.192  15.420  0.4008  0.0698 -0.4104
21926W        W41460  14.647   4.373  13.074  0.0916  0.1798  0.1389
21927W        W41461  10.345  13.918   1.465 -0.0217 -0.0597  0.0628
21928W        W41462   8.957  12.166  12.082  0.1692 -0.2339  0.0796
21929W        W41463  12.616   4.177  13.086  0.1982  0.1612 -0.0210
21930W        W41464   9.190   1.366  12.428 -0.0249 -0.1402 -0.3682
21931W        W41465   4.185   3.493   3.336  0.1062  0.0722 -0.0435
21932W        W41466   0.826   7.377  14.745  0.0540 -0.1837 -0.2860
21933W        W41467   6.770  17.736   2.726 -0.3654 -0.0594 -0.4467
21934W        W41468  13.158   2.440  12.914 -0.0234 -0.1239 -0.2441
21935W        W41469  12.833   7.499   4.465  0.1279  0.2345  0.0068
21936W        W41470   1.735   9.982   5.318  0.2210  0.0864  0.0570
21937W        W41471  17.800  13.977   0.892 -0.0622 -0.0229 -0.3135
21938W        W41472   6.588   8.865   0.388  0.0300  0.0255  0.0860
21939W        W41473   2.021   5.007  15.344  0.0980  0.1616 -0.0329
21940W        W41474  16.591   9.377   0.114  0.1615  0.3473  0.0314
21941W        W41475   2.862   9.926  13.577 -0.2816 -0.0613  0.1214
21942W        W41476   2.562   3.907  15.238  0.0375 -0.2239  0.2753
21943W        W41477  12.284  17.997  13.991 -0.1743 -0.0715  0.4350
21944W        W41478   1.892   1.981  11.844 -0.0891  0.0791  0.1344
21945W        W41479   7.002  17.644  12.781 -0.0845 -0.0946  0.2331
21946W        W41480  16.806  10.646  15.366 -0.0916 -0.3773  0.1648
21947W        W41481   1.720  14.768   0.472 -0.1471 -0.2671 -0.1264
21948W        W41482  15.947  10.028   2.475 -0.1623 -0.0173  0.1806
21949W        W41483  13.497   8.051  12.008 -0.1690 -0.0914 -0.1889
21950W        W41484   9.221   5.488  11.627 -0.1492  0.0200  0.1948
21951W        W41485   9.604  15.984  11.417 -0.2995 -0.3124 -0.0583
21952W        W41486   4.900   3.329   1.147 -0.0849  0.1079 -0.2598
21953W        W41487   1.087  18.185   3.043  0.0348  0.2021  0.0326
21954W        W41488  17.041   2.058   1.545 -0.0124  0.1296 -0.0474
21955W        W41489   1.253  14.723  14.000 -0.0425  0.0166 -0.0255
21956W        W41490  17.020   4.828   3.775 -0.1878  0.3592  0.0607
21957W        W41491   1.926   8.121   3.860  0.0507  0.3062  0.0573
21958W        W41492  16.797   9.994   4.969  0.1399  0.1472  0.2634
21959W        W41493   7.890  10.825  11.684  0.1631 -0.1140 -0.2678
21960W        W41494  14.587  18.099   0.473  0.0678  0.0716 -0.1665
21961W        W41495  18.209  15.047   0.868 -0.2236  0.0609  0.1566
21962W        W41496   4.596   2.668  14.097 -0.1702  0.0929  0.0266
21963W        W41497   3.458  17.119   3.525  0.0173 -0.1140 -0.1981
21964W        W41498  11.959   6.124   3.643  0.2155 -0.2440  0.2295
21965W        W41499   9.836   6.787  15.790  0.4036 -0.2298  0.1837
21966W        W41500   6.217  12.119   1.606 -0.0480  0.1704 -0.0353
21967W        W41501  17.751  17.667   1.277 -0.1831 -0.1717  0.2905
21968W        W41502  12.643  14.970   3.286  0.0820 -0.0165  0.1659
21969W        W41503  14.190   6.790  12.293  0.1126 -0.0926  0.1074
21970W        W41504   6.475  11.925   2.133  0.1365 -0.0310 -0.2092
21971W        W41505  11.551  13.495   4.477  0.1310 -0.0786 -0.0541
21972W        W41506  14.440   7.114   4.022 -0.0102  0.3467 -0.1041
21973W        W41507   7.211   9.922   1.166  0.3791 -0.3381  0.0263
21974W        W41508  10.466  14.982   0.513  0.1895  0.3142 -0.0251
21975W        W41509  15.290  10.501  14.514  0.0201  0.1044 -0.1172
21976W        W41510  16.569   7.868   1.814  0.1790  0.2937  0.1122
21977W        W41511   3.690   2.835  11.548 -0.0691  0.0633  0.1518
21978W        W41512   5.810   2.507  11.959  0.1598  0.2239 -0.1992
21979W        W41513   9.367  17.645  12.735 -0.1272  0.2341 -0.0360
21980W        W41514   3.311   6.533   2.005  0.1665 -0.1521 -0.0287
21981W        W41515  13.386  11.308  15.401  0.1707  0.0520  0.1168
21982W        W41516   0.412  11.371   3.642  0.1115  0.2762 -0.2357
21983W        W41517  10.475   5.096  15.020  0.0332 -0.0837 -0.2532
21984W        W41518  15.017   5.372   0.575 -0.1613  0.0143  0.1156
21985W        W41519   1.957   2.774  15.363 -0.0955  0.1597  0.1624
21986W        W41520   4.395  17.569  14.616  0.2559  0.2968 -0.2380
21987W        W41521  10.849  17.543  12.642 -0.1945  0.3668  0.2136
21988W        W41522  10.829   3.325   4.702 -0.1155 -0.1678 -0.1851
21989W        W41523  15.511  11.303   4.240 -0.0512 -0.2226 -0.3228
21990W        W41524   3.550  13.546  13.131  0.2905  0.0705  0.0468
21991W        W41525  13.850   8.147  12.901  0.0771  0.2560  0.2753
21992W        W41526   5.347  18.305   3.342  0.0167  0.5925 -0.3475
21993W        W41527   1.055  15.923   3.234 -0.0316  0.1327  0.3150
21994W        W41528  10.199  16.896  12.194  0.1828  0.2726 -0.1486
21995W        W41529   9.304   7.422   1.232 -0.1198 -0.2796  0.1089
21996W        W41530  11.904  16.801   4.060  0.2209  0.0348  0.1257
21997W        W41531  14.753   8.343   2.844  0.2051  0.2362 -0.1989
21998W        W41532   9.749  10.958  11.319 -0.1163 -0.2113 -0.1153
21999W        W41533  13.160   0.310  12.365 -0.1200  0.0359  0.2225
22000W        W41534  16.282   4.523   4.055  0.3268  0.0776  0.2491
22001W        W41535  16.207   9.424  14.801 -0.2775 -0.1005  0.2380
22002W        W41536  17.725   6.177  11.741  0.3186  0.3341  0.0479
22003W        W41537  17.906  10.273   2.012 -0.1091 -0.0018  0.0090
22004W        W41538  10.659  15.358   0.162  0.1526 -0.2230  0.0845
22005W        W41539  10.602   6.725   0.254 -0.0102 -0.0414 -0.1657
22006W        W41540  14.245   6.110  13.921  0.0781  0.0037 -0.0583
22007W        W41541   3.696  10.260   4.003  0.0799  0.1446  0.1215
22008W        W41542   8.743   2.042  14.575 -0.0493 -0.3067 -0.0376
22009W        W41543   4.854   1.706  12.867  0.0521  0.1201  0.0550
22010W        W41544   1.657  12.770   3.005 -0.1417  0.2286  0.2429
22011W        W41545  11.528  17.839  14.937 -0.1151  0.1893 -0.0964
22012W        W41546  10.613  15.081   0.991 -0.1269  0.0764  0.0571
22013W        W41547  13.055  10.963  11.923  0.1979  0.1151  0.1357
22014W        W41548   0.878  15.783  15.369  0.2519  0.2452  0.0110
22015W        W41549   8.652  13.374  14.818 -0.1958 -0.1794 -0.1702
22016W        W41550  12.760   4.158   0.912 -0.0152  0.2180  0.2062
22017W        W41551  12.823  16.806  12.695  0.2876  0.1514  0.1127
22018W        W41552   4.982   1.346  12.470  0.4920  0.0256 -0.1689
22019W        W41553   1.168   1.707   3.546 -0.1064  0.0085  0.3736
22020W        W41554   5.232  13.659  15.108 -0.0287 -0.2539  0.0779
22021W        W41555  16.221   9.848   1.743  0.1255 -0.4141  0.1323
22022W        W41556  13.477   4.629   4.065 -0.1567  0.0073 -0.1178
22023W        W41557   2.912  16.365  11.473 -0.3680 -0.1351  0.0431
22024W        W41558   7.599   9.264   4.562  0.2754 -0.1368 -0.0994
22025W        W41559   2.536   7.430   0.437  0.0448 -0.0409 -0.0244
22026W        W41560  18.080  14.748  12.267  0.0534 -0.0807 -0.0265
22027W        W41561  16.820  11.780   3.238  0.1147  0.1478 -0.2621
22028W        W41562   7.062  11.787   2.914 -0.1672  0.3050  0.1118
22029W        W41563  16.012  12.065   0.716  0.0600  0.2026  0.0125
22030W        W41564   7.961   8.335  15.204 -0.1839  0.1552 -0.0453
22031W        W41565  11.861   8.889   2.437 -0.0309  0.1145 -0.1935
22032W        W41566   2.950   7.901  12.273  0.0525  0.1287  0.4220
22033W        W41567   5.177   5.265  14.940 -0.3578 -0.0448 -0.0994
22034W        W41568   3.290  10.018   3.182 -0.1549  0.3949  0.0332
22035W        W41569   5.744  13.892  15.733  0.0197  0.1995 -0.2450
22036W        W41570  16.137   7.196   4.338  0.1944 -0.1090  0.1465
22037W        W41571   4.506   5.963  12.973 -0.0540 -0.4633  0.0739
22038W        W41572   8.738   7.516  15.045  0.1603  0.0580  0.2429
22039W        W41573   0.669  11.686  11.990 -0.3103 -0.1347  0.0161
22040W        W41574  15.325   6.940  13.274  0.1460 -0.0274 -0.0096
22041W        W41575   2.567   3.344  13.903  0.1534 -0.0244 -0.2811
22042W        W41576   0.443   0.067   4.529 -0.0638  0.2577  0.0221
22043W        W41577  11.046   6.370  13.327  0.0859  0.2135  0.3184
22044W        W41578   5.432  11.886  15.277  0.0517 -0.0277  0.0194
22045W        W41579   3.350   9.530  14.311 -0.0644  0.2743 -0.0172
22046W        W41580  12.990   1.955  13.513  0.0917 -0.3883  0.1360
22047W        W41581  12.882   6.386  13.374 -0.1971 -0.0799  0.0391
22048W        W41582   1.100  12.076   3.596 -0.2816  0.1606 -0.4191
22049W        W41583  10.695   4.564   4.693  0.0003  0.0030 -0.3337
22050W        W41584  13.987   3.530  11.454  0.1039  0.1463  0.1527
22051W        W41585   1.302  14.156  13.422 -0.0204  0.0419 -0.0184
22052W        W41586  11.914  12.211  14.707 -0.0998  0.1171  0.1910
22053W        W41587  16.169   6.281  11.904  0.0601 -0.1398  0.1287
22054W        W41588   8.267   0.598   3.184 -0.2271 -0.1223 -0.0374
22055W        W41589  14.529   7.369   1.570 -0.0577  0.1806  0.0683
22056W        W41590   6.051  15.877  11.701 -0.3474  0.2475  0.0303
22057W        W41591   7.238   6.457  11.646 -0.0290  0.0274 -0.2656
22058W        W41592   4.086  11.385   0.852  0.2863  0.2386 -0.1314
22059W        W41593   8.368  17.911   3.239 -0.1982  0.3601 -0.2207
22060W        W41594  14.952   1.834   4.080 -0.0204  0.1595 -0.4564
22061W        W41595  13.982   0.734  14.692 -0.3056  0.0860  0.4583
22062W        W41596   2.647   9.049  13.219  0.1402 -0.0596 -0.0040
22063W        W41597  10.338   4.931  15.697 -0.2219  0.0559  0.0977
22064W        W41598  11.413  18.150  11.080  0.0442 -0.3060 -0.1588
22065W        W41599  13.814  11.440  12.123  0.0815 -0.1113 -0.4070
22066W        W41600   9.416   8.632  12.146 -0.1419 -0.3796  0.2589
22067W        W41601  12.026  17.349   1.604  0.0949 -0.0475  0.4247
22068W        W41602  12.822   3.118   3.213 -0.1965  0.0660  0.1480
22069W        W41603   2.308   9.879   0.438  0.0503  0.2262  0.0420
22070W        W41604   1.678   4.804   2.505  0.1607  0.0457 -0.1232
22071W        W41605  15.205  14.324   1.986  0.4754  0.0736 -0.0904
22072W        W41606  16.635   7.794   0.890 -0.0820  0.0117 -0.2639
22073W        W41607   9.020   7.752   2.180 -0.1349 -0.1336  0.0803
22074W        W41608  12.308  12.410  13.951 -0.0367  0.0193 -0.0870
22075W        W41609   6.990   4.132  11.790 -0.0987  0.4104 -0.0205
22076W        W41610  10.265   6.692  15.353  0.0984  0.1847 -0.1276
22077W        W41611   3.475  13.801   1.018 -0.4743 -0.0972 -0.0790
22078W        W41612   1.427   5.561  11.441  0.1052  0.0157  0.1206
22079W        W41613   5.811   4.579   4.377  0.0162  0.0079  0.0896
22080W        W41614  11.643   3.711  11.177 -0.2433  0.0136 -0.0110
22081W        W41615   8.364  16.744  11.809  0.1287 -0.1344  0.3851
22082W        W41616   4.482   0.614  11.638 -0.1738  0.1767 -0.0170
22083W        W41617  11.879  17.600  14.087  0.1219 -0.2357  0.1804
22084W        W41618   1.494   9.757   0.608 -0.2171  0.1107  0.0210
22085W        W41619   1.583   4.062  12.183 -0.0249 -0.2553 -0.1576
22086W        W41620   0.260  12.074   0.265 -0.1864  0.5655 -0.2701
22087W        W41621  15.279  13.777   2.244  0.0367 -0.0999 -0.0652
22088W        W41622  15.982   5.726   1.781 -0.2121  0.0491 -0.0529
22089W        W41623   1.242  14.168   4.576  0.0744 -0.2998 -0.0906
22090W        W41624  16.658   1.852   2.749  0.2625 -0.3012 -0.2487
22091W        W41625  18.382   4.327   9.928 -0.1129  0.0138 -0.2242
22092W        W41626  15.695  14.557   3.389  0.0582 -0.1153  0.1172
22093W        W41627   9.087   0.165   4.288 -0.3965 -0.1598 -0.4610
22094W        W41628   0.097   8.319   1.080 -0.0702  0.0671 -0.1755
22095W        W41629  15.458  11.109  13.710  0.2368  0.2983 -0.2013
22096W        W41630   0.775  17.856   3.333 -0.0394 -0.3937  0.0517
22097W        W41631  10.057   3.757   2.437  0.1895  0.1312 -0.0026
22098W        W41632  14.240  13.593  13.846 -0.2367  0.1074  0.0071
22099W        W41633  16.269   2.247  13.006 -0.0943 -0.0741  0.2107
22100W        W41634   8.491  16.581   3.311 -0.0858 -0.0834  0.2205
22101W        W41635   5.217   8.272   4.335 -0.2509 -0.0972  0.0566
22102W        W41636  17.709   4.573   2.497  0.1484  0.2129  0.0412
22103W        W41637  16.157   1.898   1.596  0.4803 -0.3399 -0.1537
22104W        W41638  13.508   0.893  12.838  0.0310  0.0638  0.1803
22105W        W41639  13.612  12.924  13.230  0.0566 -0.0173 -0.0290
22106W        W41640  14.152  13.151  12.962 -0.0089  0.1685 -0.1041
22107W        W41641  10.530   1.529  14.681  0.0961 -0.1723 -0.2478
22108W        W41642  10.644  16.387   0.123 -0.1326 -0.0430 -0.2248
22109W        W41643   1.818  15.454  12.806 -0.0681 -0.2507  0.4504
22110W        W41644  10.778   0.889  15.828 -0.3042 -0.0254  0.3030
22111W        W41645  14.023  18.260   0.456  0.1620  0.0962 -0.3605
22112W        W41646  16.575  14.452   3.217 -0.2972 -0.2051  0.1304
22113W        W41647  12.146   5.493  11.243  0.0830 -0.0300  0.1812
22114W        W41648  10.213  16.741  14.148 -0.0938 -0.0752 -0.1066
22115W        W41649  17.675   0.178   0.319  0.1556 -0.0682 -0.4755
22116W        W41650   5.935  17.483  14.686 -0.0456  0.0811 -0.2079
22117W        W41651  14.526  17.019  12.784 -0.1742  0.1577 -0.1126
22118W        W41652  15.247  15.131   0.941 -0.0402  0.1022 -0.1711
22119W        W41653   6.211   4.387  11.750  0.1028  0.3677 -0.2147
22120W        W41654   1.255   6.325   2.517 -0.2934  0.0301 -0.0983
22121W        W41655  13.797  17.277   4.815 -0.0392  0.0892  0.1491
22122W        W41656  15.956  15.937   0.049  0.0279  0.0276  0.1318
22123W        W41657  18.196   6.347  11.615  0.1074 -0.1056  0.1236
22124W        W41658   9.448  15.069  14.146  0.0688  0.1399  0.0354
22125W        W41659  13.018   8.057   0.171  0.1822 -0.3868 -0.2393
22126W        W41660  14.736   5.994  12.195 -0.0205 -0.4226  0.1291
22127W        W41661   3.959   5.718  11.760 -0.0078  0.3942 -0.0631
22128W        W41662   0.109   1.195   0.657  0.0737  0.0028  0.2588
22129W        W41663  13.894  13.918  15.464  0.1471  0.2406 -0.2491
22130W        W41664  16.549  17.325   5.182  0.1106 -0.2412  0.1749
22131W        W41665  11.841   0.754   2.660 -0.3136 -0.0306 -0.1288
22132W        W41666  13.868   9.746  11.754  0.0760  0.1709  0.2699
22133W        W41667   1.197   3.610   1.204  0.1586  0.0786 -0.0225
22134W        W41668  13.418  17.425   1.048  0.0517 -0.0301  0.1390
22135W        W41669   3.200   4.939  14.156  0.0906  0.0415  0.2397
22136W        W41670   4.497   6.583   4.378 -0.2428 -0.0476  0.2658
22137W        W41671   0.404   6.267   2.252 -0.4020  0.1252 -0.0535
22138W        W41672   4.766   7.616  12.646 -0.2079  0.2999 -0.0336
22139W        W41673  18.132  17.861   2.586 -0.3311  0.0846  0.0366
22140W        W41674   9.219  11.253  14.728  0.2611  0.0096 -0.1284
22141W        W41675  16.324   5.794  14.799 -0.1274  0.0662  0.1118
22142W        W41676   7.954   6.496  13.346 -0.1648 -0.0637 -0.1580
22143W        W41677  11.408  17.322  11.731  0.0217  0.4293 -0.2066
22144W        W41678   8.448   7.217  12.199 -0.0743  0.2900 -0.2394
22145W        W41679   3.208   1.731  11.382 -0.0393 -0.1332  0.0495
22146W        W41680   1.507   9.538  13.082  0.1610 -0.2081 -0.1995
22147W        W41681   7.784   0.092  13.682 -0.0428 -0.0119 -0.1100
22148W        W41682  14.233   9.829  14.866 -0.0334 -0.5489  0.2166
22149W        W41683  10.904   6.625  14.261  0.0989  0.1966  0.0956
22150W        W41684   3.693  14.083  13.839  0.1356  0.0050 -0.1445
22151W        W41685   3.198   2.908  13.924 -0.1807  0.1147 -0.0800
22152W        W41686  15.292   0.938  14.382 -0.1753 -0.0865  0.0872
22153W        W41687   0.345   1.353  14.130  0.1219 -0.3215  0.1257
22154W        W41688   4.138   0.948  15.818  0.0578  0.3778 -0.1554
22155W        W41689  15.695  14.970  12.882 -0.2100  0.0528 -0.2967
22156W        W41690  17.540   4.440  15.643 -0.1102  0.1638 -0.0503
22157W        W41691  11.821  15.319  14.257  0.1247  0.0219 -0.1076
22158W        W41692   3.491   0.579  12.783 -0.1472 -0.0220  0.1479
22159W        W41693  12.922  17.256  12.061  0.1860  0.0560  0.3984
22160W        W41694   6.729   4.906  14.871 -0.0396 -0.2092 -0.0288
22161W        W41695   7.536   3.140  13.388  0.0208 -0.0745 -0.0645
22162W        W41696   9.544  13.145  13.454 -0.0732 -0.1419 -0.0578
22163W        W41697  15.328  14.205  13.123  0.2503  0.1619 -0.0674
22164W        W41698   5.929   8.794  14.970 -0.1304 -0.3559  0.2437
22165W        W41699   5.256  17.790  15.520  0.0923  0.3158 -0.2044
22166W        W41700   9.077   8.038   4.144 -0.3718  0.2345  0.1326
22167W        W41701  15.769  18.018   3.665 -0.0421  0.0671  0.1429
22168W        W41702  11.182   5.812   2.911  0.0280 -0.2610  0.3702
22169W        W41703   0.767   3.225  11.620 -0.1304  0.0284  0.1274
22170W        W41704  13.211  13.293  15.716  0.0335 -0.2068  0.1947
22171W        W41705   3.547   6.415   1.432  0.1823 -0.0964  0.1141
22172W        W41706  15.691  13.324   2.862 -0.0763 -0.6410  0.3888
22173W        W41707   7.901   6.768  11.640  0.0122 -0.1782  0.3179
22174W        W41708   7.242   3.034  13.906 -0.0309  0.1178 -0.1560
22175W        W41709   2.154   3.875  12.220 -0.0102  0.1393  0.0161
22176W        W41710  12.955   4.391  11.772  0.1865 -0.0301  0.0748
22177W        W41711  15.443  13.251  15.134 -0.3272  0.0378 -0.1053
22178W        W41712  18.136  11.570  15.560  0.1078  0.1036 -0.0296
22179W        W41713  12.933  10.161   4.583 -0.0658 -0.2034  0.0132
22180W        W41714   5.952  12.377  14.914 -0.2266 -0.2229 -0.0596
22181W        W41715  10.590   6.650   3.821  0.0169  0.1474 -0.0335
22182W        W41716   5.218  15.948   1.851 -0.0567  0.1329 -0.1891
22183W        W41717   6.894  14.959  10.848 -0.1132  0.0166  0.3620
22184W        W41718  14.558   5.800   3.706 -0.0203  0.1386  0.1367
22185W        W41719   9.019  13.360   2.553 -0.0229  0.0530 -0.1093
22186W        W41720  12.497  14.099  13.879 -0.2492  0.1494 -0.0542
22187W        W41721   6.988  14.969  12.542 -0.1085 -0.2177  0.1406
22188W        W41722   7.004   8.059  11.456 -0.1614 -0.1103  0.1269
22189W        W41723  16.537  10.843  11.201  0.2308 -0.1626  0.1145
22190W        W41724  16.468   3.981   2.384  0.0816  0.1649 -0.0770
22191W        W41725   7.227   9.875   3.869  0.1714 -0.2499  0.0375
22192W        W41726   9.006  16.686   0.389  0.0734  0.1630  0.0593
22193W        W41727   7.965  11.746  14.333 -0.0033 -0.0132  0.0870
22194W        W41728   1.942   5.836  13.309  0.0141 -0.0495  0.2245
22195W        W41729  17.325  15.081   0.061 -0.2344 -0.1864 -0.4087
22196W        W41730  14.900  15.734  13.320 -0.0544 -0.0845  0.0310
22197W        W41731  16.749  17.089  13.291 -0.1797 -0.0127  0.0197
22198W        W41732  17.368   2.013   4.716 -0.0180  0.0119  0.0246
22199W        W41733  10.500   6.546  14.717  0.0707 -0.1585 -0.0160
22200W        W41734   1.474   6.593   4.679 -0.2772 -0.3034  0.1346
22201W        W41735   5.177  11.178  15.103 -0.2294  0.3701  0.0043
22202W        W41736   8.219  11.850   1.022  0.1943  0.1579 -0.0735
22203W        W41737   4.160  10.454   1.957  0.2719  0.3045 -0.0478
22204W        W41738  15.661  17.816  12.029 -0.0956  0.0127  0.0064
22205W        W41739  17.824  10.597  12.709 -0.2616  0.2914 -0.1897
22206W        W41740   7.545   7.883  13.473 -0.2321  0.2393 -0.0440
22207W        W41741   2.182   5.482  15.398  0.0570  0.1756 -0.1685
22208W        W41742  14.322   6.010   1.996 -0.0179 -0.3331  0.1015
22209W        W41743  15.988   7.571  15.766 -0.1450  0.2622 -0.2519
22210W        W41744  16.953  17.952  13.700 -0.0427 -0.1050  0.1479
22211W        W41745   2.479   2.291  13.035 -0.4227  0.1022  0.0467
22212W        W41746  14.262   7.086  14.918  0.0697  0.0670  0.0138
22213W        W41747  10.079   2.272  11.739  0.1195 -0.2188 -0.0115
22214W        W41748   5.781  18.388  11.936  0.2855 -0.1460 -0.2016
22215W        W41749  12.248  13.769  13.672 -0.0028  0.2638  0.0018
22216W        W41750  10.389  15.866  15.115  0.0022 -0.1136  0.3527
22217W        W41751  13.486   1.472   2.169 -0.1007 -0.0909 -0.0674
22218W        W41752  16.055   0.640  13.665  0.0911  0.4422  0.2034
22219W        W41753  14.380  14.436   0.589  0.1702 -0.3856  0.0860
22220W        W41754   3.438  16.625   2.970 -0.0712 -0.1672 -0.2494
22221W        W41755  12.082  17.748  12.040  0.1913 -0.1926  0.2210
22222W        W41756   1.230   4.381  14.264  0.0153  0.0817  0.0276
22223W        W41757   8.551   7.964   0.944  0.0215 -0.5292  0.0318
22224W        W41758   3.472  16.506  12.461  0.2407  0.1014 -0.1009
22225W        W41759   0.395  11.450  12.669 -0.2399 -0.0425  0.2120
22226W        W41760   0.261   6.710   4.040  0.0617  0.1987 -0.0488
22227W        W41761   4.724   3.539   4.198  0.1186 -0.0927  0.2556
22228W        W41762  15.526   3.718  15.425  0.0155  0.0213  0.1411
22229W        W41763   3.752   9.783   4.083 -0.1700  0.3282 -0.0476
22230W        W41764   1.934  10.491   1.504 -0.0869 -0.0685 -0.1279
22231W        W41765   6.623   5.712  12.443  0.1281 -0.0722  0.2225
22232W        W41766  12.578  15.585  15.409 -0.1111 -0.0856  0.0646
22233W        W41767   9.235  13.803  14.109  0.0726  0.0215  0.1650
22234W        W41768   8.710  10.206   2.142  0.1645  0.0765  0.1954
22235W        W41769  10.961  15.891  12.037 -0.2898 -0.1400 -0.0441
22236W        W41770   3.993  10.306  15.045  0.1436 -0.1887 -0.0334
22237W        W41771  13.052   0.153   0.260  0.2000  0.2557  0.1606
22238W        W41772   7.752  11.662   2.714  0.3412  0.1150 -0.0487
22239W        W41773  17.042   1.859   2.031  0.2330 -0.2262 -0.2563
22240W        W41774   1.552   0.487   3.185 -0.2454  0.2768  0.1833
22241W        W41775  14.843   6.197  15.807  0.1084 -0.2976  0.0962
22242W        W41776  10.277   6.988  15.777 -0.0402 -0.2212 -0.1488
22243W        W41777   4.893  14.021   2.771  0.3964 -0.1009 -0.1329
22244W        W41778   2.411   4.726   0.643 -0.0501 -0.2155 -0.0555
22245W        W41779   7.627  11.605  13.929  0.1183  0.1243 -0.0397
22246W        W41780  14.779  17.894  11.693 -0.1886 -0.2079  0.1358
22247W        W41781   2.377  13.135   3.456 -0.0096 -0.0227 -0.2462
22248W        W41782   3.664   0.769   3.890 -0.0544  0.1499  0.1431
22249W        W41783  13.330   3.633   2.515  0.0184  0.0453  0.1420
22250W        W41784   6.611  16.619  13.769  0.1803 -0.2031 -0.4051
22251W        W41785   1.859   0.392   0.283  0.0433  0.0705 -0.0028
22252W        W41786   7.289  16.835   2.511 -0.0220  0.0738  0.1336
22253W        W41787  14.241   1.716   1.567  0.1835 -0.1302 -0.0864
22254W        W41788  17.115   2.854   0.591 -0.0923 -0.1540  0.2238
22255W        W41789  10.807  12.983  15.446 -0.2002 -0.0587 -0.1766
22256W        W41790   0.682  12.521  13.892 -0.2039  0.1422 -0.2746
22257W        W41791  13.125   3.089   2.602 -0.2307 -0.1787  0.0095
22258W        W41792  10.938  15.771  13.114 -0.2426 -0.0952 -0.2235
22259W        W41793   4.082   3.373  14.827 -0.2197 -0.1985  0.2336
22260W        W41794  14.946   0.095   4.544  0.0321  0.0404  0.2257
22261W        W41795  14.703   0.683   3.258 -0.1404 -0.0087 -0.1389
22262W        W41796  10.420   0.383   2.790 -0.1615  0.1721 -0.2080
22263W        W41797   8.126  12.563   2.216 -0.1433 -0.2565  0.0405
22264W        W41798  11.465  12.787   3.222  0.1269  0.1158 -0.1819
22265W        W41799   7.716   2.674  15.782  0.1952  0.3765 -0.1107
22266W        W41800  14.815   7.138  14.777 -0.0363 -0.0020 -0.2098
22267W        W41801   5.981  11.457  14.732 -0.0776  0.1603  0.2013
22268W        W41802  18.241   6.868   2.173  0.3040  0.0139  0.1411
22269W        W41803   5.341  12.077   4.065  0.0787 -0.0241 -0.1276
22270W        W41804   6.773   8.466  11.706  0.2147  0.0169 -0.0260
22271W        W41805  12.326   4.961  11.084  0.1659 -0.2271  0.0822
22272W        W41806  13.019  13.012  15.355 -0.1682 -0.0961 -0.0461
22273W        W41807   7.723   6.035   3.212  0.0279  0.1669 -0.2158
22274W        W41808   7.233   1.682   1.633  0.0110 -0.1031  0.1151
22275W        W41809  17.783   8.781  14.324 -0.1117 -0.0948 -0.2783
22276W        W41810   0.717   2.257  12.007  0.0703  0.0651  0.2364
22277W        W41811  18.374  12.613   0.966 -0.1563  0.1061 -0.2021
22278W        W41812   9.185   2.526   4.213  0.3231  0.0981  0.0568
22279W        W41813  10.405   4.794   2.341  0.1775 -0.2377  0.0554
22280W        W41814   5.044   7.024  11.355  0.1237 -0.3229  0.2317
22281W        W41815  13.952   9.296  15.837 -0.0222 -0.1426  0.0053
22282W        W41816  18.389   3.478   4.139 -0.2353  0.1073  0.2810
22283W        W41817  10.047  11.886  10.815 -0.1411 -0.1873  0.1372
22284W        W41818   2.371  16.237   3.178  0.5277 -0.1407  0.0307
22285W        W41819   9.109  14.239   0.456 -0.0654  0.1563 -0.0817
22286W        W41820   5.625  10.575  13.097 -0.0142 -0.0494  0.0843
22287W        W41821   4.435   9.116   4.004 -0.1025  0.1258  0.1314
22288W        W41822   2.153  14.259  13.443  0.0697 -0.2136 -0.1879
22289W        W41823  10.404   2.631   0.396 -0.0550  0.0963 -0.2276
22290W        W41824  18.005  14.919   2.966  0.0034  0.1231  0.2715
22291W        W41825  14.221  15.496  14.892 -0.0016 -0.0232  0.2979
22292W        W41826   2.773   7.385  13.616  0.0518  0.2195 -0.0687
22293W        W41827   3.700   1.166  13.433  0.1336  0.1844  0.0797
22294W        W41828   4.433   2.261  15.646 -0.1886 -0.0433 -0.0017
22295W        W41829   2.729   6.159  11.561 -0.0472 -0.3493 -0.1483
22296W        W41830  13.222  12.250  14.887 -0.0566 -0.2297  0.0748
22297W        W41831   6.436   6.072   0.218 -0.0164 -0.0865 -0.2265
22298W        W41832  13.904   5.327   0.340 -0.1585 -0.1414  0.1278
22299W        W41833   6.438  12.060  14.160 -0.2648  0.1561 -0.1521
22300W        W41834  11.473   5.510   3.188  0.0084  0.0788 -0.3916
22301W        W41835  16.335   6.399   1.666  0.1361  0.2014  0.1086
22302W        W41836   6.839   8.206   4.217  0.0183 -0.1768 -0.3040
22303W        W41837   3.781  12.566  14.041  0.2886  0.0254  0.3160
22304W        W41838  17.558   0.681  15.124  0.2699  0.0876 -0.1277
22305W        W41839   0.581   8.096  15.347  0.0678 -0.0042 -0.0068
22306W        W41840  14.274   0.547  15.415  0.2104  0.0983  0.2673
22307W        W41841   1.654   3.934   0.275 -0.1620  0.1941  0.0232
22308W        W41842  15.471   3.850  13.614  0.3138  0.0992 -0.2153
22309W        W41843   9.929   7.892  14.853 -0.0714  0.1671  0.1329
22310W        W41844   9.685  15.716  15.818 -0.1674  0.2619  0.0117
22311W        W41845  16.591   7.502  15.034  0.2140 -0.1187 -0.2836
22312W        W41846  13.250   3.246  13.558 -0.1902  0.1085  0.1314
22313W        W41847   2.187   9.699  15.069 -0.0316  0.0577  0.0020
22314W        W41848   7.709  14.872   0.627  0.0461  0.0048 -0.0581
22315W        W41849   4.008  14.832  12.450  0.1155  0.0467  0.3001
22316W        W41850   9.432   6.066   3.487 -0.3288  0.0175 -0.0149
22317W        W41851   4.414   3.266  15.396  0.0266  0.0524  0.2064
22318W        W41852   0.358   7.576   2.299  0.0375  0.2204  0.0577
22319W        W41853  11.239   4.576  11.272  0.1491  0.1239  0.2571
22320W        W41854  17.094  10.952  13.440 -0.0338  0.4210  0.0560
22321W        W41855  15.467  17.374  15.117 -0.2388 -0.0679  0.1278
22322W        W41856  14.376   7.932  15.176  0.2136 -0.0754  0.0759
22323W        W41857   2.948   8.768  12.939 -0.0278  0.1314 -0.0748
22324W        W41858   0.012  12.349   3.944 -0.1169  0.1932 -0.0302
22325W        W41859   8.803   7.395   3.485 -0.0112 -0.0276 -0.1499
22326W        W41860   7.967   9.312  13.749 -0.1756 -0.2421  0.0027
22327W        W41861   7.603  10.143  11.168  0.0563 -0.1350 -0.1232
22328W        W41862   4.799   3.444   3.127  0.1174 -0.2591 -0.1534
22329W        W41863   5.186   8.479  15.540 -0.1449 -0.0828  0.1934
22330W        W41864   3.975   7.653  14.382 -0.2024  0.1918 -0.0540
22331W        W41865  17.383  10.115  15.530  0.2373  0.1791  0.2130
22332W        W41866   5.119  12.277  12.877  0.2127  0.0039 -0.1477
22333W        W41867   5.080   8.531   1.909  0.1080  0.0449  0.1083
22334W        W41868   1.254   5.126  11.655 -0.1993 -0.1537 -0.1480
22335W        W41869   8.628   0.694  10.721  0.2289 -0.1121  0.0856
22336W        W41870   5.695   3.757  12.242  0.0380  0.1427  0.1825
22337W        W41871  12.534   4.490   2.636  0.1864 -0.2221  0.0605
22338W        W41872   2.283  17.009   3.843  0.2899  0.2256  0.1344
22339W        W41873  16.222   8.181   1.467 -0.0385 -0.0745  0.1640
22340W        W41874  15.259  15.539   0.624  0.0145  0.1401  0.0669
22341W        W41875  13.546  13.877  12.226  0.1783  0.1628  0.1894
22342W        W41876  12.138   7.667   2.951 -0.2434 -0.1262 -0.0193
22343W        W41877  10.240   2.935  12.552  0.0716 -0.0285 -0.2587
22344W        W41878  14.072   5.668  15.258  0.1387  0.0002 -0.2577
22345W        W41879  11.783   6.119  14.125  0.0643  0.2545 -0.1852
22346W        W41880  18.392  10.565  13.798 -0.0321  0.1740 -0.3806
22347W        W41881   6.442  12.700   4.570 -0.2415 -0.3958  0.0224
22348W        W41882  11.873  17.352  15.811  0.0793  0.0818  0.0395
22349W        W41883   1.796   2.897   4.439 -0.0671  0.0646  0.0249
22350W        W41884  12.326   5.005  14.733 -0.2286  0.2290  0.0502
22351W        W41885  17.775   0.433   5.116 -0.3715  0.3156  0.1944
22352W        W41886   3.783  12.692   0.107  0.0146  0.0628  0.0275
22353W        W41887   8.698   3.159   0.482  0.0469 -0.0022 -0.0183
22354W        W41888   9.234  15.285   1.360 -0.2187 -0.0892 -0.4375
22355W        W41889   4.132  14.460  15.707 -0.1560 -0.0609 -0.0465
22356W        W41890  16.731   3.586   1.570  0.1010  0.0088 -0.1831
22357W        W41891   0.285   6.253  11.553 -0.1316  0.2195 -0.1014
22358W        W41892   2.406  10.424   1.342  0.3388  0.4196 -0.2910
22359W        W41893  10.173  12.061   0.945 -0.0801 -0.1194 -0.2547
22360W        W41894   5.976   8.400   3.788  0.3547 -0.4197  0.0556
22361W        W41895  12.570   8.758  12.592  0.1504  0.0075  0.0615
22362W        W41896   8.024  16.387   0.427 -0.2781  0.1363  0.0355
22363W        W41897   9.411   9.897  14.950 -0.1529 -0.1382 -0.3651
22364W        W41898   7.565  13.859   3.160  0.1156  0.3169  0.1856
22365W        W41899  16.309  12.978  14.553 -0.1083  0.4332 -0.0295
22366W        W41900  17.857   7.884  10.744 -0.4084 -0.1025 -0.0037
22367W        W41901  13.426  16.839  11.913 -0.0554 -0.0497 -0.1982
22368W        W41902   0.072   2.831  11.118 -0.0435  0.0269 -0.0585
22369W        W41903  16.149  15.881   3.932  0.1039 -0.2216 -0.0847
22370W        W41904   5.797  14.221  11.227  0.0437 -0.0078  0.1743
22371W        W41905   7.991  10.319  11.458 -0.0734 -0.3575  0.0077
22372W        W41906   4.976   0.373   0.489  0.2978 -0.1024 -0.1610
22373W        W41907   0.752   6.565   1.768 -0.0235  0.2198  0.0129
22374W        W41908  16.888   6.619  14.462  0.0157  0.1757 -0.2815
22375W        W41909   1.112  13.639   2.506  0.0345  0.0313  0.2324
22376W        W41910   0.212   6.188   1.119 -0.2412  0.4475  0.1920
22377W        W41911   9.970  11.455  14.642  0.0714 -0.2233 -0.1124
22378W        W41912   1.371  14.654   4.775 -0.2574 -0.0961 -0.0412
22379W        W41913  16.792   7.984   0.431 -0.2090 -0.3009 -0.1493
22380W        W41914  15.397   9.140  12.294 -0.0857 -0.2784 -0.0106
22381W        W41915   9.030   5.987  11.585 -0.0147 -0.0062 -0.0350
22382W        W41916  17.643   4.591  11.698  0.1730 -0.0857 -0.2571
22383W        W41917   9.531  15.668   1.139  0.0497  0.2640  0.0158
22384W        W41918  11.437  13.847   4.036 -0.2182  0.1086  0.0845
22385W        W41919  14.739   3.721   1.877  0.1762  0.0263 -0.0641
22386W        W41920   9.984  18.190   4.736 -0.4580  0.3981 -0.0780
22387W        W41921  15.633  11.546   2.078  0.1179  0.0529  0.3258
22388W        W41922   8.956   1.075   0.285 -0.0171  0.1225  0.2251
22389W        W41923  13.600   0.462   3.020 -0.0928  0.1571  0.0422
22390W        W41924   4.623  15.802   3.279 -0.7501  0.0501 -0.0578
22391W        W41925   4.702  13.190   3.173 -0.2156 -0.6552  0.0297
22392W        W41926  14.098  14.209   3.942  0.1331 -0.2035 -0.2518
22393W        W41927  15.990   5.269   2.661  0.1284  0.4288  0.0047
22394W        W41928  18.268   8.690  14.065  0.1565 -0.1101  0.3042
22395W        W41929   0.208   0.371   0.662 -0.3049 -0.2406  0.1945
22396W        W41930   8.567   0.911   4.582  0.1638  0.0974 -0.1453
22397W        W41931  13.885  15.391   2.859  0.2915  0.3685  0.0721
22398W        W41932   9.130   6.312   0.560 -0.0652 -0.4065  0.0642
22399W        W41933   4.841  17.174   3.251  0.0320 -0.0891  0.3281
22400W        W41934  10.024  11.990   3.902  0.0428 -0.1101  0.0441
22401W        W41935   8.097  10.024  11.883  0.0306 -0.2559  0.1330
22402W        W41936   6.846   3.554   3.711  0.2771 -0.1807 -0.2110
22403W        W41937   2.418  12.414  15.348 -0.0019  0.1115  0.0528
22404W        W41938  15.170   5.027  12.421  0.0430  0.0061  0.0551
22405W        W41939   5.337   4.327  10.902 -0.0281 -0.3152  0.0238
22406W        W41940   7.666   8.424  14.329 -0.2758 -0.0861  0.1495
22407W        W41941   0.855   4.435   2.201 -0.3109 -0.1965  0.2764
22408W        W41942  11.673   9.180  14.391  0.1578  0.1505 -0.0484
22409W        W41943   1.664   1.359   4.941  0.1774  0.2541  0.0592
22410W        W41944   7.282  11.296   2.042  0.2128 -0.1705  0.0024
22411W        W41945   3.075   7.376  13.120  0.0095  0.2281  0.0225
22412W        W41946  13.719  10.392   1.287  0.0193  0.2566 -0.0438
22413W        W41947  10.729   8.053   1.378 -0.0657 -0.0006  0.0252
22414W        W41948   9.980  13.632  13.142 -0.1282 -0.0880 -0.2976
22415W        W41949   1.412   0.026   4.772 -0.1434  0.1098 -0.2070
22416W        W41950   0.198   1.276   2.584 -0.3501  0.1200 -0.1906
22417W        W41951   9.530   0.053  12.400  0.0915  0.0290  0.0927
22418W        W41952  10.096   2.140   0.332  0.1227 -0.1014  0.2731
22419W        W41953   2.887   0.082   0.353  0.3589  0.2987  0.1660
22420W        W41954   0.748   6.914  13.260 -0.0914 -0.2840 -0.1166
22421W        W41955   6.576   0.890  12.710 -0.1218 -0.0077 -0.4041
22422W        W41956   9.957  14.043   0.631 -0.1829 -0.1731 -0.0834
22423W        W41957   8.068   8.441   3.470  0.0596  0.0554 -0.1344
22424W        W41958  12.250  13.397   3.344 -0.2787  0.0257 -0.0573
22425W        W41959   7.455   2.575  14.643 -0.0843  0.1005 -0.0726
22426W        W41960   8.258   8.712   1.868 -0.1183 -0.0182 -0.1169
22427W        W41961  17.621  17.729   3.339 -0.0760 -0.2014  0.1279
22428W        W41962   1.863  12.390  10.909  0.0610 -0.1371  0.4832
22429W        W41963  10.750  12.869   4.583  0.3722 -0.0984  0.0842
22430W        W41964  15.557   2.596   2.240 -0.0151 -0.1941  0.2948
22431W        W41965   6.039   3.006   5.848  0.0746 -0.3848 -0.0796
22432W        W41966  14.584  18.298  12.412 -0.0899  0.2860  0.0077
22433W        W41967  15.342  15.088  12.392  0.2883 -0.0143 -0.2852
22434W        W41968   3.354  16.388   4.644  0.3075  0.1637  0.1381
22435W        W41969   6.937  11.644   0.915 -0.0801 -0.0746 -0.0353
22436W        W41970   7.742  13.908  15.416 -0.0152  0.1195  0.1171
22437W        W41971  11.518  13.148  13.300 -0.0155 -0.1140 -0.2295
22438W        W41972   8.031   0.929   2.892 -0.3196  0.0595  0.3756
22439W        W41973  17.168   0.016   3.814 -0.1297 -0.0376 -0.1283
22440W        W41974   8.418   6.674  12.418  0.2859  0.1026 -0.0614
22441W        W41975  13.579   9.366  12.031 -0.0294 -0.0325 -0.2206
22442W        W41976  14.142   7.515  15.413 -0.0331  0.0972  0.4200
22443W        W41977  11.312  10.106   1.351 -0.1318  0.0635  0.1986
22444W        W41978  12.661  15.307  12.901  0.0602 -0.3200  0.2780
22445W        W41979  10.545   9.355   1.719 -0.3930  0.4406  0.1162
22446W        W41980   2.178   1.499  14.928  0.0130 -0.3000 -0.0206
22447W        W41981  13.970   4.231  12.300 -0.0629  0.0426  0.1876
22448W        W41982  12.071   5.028   3.647 -0.4258 -0.1762 -0.1475
22449W        W41983   1.767  12.609  12.129 -0.0353  0.2325  0.3369
22450W        W41984  10.683   2.323   1.679 -0.0605 -0.0601  0.0881
22451W        W41985  16.686   8.126   2.244  0.0680  0.0855 -0.0360
22452W        W41986  18.133  10.234   3.822  0.2254 -0.2067 -0.0545
22453W        W41987   4.880  11.534   1.665 -0.1995 -0.1653 -0.2843
22454W        W41988  17.405   2.617  10.108  0.0306  0.1003  0.3308
22455W        W41989  14.608   9.738  13.699 -0.2267  0.0195  0.0418
22456W        W41990   4.023   6.733   2.628 -0.0400  0.1286  0.0541
22457W        W41991  17.326  17.895   0.993  0.0805  0.0416 -0.0528
22458W        W41992   8.046  12.356  11.599 -0.0782  0.2149  0.0509
22459W        W41993   0.016   5.197   0.080 -0.0222 -0.2165  0.2417
22460W        W41994  11.064   2.348  12.272  0.0656  0.2457  0.0065
22461W        W41995   6.632  14.572   1.438 -0.3033 -0.2838  0.0293
22462W        W41996   2.075   6.819   2.665 -0.0790 -0.1324 -0.0881
22463W        W41997  13.261   9.227   1.971  0.3109  0.2552 -0.0840
22464W        W41998  11.528  17.953  14.115 -0.2869  0.2181 -0.1411
22465W        W41999  17.306  15.224   3.555 -0.5066 -0.1016  0.0302
22466W        W42000  14.969  17.851  13.971 -0.1064  0.3178 -0.0748
22467W        W42001  15.774  14.185   1.613 -0.4049  0.0096  0.1505
22468W        W42002   2.723  14.577   2.024 -0.0921 -0.0498 -0.1452
22469W        W42003   4.628   9.097  15.185  0.3947 -0.1782 -0.2230
22470W        W42004   6.097   4.195   0.168  0.2148 -0.1893  0.0127
22471W        W42005  13.658  12.222  12.932  0.0279  0.0631  0.0316
22472W        W42006  13.125   7.867  13.391 -0.0516  0.1088 -0.0318
22473W        W42007   9.488  10.783  10.961  0.0385  0.0987 -0.1593
22474W        W42008  17.686   7.903   0.048 -0.1974  0.1038 -0.2301
22475W        W42009  15.611  14.835  13.830  0.1939 -0.1371  0.1042
22476W        W42010  16.367   4.300   1.403  0.1429 -0.0375  0.1337
22477W        W42011  14.082  15.011  12.007 -0.0155  0.3023  0.0480
22478W        W42012   6.482  13.063   1.829  0.0098 -0.3093  0.0320
22479W        W42013   0.082  16.062  12.424  0.0608 -0.1138  0.1432
22480W        W42014   2.251   6.397  15.055  0.1636  0.0429 -0.0683
22481W        W42015  15.026   5.093  11.148 -0.3912 -0.1605  0.2378
22482W        W42016   6.210   2.835  11.194 -0.0587 -0.0519 -0.0265
22483W        W42017  12.190  14.150  13.324 -0.0834 -0.1676 -0.0681
22484W        W42018   3.681   3.825   3.211 -0.1210 -0.0095 -0.0269
22485W        W42019   7.439   3.402   4.485 -0.2449 -0.1448 -0.3025
22486W        W42020  10.989   4.658  13.120  0.0250  0.1414 -0.1125
22487W        W42021   0.435   8.191  11.673  0.0056  0.0479 -0.1453
22488W        W42022  12.789   0.674   5.746  0.2227  0.0551  0.1243
22489W        W42023  16.607   7.587  15.558  0.1749 -0.1515 -0.0013
22490W        W42024   3.328   6.141  12.293 -0.2079 -0.0416  0.1140
22491W        W42025   5.874  17.388   3.771 -0.3325  0.0753  0.3218
22492W        W42026  13.736  11.564  13.953 -0.1540  0.2747 -0.1711
22493W        W42027  14.027  17.473  15.424 -0.1218 -0.0848 -0.2114
22494W        W42028   8.446   9.103  11.760  0.0073 -0.1963  0.3249
22495W        W42029  17.587  12.857   2.101  0.0701 -0.4153 -0.0477
22496W        W42030   4.856   9.430  13.148 -0.1833  0.1909 -0.1027
22497W        W42031   1.559  11.956   5.524 -0.0608  0.1719  0.0107
22498W        W42032  15.074  12.395  12.515  0.0497  0.2074 -0.0013
22499W        W42033   2.761   2.351   3.896 -0.0534 -0.1994 -0.3067
22500W        W42034  14.460  14.220  15.609 -0.1141 -0.1753  0.0075
22501W        W42035   2.625   4.274  13.866 -0.0299 -0.2055  0.1204
22502W        W42036  13.711   7.239  11.534 -0.1721  0.1553 -0.3704
22503W        W42037  11.960  11.747   1.764 -0.0721  0.0646  0.2082
22504W        W42038   9.911   0.913   4.425  0.0884  0.1038  0.0168
22505W        W42039   8.751  15.982  11.850 -0.0476 -0.3940 -0.1335
22506W        W42040   2.987  15.057  11.695  0.0347  0.5632 -0.0029
22507W        W42041   9.510   1.025  14.113  0.1337 -0.0744  0.3277
22508W        W42042  15.889   3.669  10.560  0.2049  0.1139  0.2327
22509W        W42043  14.930   9.674  14.188 -0.1191 -0.0698 -0.0031
22510W        W42044  14.245   0.627   3.074  0.0029  0.0393 -0.2467
22511W        W42045  10.859   0.043   0.840  0.3091 -0.0133 -0.0942
22512W        W42046  14.458   2.766  12.660 -0.0048 -0.0886  0.0578
22513W        W42047   1.972  10.479  14.429  0.1476  0.0033  0.0423
22514W        W42048   5.335  18.240  11.107  0.0973  0.5378 -0.0224
22515W        W42049   6.985   9.620  15.626 -0.2991 -0.3002  0.0862
22516W        W42050   0.724  15.421  11.477 -0.1911  0.2369 -0.2160
22517W        W42051   9.555   1.202   1.512 -0.0613 -0.0228 -0.1300
22518W        W42052   5.473   2.859  14.608 -0.1397  0.2201 -0.1797
22519W        W42053   2.937  17.161  15.710  0.1696 -0.1988  0.0240
22520W        W42054  11.009  17.552   5.279  0.1227 -0.3676 -0.1640
22521W        W42055  14.550   5.510  14.544  0.0413  0.3463  0.2668
22522W        W42056  11.020   2.570   1.291  0.3824 -0.0037  0.2188
22523W        W42057  13.451   9.127  15.318  0.1642  0.3347  0.0402
22524W        W42058   9.963  18.318  12.762  0.1183  0.0820  0.2139
22525W        W42059   5.292   3.545  14.280  0.2863 -0.2608  0.2504
22526W        W42060  11.423  12.685  13.140  0.1888  0.3827  0.2574
22527W        W42061  12.878   3.305  13.930  0.3477 -0.1071  0.0543
22528W        W42062  11.901   5.634  14.210  0.2470 -0.0372 -0.2168
22529W        W42063  16.601   4.102   3.384  0.0903  0.1255  0.0632
22530W        W42064  12.525   5.851  11.434 -0.1096 -0.0835 -0.1772
22531W        W42065  11.354   1.408   0.345 -0.2363  0.1081 -0.0105
22532W        W42066   2.499  17.032  15.467  0.2131  0.0156 -0.0220
22533W        W42067   3.040   1.320   3.849  0.0680 -0.0608  0.0232
22534W        W42068  15.675  16.739  13.641 -0.1435  0.0517 -0.1032
22535W        W42069   7.711  10.140   4.668  0.2093  0.2245 -0.2687
22536W        W42070   8.705   5.864  14.318  0.3319 -0.1540 -0.1738
22537W        W42071  17.279  12.735  12.558  0.2997  0.1831 -0.1908
22538W        W42072  12.769  14.687   1.958 -0.1695  0.0119  0.0787
22539W        W42073   9.035   6.115   1.051 -0.1085 -0.0609 -0.0590
22540W        W42074   6.726   7.874  11.866 -0.0822 -0.0535 -0.0752
22541W        W42075  13.515   6.374  14.712  0.1044 -0.1431 -0.0721
22542W        W42076   5.989   5.460  13.773 -0.2036 -0.0097 -0.1256
22543W        W42077   9.443  12.787   3.708 -0.0403  0.1291  0.0299
22544W        W42078  13.428   3.528  11.503 -0.1862  0.0844  0.1967
22545W        W42079   9.704   5.106  13.551 -0.1031  0.1423 -0.1745
22546W        W42080  17.443   5.246  11.083  0.0675  0.1091 -0.1764
22547W        W42081   6.474  11.277   1.409 -0.2108  0.0640  0.4176
22548W        W42082   6.311  17.888  14.321  0.0613  0.0976 -0.2121
22549W        W42083  11.456  15.458  14.555  0.0839  0.1590 -0.2828
22550W        W42084   9.845  15.034  11.517  0.3657  0.1442  0.3160
22551W        W42085  13.497   0.762  14.715 -0.0825  0.4242 -0.2483
22552W        W42086   7.828  13.850  14.151  0.0489  0.2762  0.1071
22553W        W42087  15.548  15.021   3.197 -0.2059 -0.2486  0.0593
22554W        W42088   9.496  12.061   0.138  0.1639 -0.0539 -0.0695
22555W        W42089  10.291   1.677   0.312  0.0162 -0.1978 -0.0871
22556W        W42090  16.507  15.811  13.038 -0.1521 -0.0243  0.1380
22557W        W42091  10.318   8.933   4.316 -0.1765 -0.1875 -0.0164
22558W        W42092   7.423   8.429   1.733  0.2735 -0.2320 -0.1990
22559W        W42093  13.030   3.281   1.146 -0.2135  0.0818 -0.0816
22560W        W42094   7.802   5.697   1.792  0.1977 -0.1340 -0.5045
22561W        W42095   5.662  17.894  12.030  0.0806 -0.0122 -0.0277
22562W        W42096  10.888  18.038  12.623  0.2872  0.0665 -0.1650
22563W        W42097  15.296   7.930   3.446  0.0627  0.2718  0.1184
22564W        W42098  15.036   3.749  13.164 -0.0040  0.0006 -0.0942
22565W        W42099  11.174  11.249   1.856 -0.3700  0.3072  0.1072
22566W        W42100  18.340  13.823   5.053 -0.0590  0.2285  0.2302
22567W        W42101   5.701  12.938   0.501 -0.0377 -0.2604 -0.0091
22568W        W42102  14.665   0.247  15.133 -0.0031 -0.1488  0.0522
22569W        W42103  15.011   7.557  14.485  0.0533  0.3630 -0.1303
22570W        W42104   2.097   3.005  12.217 -0.1249  0.0798  0.1831
22571W        W42105  14.291   6.863   4.407 -0.0579  0.2012  0.3334
22572W        W42106   0.855   4.155  11.441 -0.3170 -0.0429 -0.1453
22573W        W42107   8.117  17.766  11.419  0.1623  0.0981 -0.0270
22574W        W42108  16.785   3.129  14.328  0.1558 -0.2111 -0.0843
22575W        W42109   4.096   5.716   3.531  0.1328  0.1123 -0.1302
22576W        W42110   1.693  15.682   2.628 -0.1119 -0.1317  0.0411
22577W        W42111   9.887   1.156  13.263 -0.1640  0.0560 -0.2598
22578W        W42112   7.468   2.157  15.378 -0.2254 -0.2753 -0.3785
22579W        W42113   8.639  11.541   2.494 -0.2552  0.1618  0.1044
22580W        W42114  17.785   1.883  13.531 -0.1230  0.2204  0.0441
22581W        W42115   4.817   3.769  12.197 -0.0582 -0.2440  0.0986
22582W        W42116   9.627  12.483   2.122  0.0665 -0.1777 -0.1444
22583W        W42117  15.608  10.816  12.870  0.1377 -0.0618  0.0517
22584W        W42118  11.818   9.347   3.356  0.1148  0.1220 -0.1058
22585W        W42119  11.393   8.633   2.309  0.0596 -0.0025 -0.0160
22586W        W42120   7.525  13.937   4.441 -0.3083  0.3932 -0.1827
22587W        W42121   5.599   4.253  12.269  0.0446 -0.1113  0.1829
22588W        W42122   1.094   6.824  13.595  0.3286 -0.1695 -0.1021
22589W        W42123  11.068   3.324   1.465 -0.2247 -0.2149  0.1399
22590W        W42124   3.722   2.614  13.144 -0.1603 -0.0879 -0.2539
22591W        W42125  13.024   0.869   0.290  0.0501 -0.1978  0.0118
22592W        W42126   9.425  18.016   2.043 -0.0407  0.2052 -0.0391
22593W        W42127  11.800  17.598   2.202  0.0364  0.0560  0.1780
22594W        W42128  13.426  13.525   3.081  0.0790 -0.2281  0.0336
22595W        W42129   1.608  10.391  15.663  0.2692 -0.0108  0.0577
22596W        W42130   1.200  15.576   2.882  0.1465 -0.1127  0.1263
22597W        W42131  12.494   6.507   0.490  0.2187 -0.1355  0.0396
22598W        W42132   1.443   2.854  11.659 -0.2054 -0.0630  0.0772
22599W        W42133   4.548   2.341  13.599  0.0650 -0.2266 -0.1002
22600W        W42134   2.694  15.146   1.895 -0.1229 -0.0532 -0.0274
22601W        W42135   2.921  10.462   1.948 -0.1293 -0.1504 -0.1765
22602W        W42136   8.024   6.081  14.979  0.1201  0.0797  0.0986
22603W        W42137   8.254  17.001   4.018 -0.0329 -0.3177  0.1738
22604W        W42138   9.156  10.390   2.894  0.1566  0.0042 -0.2231
22605W        W42139   2.234  11.942  13.101  0.0898 -0.1506  0.2273
22606W        W42140   7.908   0.757   0.609 -0.3971 -0.0875  0.0990
22607W        W42141  10.230  18.382   0.777 -0.1026  0.0524 -0.1138
22608W        W42142   0.590   7.632  13.433 -0.2915 -0.0549  0.1051
22609W        W42143  16.480  17.051   4.815 -0.1027  0.4486  0.1619
22610W        W42144   2.427  11.704  11.715 -0.0008  0.0602 -0.0787
22611W        W42145   0.466  16.462   4.574  0.2554  0.1282 -0.4151
22612W        W42146  10.655   8.247  14.000 -0.0752  0.0926 -0.5908
22613W        W42147   4.956  12.680   0.782  0.1505  0.0387 -0.3606
22614W        W42148   3.511  13.767   4.897 -0.1103  0.0698 -0.2958
22615W        W42149   7.701   5.823   4.242  0.4301  0.2619  0.1572
22616W        W42150  10.535   2.011   2.260  0.2133 -0.0195  0.2255
22617W        W42151  15.528  14.944   4.083  0.2253 -0.0360 -0.1594
22618W        W42152   2.042  17.093   3.358  0.1830  0.1118  0.0566
22619W        W42153  13.928  11.546   2.077  0.4263  0.0640  0.0522
22620W        W42154   0.923  17.508   0.349 -0.3173 -0.1784  0.0907
22621W        W42155  10.081  17.614   3.691  0.2279  0.1967 -0.1434
22622W        W42156  11.964  13.774   0.729  0.1443 -0.1692 -0.3012
22623W        W42157  12.702   4.519  14.099  0.0963 -0.0334 -0.1024
22624W        W42158  18.086   3.506   0.002  0.1428 -0.1103  0.0020
22625W        W42159   9.534   0.457   2.594 -0.2334 -0.0729  0.1840
22626W        W42160  14.355   2.073   1.917  0.1749  0.1250  0.0548
22627W        W42161   8.978   9.683  12.284 -0.1888  0.0868  0.2014
22628W        W42162   7.974  14.004   2.896  0.1272 -0.0492  0.2453
22629W        W42163   2.127   4.825   3.200 -0.5043 -0.1783  0.1768
22630W        W42164  13.495  15.653  13.735  0.1852 -0.0165 -0.0483
22631W        W42165   1.965  13.464   3.746 -0.1584  0.1138 -0.2273
22632W        W42166  16.129   9.911   4.058 -0.0243  0.3022 -0.3509
22633W        W42167   1.256  11.583  11.063  0.1218 -0.0855 -0.2719
22634W        W42168   9.447   6.251  15.624 -0.0210  0.1337  0.5816
22635W        W42169  11.518   5.213  14.993 -0.0694  0.2270 -0.0979
22636W        W42170   7.903  16.580  15.762  0.0708 -0.0194 -0.1026
22637W        W42171  10.977   0.445   4.107  0.1142  0.1883  0.3489
22638W        W42172  14.482  11.252  12.728  0.1778 -0.2274  0.1100
22639W        W42173  15.635   7.604  14.683 -0.1029 -0.0282 -0.0763
22640W        W42174  16.141  14.639   5.385  0.3735  0.1179 -0.1638
22641W        W42175  11.224   4.388   1.269 -0.0723  0.0564  0.0288
22642W        W42176  11.844  17.529   1.181  0.2687 -0.1113  0.2226
22643W        W42177   2.401   0.183   1.126  0.1313 -0.2973  0.2012
22644W        W42178   9.181  12.557  11.771 -0.0268 -0.0215  0.0153
22645W        W42179   4.808   7.134  14.466 -0.0568 -0.1548  0.1186
22646W        W42180   0.112  12.364   1.424 -0.1192 -0.1675  0.3336
22647W        W42181   6.682   4.889   3.241  0.0439  0.2759  0.0066
22648W        W42182   3.816   9.508  12.690  0.1223 -0.1096 -0.0662
22649W        W42183  14.067  11.625   3.006  0.1298 -0.2003  0.2595
22650W        W42184  16.912   6.142  14.222 -0.2472  0.3140  0.2609
22651W        W42185  11.197   0.221  14.580 -0.0338  0.0379  0.1133
22652W        W42186   9.216   5.221  13.286  0.0658 -0.1580  0.2941
22653W        W42187   7.016   3.350   4.220  0.0789 -0.0933 -0.1216
22654W        W42188  16.234   5.457   5.205  0.1087 -0.1147  0.1201
22655W        W42189   9.301   6.499  12.373  0.1959 -0.0991  0.0373
22656W        W42190   0.645   7.090  15.184 -0.0380 -0.0985 -0.1279
22657W        W42191  13.197  10.133  11.281 -0.0894 -0.1064 -0.1252
22658W        W42192  12.714   0.506   0.385 -0.1019 -0.2547  0.0306
22659W        W42193  14.245  14.029  13.341 -0.2064 -0.2887 -0.0231
22660W        W42194   9.051  14.845   4.535 -0.3124  0.1370 -0.3853
22661W        W42195  12.467  12.978  14.614 -0.1137  0.0030 -0.0710
22662W        W42196  17.017   8.442  14.896 -0.1844  0.2706  0.0193
22663W        W42197   9.935   8.682   1.415 -0.1018  0.3675 -0.0640
22664W        W42198   7.507   2.426  12.260 -0.1367  0.1298 -0.2138
22665W        W42199   8.970   3.911  13.074 -0.3378 -0.3153 -0.0766
22666W        W42200   3.211   2.528  12.349 -0.1251 -0.0415  0.3345
22667W        W42201  16.780   0.464  15.114  0.1623 -0.3886  0.3285
22668W        W42202  15.989   3.755  11.867 -0.1541  0.1993 -0.5409
22669W        W42203  16.847   2.654   0.980  0.0579  0.1106  0.0148
22670W        W42204  11.513   6.219   3.951 -0.0183 -0.1805  0.0805
22671W        W42205  14.782   6.484   3.621 -0.0401 -0.0175  0.1344
22672W        W42206  10.390   5.864  14.059  0.0708 -0.2077 -0.0801
22673W        W42207  14.465  14.755  15.483  0.2756  0.0116 -0.0177
22674W        W42208  13.477  14.692  12.341  0.0194 -0.1141 -0.2556
22675W        W42209  13.787   9.548   0.574  0.4395 -0.0677 -0.0191
22676W        W42210  14.858   8.981  11.646 -0.1423 -0.2649  0.1058
22677W        W42211   9.587  17.343   4.557 -0.1336  0.2901  0.0619
22678W        W42212   3.155  14.769   3.291 -0.0309  0.2283 -0.0328
22679W        W42213  11.320   4.041  11.985 -0.1792  0.0356  0.1752
22680W        W42214  12.158   4.528  11.685 -0.0813 -0.1425  0.0134
22681W        W42215   1.607  13.142   0.890  0.2714 -0.0684 -0.1988
22682W        W42216  14.203   6.521   1.293 -0.0493  0.0126 -0.1136
22683W        W42217   2.045  17.877  15.036  0.2617 -0.0229 -0.1893
22684W        W42218  18.322   2.465  11.427 -0.1129  0.1786 -0.0326
22685W        W42219  14.277   7.648   0.711 -0.0352  0.1777  0.1131
22686W        W42220  11.540  11.973   3.895 -0.0237 -0.2302  0.1109
22687W        W42221   4.736  17.641   4.050  0.1794  0.1538 -0.2994
22688W        W42222  17.098  17.527   0.060 -0.2809  0.0586 -0.2893
22689W        W42223  12.540  17.482   3.085 -0.3300  0.1587  0.2517
22690W        W42224  10.671   1.935   4.043  0.1149 -0.3939 -0.0420
22691W        W42225   9.672   6.624   1.427 -0.2032  0.2789 -0.0677
22692W        W42226  17.257  11.998   0.731  0.0076  0.1150  0.2123
22693W        W42227   0.794  18.328  14.681 -0.0511 -0.2020  0.2623
22694W        W42228   6.268  16.853  13.988 -0.0442  0.1243 -0.1304
22695W        W42229  10.317  11.860   4.300  0.0717  0.0057  0.2346
22696W        W42230   9.717   6.642   4.200 -0.0499  0.3122  0.0708
22697W        W42231  18.013  15.380   3.648  0.0548  0.2905  0.0314
22698W        W42232   2.185  11.901  15.234  0.0486  0.2264  0.1117
22699W        W42233   3.692   6.247  11.770 -0.1993 -0.0215  0.1922
22700W        W42234   7.300  15.214   0.476  0.2264 -0.0283 -0.2320
22701W        W42235  14.231  12.408   2.737  0.0551  0.0473 -0.3981
22702W        W42236   9.509   3.808  11.702 -0.0861  0.2193  0.0534
22703W        W42237  13.245  14.303  13.400 -0.1151  0.1289 -0.2689
22704W        W42238   5.208   8.482   0.725 -0.1000  0.2024  0.1055
22705W        W42239   9.868  12.895  11.141  0.2086 -0.2105 -0.0313
22706W        W42240  17.174   4.631  12.486  0.1346  0.1226  0.3302
22707W        W42241   0.908   0.140  11.808 -0.0339  0.0146  0.0377
22708W        W42242  10.704  12.008  14.363 -0.0022 -0.2236  0.3658
22709W        W42243  11.175   8.547   3.202 -0.3826 -0.1279  0.3409
22710W        W42244  10.475   1.105   1.770 -0.1123  0.0864 -0.2010
22711W        W42245   3.694  11.775   2.103  0.1092 -0.0955 -0.2496
22712W        W42246   9.212  17.876   3.741 -0.2795  0.2951  0.1614
22713W        W42247  15.807   2.023  12.210  0.2951 -0.0635  0.1787
22714W        W42248   4.125  16.236  12.133  0.2171 -0.0407 -0.1803
22715W        W42249  11.953   7.811  10.593 -0.1267 -0.2640  0.1576
22716W        W42250  17.262   5.702   0.496  0.0843 -0.1759  0.0382
22717W        W42251   6.773  16.160   2.099  0.0781  0.1275  0.0758
22718W        W42252   8.856  13.441  14.052  0.1672  0.1909 -0.4308
22719W        W42253   2.735  12.209   3.274  0.1222 -0.1888 -0.0041
22720W        W42254   1.506  10.686   1.762 -0.0943  0.2080  0.4862
22721W        W42255  12.849   0.977   4.651  0.2865 -0.2034  0.0939
22722W        W42256   9.021  10.153  12.098 -0.1405  0.0082  0.0347
22723W        W42257   2.014  17.383  15.428 -0.1848  0.0203 -0.0185
22724W        W42258   4.744   8.678  11.663  0.1579  0.1045 -0.0844
22725W        W42259  11.295   6.888   4.451 -0.1632 -0.1188  0.5118
22726W        W42260  15.021   0.450  14.208 -0.0037  0.1461 -0.1831
22727W        W42261   3.269   3.639   3.077  0.2269 -0.0033  0.3992
22728W        W42262   9.770   3.320   2.728 -0.0942  0.0746 -0.5450
22729W        W42263  17.320  10.357  12.985  0.1197 -0.1222  0.1255
22730W        W42264   5.374   3.162   2.785 -0.0162  0.4162  0.1313
22731W        W42265   0.203   7.209  14.223 -0.2718  0.0770 -0.0674
22732W        W42266   8.639   1.517  15.008 -0.1396 -0.1028  0.0487
22733W        W42267   9.992  13.337  11.399  0.2182  0.2457  0.2053
22734W        W42268   3.584  12.095   1.344 -0.3540  0.1553 -0.1569
22735W        W42269  13.268   2.390   1.152  0.1509  0.2102  0.0517
22736W        W42270   1.877   0.908   2.045  0.2331 -0.3148 -0.1066
22737W        W42271   7.863  13.095  14.083  0.2561 -0.3406 -0.2245
22738W        W42272   4.932  16.720  15.770  0.0587 -0.3129 -0.0661
22739W        W42273  11.314   0.470  15.021  0.2283  0.0007  0.2935
22740W        W42274   8.271  14.867  13.899  0.1894 -0.0195  0.1842
22741W        W42275   2.236   3.041  11.719  0.2405  0.0705 -0.2745
22742W        W42276   0.445  16.259   3.588  0.0064 -0.1566 -0.0107
22743W        W42277   3.639  11.458   0.577  0.0308  0.2296  0.1763
22744W        W42278  17.892  13.783  12.969 -0.0244  0.0944  0.1191
22745W        W42279  13.760   6.114   2.778  0.2079  0.1044  0.0743
22746W        W42280  10.064   9.837  11.474 -0.3749 -0.0250  0.0697
22747W        W42281  11.738  15.048   0.497  0.0145 -0.3144  0.1048
22748W        W42282   0.799  11.591   3.369 -0.1326 -0.3124 -0.1671
22749W        W42283   9.116  16.583  14.953 -0.2427 -0.1101  0.1379
22750W        W42284   6.010  14.555   2.314 -0.1404 -0.0308 -0.4540
22751W        W42285  17.482   9.170   2.278 -0.1367 -0.2967 -0.1151
22752W        W42286   4.761  14.198  15.536 -0.0300 -0.0697  0.1626
22753W        W42287   1.726   1.653   4.580 -0.0532  0.2882  0.0690
22754W        W42288   0.931  15.218   2.524 -0.1626  0.0808  0.1142
22755W        W42289   5.818   9.377  11.514 -0.2154 -0.2094 -0.1405
22756W        W42290  16.435   8.845   1.859 -0.1611 -0.0286 -0.1003
22757W        W42291   9.749  13.965   1.742  0.0903 -0.1663 -0.4570
22758W        W42292   0.084  17.785  13.342  0.1325  0.1124  0.0236
22759W        W42293  10.576   3.758   2.249 -0.1888  0.0351 -0.3444
22760W        W42294  11.297   1.382   2.317  0.2658 -0.2244 -0.1945
22761W        W42295   1.860  13.768   0.185 -0.2597  0.2456  0.0479
22762W        W42296   6.567   6.215  15.318 -0.0986  0.4123  0.0884
22763W        W42297   3.706  17.292  15.499 -0.1249  0.1162 -0.0316
22764W        W42298  15.857   5.471   3.586  0.0994  0.3129 -0.0392
22765W        W42299  15.664  16.874  12.067  0.0090 -0.1658 -0.2422
22766W        W42300   7.949   6.895  14.256  0.0513  0.1200  0.0572
22767W        W42301  12.566   0.819   0.748  0.1048 -0.0767  0.0675
22768W        W42302  12.541   1.981   1.036 -0.1409  0.1757 -0.2592
22769W        W42303  12.797  11.400   1.282 -0.2083  0.0762  0.3174
22770W        W42304  10.902   0.708   4.632  0.0056  0.1203  0.1804
22771W        W42305  16.935   4.075   1.429 -0.0907  0.0993 -0.0153
22772W        W42306   1.708   9.089   0.527  0.1374 -0.0466 -0.0044
22773W        W42307  12.656  13.278   3.137 -0.1444 -0.1132  0.3397
22774W        W42308   3.333   0.243   2.327 -0.0767  0.1028  0.0002
22775W        W42309  11.960   7.121  14.899  0.1385 -0.0758  0.3524
22776W        W42310   4.032   0.757   2.623 -0.1979  0.1104 -0.1865
22777W        W42311  15.641  16.718  15.319 -0.2168 -0.1538  0.1171
22778W        W42312   3.951   4.190  10.746 -0.1365  0.0604  0.0677
22779W        W42313  13.421  14.975   4.649  0.1625 -0.2287 -0.2386
22780W        W42314  14.541  13.421   2.359  0.0272  0.1036  0.0108
22781W        W42315  12.535   9.580  11.368  0.0662  0.0440  0.1631
22782W        W42316   8.331  14.708   1.207 -0.3035  0.1384  0.0070
22783W        W42317  14.378  16.243  10.519 -0.2223  0.0412 -0.1240
22784W        W42318  14.904   6.266  14.476 -0.1028 -0.1114  0.3196
22785W        W42319   5.014  16.633   1.253 -0.0597  0.0561 -0.2944
22786W        W42320  12.082   3.466   2.043 -0.0143  0.0895 -0.1353
22787W        W42321  17.142   4.461  10.161 -0.2379 -0.1496  0.2065
22788W        W42322   6.188  16.714   0.276  0.3870  0.0261  0.2274
22789W        W42323   6.020  13.021  12.116 -0.0419  0.2405  0.1343
22790W        W42324   3.436   4.270  13.581 -0.0425  0.2293  0.1237
22791W        W42325   7.673   2.404   0.545 -0.0699 -0.2110 -0.0861
22792W        W42326  16.122   5.347   4.055 -0.0149  0.0959  0.1675
22793W        W42327  18.264  14.177   3.758 -0.0093 -0.1663 -0.0486
22794W        W42328   9.778   7.183  13.691  0.0755 -0.0048  0.0931
22795W        W42329  15.811   4.831   0.409  0.2621  0.0825  0.1097
22796W        W42330   5.290  14.983  13.389  0.0026 -0.1832  0.2914
22797W        W42331   5.005   9.678  15.821  0.1880  0.0255  0.0451
22798W        W42332  13.600   9.912  14.047  0.0135 -0.3368 -0.0658
22799W        W42333  17.922  16.869   1.967  0.3332 -0.1029 -0.0208
22800W        W42334   1.497   8.684   1.577 -0.0431  0.2009 -0.2042
22801W        W42335  14.770   6.113  13.618 -0.0861  0.0789 -0.1697
22802W        W42336  10.500   3.843  13.065  0.2794 -0.3008  0.1166
22803W        W42337  18.395  10.810  14.275 -0.1999 -0.1364  0.0751
22804W        W42338   2.000   2.096  14.765  0.0490 -0.6305 -0.1802
22805W        W42339  17.594  10.939  15.482  0.2227  0.2633  0.1170
22806W        W42340   0.533   5.351  11.258  0.3353 -0.0066  0.0336
22807W        W42341   6.428   4.425   4.208 -0.1543 -0.1375 -0.1939
22808W        W42342  15.649  15.084  10.225 -0.2526 -0.2547 -0.0527
22809W        W42343   0.728   5.628  13.073  0.3370 -0.0055 -0.0355
22810W        W42344  10.587  10.877   4.074 -0.2356 -0.3498  0.0907
22811W        W42345   6.229  10.353   2.201 -0.1159  0.1404  0.1319
22812W        W42346   4.358   5.512   0.042 -0.2313  0.1384  0.1180
22813W        W42347   9.719   9.930   0.045  0.0639  0.2275  0.2278
22814W        W42348   8.836  14.567   0.222  0.2163 -0.2513 -0.1905
22815W        W42349  16.645   7.244   2.217 -0.1772  0.0034 -0.0108
22816W        W42350   1.653  11.586   0.668  0.2104 -0.3528  0.1793
22817W        W42351  15.493  16.677  11.300  0.0945  0.0687  0.0388
22818W        W42352   7.804  12.835   1.308  0.2364  0.2768 -0.1405
22819W        W42353  15.861   9.384   2.530 -0.3379  0.1614 -0.3021
22820W        W42354  16.353  10.624   1.174 -0.4453 -0.0410  0.2831
22821W        W42355   6.701  16.178  10.991 -0.1617  0.0265 -0.0748
22822W        W42356   2.293   1.160  13.063  0.0681 -0.0786 -0.5028
22823W        W42357  16.184  17.606  15.465  0.0806 -0.2610 -0.1116
22824W        W42358   4.962  15.259  12.185  0.0994 -0.0680 -0.0331
22825W        W42359  15.824  17.670  13.537 -0.1250 -0.1047  0.1458
22826W        W42360   9.868  15.792   3.156 -0.4871 -0.3909  0.4454
22827W        W42361   0.947   8.331   0.239  0.1120 -0.0651  0.1687
22828W        W42362  13.911  11.869  11.366  0.4422  0.0439  0.2080
22829W        W42363  14.065   3.990  15.460  0.0365 -0.2301 -0.0595
22830W        W42364  16.342   4.975   0.056 -0.2980  0.0107 -0.4096
22831W        W42365  18.257  15.478   1.072 -0.0250 -0.2002  0.2884
22832W        W42366   4.257  13.397   0.145  0.2787  0.1733 -0.1654
22833W        W42367  18.373   9.431   3.271 -0.1378  0.2158 -0.4622
22834W        W42368  10.646  14.988   3.015  0.3184 -0.1335 -0.0814
22835W        W42369   6.405  11.372   2.742  0.0904 -0.0975 -0.2381
22836W        W42370   8.936   9.574  14.712 -0.1184 -0.0157 -0.2479
22837W        W42371  14.953  14.659   4.058  0.1409 -0.0891  0.1487
22838W        W42372   4.246   9.409  12.084 -0.2868 -0.0324 -0.4281
22839W        W42373   4.760  14.682   1.036 -0.1267  0.1575 -0.2615
22840W        W42374   0.469  16.040   2.071  0.4661 -0.1471 -0.0825
22841W        W42375  17.225  11.672   4.502 -0.0904  0.1182 -0.2188
22842W        W42376  11.926   7.766   1.553  0.0075 -0.0941  0.2377
22843W        W42377   5.727   0.021   0.291 -0.0486  0.2690  0.3345
22844W        W42378   8.201   4.917   1.054  0.0002 -0.2206 -0.0891
22845W        W42379  13.341  10.585  12.231 -0.0314  0.1715  0.0119
22846W        W42380  10.063   6.605   0.433 -0.0449  0.1559 -0.1412
22847W        W42381  16.508  13.440   1.613  0.0630 -0.1609 -0.1729
22848W        W42382  10.950   1.925   4.503  0.1176  0.6123 -0.1136
22849W        W42383   1.530   4.167  15.672 -0.2545 -0.1237  0.3148
22850W        W42384   5.938   4.811  14.427  0.0702 -0.0120  0.0980
22851W        W42385  16.902   7.293   3.881  0.2431  0.2862 -0.2467
22852W        W42386   2.979  10.396   2.943 -0.1379 -0.0449 -0.1278
22853W        W42387  16.588   1.394  14.014  0.0663 -0.0918  0.1183
22854W        W42388   9.503   3.647   2.300 -0.0122  0.2482  0.3248
22855W        W42389  12.767  15.276   4.237 -0.1576  0.2511 -0.1000
22856W        W42390  10.051   9.430  12.333  0.2930 -0.0439  0.0255
22857W        W42391   9.475  16.637  13.624  0.2030  0.2379  0.1621
22858W        W42392  15.127   6.840   2.653 -0.1160  0.1612 -0.0450
22859W        W42393   1.002   4.684  15.195  0.1760  0.2463 -0.0865
22860W        W42394  15.304   2.934   1.902 -0.0836  0.0875  0.1162
22861W        W42395   9.077  15.949  14.064 -0.1549 -0.4238 -0.0202
22862W        W42396  12.089   4.293   0.520  0.0080  0.0773  0.2141
22863W        W42397  16.697   1.388   0.480 -0.0168  0.0981 -0.2540
22864W        W42398  17.976   1.911   4.035 -0.2371  0.0889 -0.3271
22865W        W42399   0.266   9.489  13.808  0.3020 -0.0006 -0.0630
22866W        W42400   4.317   4.829   0.595 -0.0418 -0.1419  0.0805
22867W        W42401   5.933   0.917  14.502  0.0199  0.2866  0.4200
22868W        W42402   4.454   6.532   2.855 -0.0031 -0.1011 -0.2293
22869W        W42403   5.110  14.740   0.664 -0.1252  0.1430  0.0315
22870W        W42404  10.216  14.526  13.302 -0.0968 -0.1840 -0.0624
22871W        W42405  16.531  10.034  10.297 -0.1805 -0.0626 -0.0950
22872W        W42406   3.177   9.272  11.424 -0.0266  0.0895 -0.0031
22873W        W42407   5.012   3.500   2.624  0.1465  0.1549  0.1125
22874W        W42408   4.826  17.341   1.596  0.3065 -0.0617  0.0054
22875W        W42409  16.126   4.714  12.181 -0.1740  0.1700 -0.0361
22876W        W42410   7.088  15.191  12.978 -0.3224  0.2091  0.1119
22877W        W42411  10.048   2.257   1.246  0.2664 -0.0254 -0.1921
22878W        W42412  11.133  16.261  12.453 -0.1052  0.2337  0.2145
22879W        W42413   4.565   7.492   4.318  0.2552 -0.1766 -0.0410
22880W        W42414  17.046   9.377   1.533 -0.3805  0.0168  0.1416
22881W        W42415   0.144  14.908  12.923  0.0129 -0.1110 -0.2795
22882W        W42416  16.256   1.043  14.704  0.0951 -0.1008  0.2015
22883W        W42417  17.211   4.461   0.776  0.0166 -0.3055  0.2512
22884W        W42418   1.667  10.909   1.334  0.2029  0.0422 -0.1095
22885W        W42419  10.160   7.180   2.493  0.0751 -0.1672 -0.1143
22886W        W42420   6.129   4.142   2.059  0.1097 -0.0858 -0.2760
22887W        W42421  13.269  17.696   2.440 -0.1448  0.1839  0.1544
22888W        W42422  13.494  10.748   0.960 -0.0320  0.1818 -0.1691
22889W        W42423   4.114  13.216  13.081 -0.1276  0.1586 -0.1277
22890W        W42424  11.021  10.802  13.288  0.1490  0.2847  0.1326
22891W        W42425  16.628   0.756  11.858  0.1039  0.0365 -0.2356
22892W        W42426   8.745   3.057   1.376  0.1124 -0.0190 -0.1492
22893W        W42427  14.671  15.034   2.572  0.1811  0.0735 -0.3510
22894W        W42428  16.004  14.614  14.129 -0.3759 -0.1758  0.3270
22895W        W42429   9.479   1.998  13.459 -0.0933 -0.1211 -0.0846
22896W        W42430   4.307  10.733  11.096  0.1109  0.0291  0.4009
22897W        W42431  13.668  10.909  13.111 -0.1163  0.0813 -0.1207
22898W        W42432  14.541   8.493   2.380 -0.0658 -0.3050  0.3566
22899W        W42433   2.075  10.722  11.308  0.0572 -0.0487  0.1729
22900W        W42434   8.392  14.713   2.653  0.1069  0.2654 -0.0070
22901W        W42435   2.978   4.158  15.345 -0.0486 -0.2222  0.3235
22902W        W42436   0.697  11.134  15.553  0.1754  0.2568 -0.1923
22903W        W42437   3.683  17.055  14.937 -0.0483 -0.1474  0.3552
22904W        W42438  18.290   6.944   0.457  0.2736  0.0332 -0.0184
22905W        W42439  16.608  17.391  12.150  0.1374 -0.0044 -0.0873
22906W        W42440  11.749  13.744   5.430 -0.4976 -0.1890 -0.0519
22907W        W42441   9.460   3.900   3.568 -0.0230 -0.2367 -0.2735
22908W        W42442  15.756   7.645  13.788 -0.0111  0.1317  0.0547
22909W        W42443  14.869   7.740  15.418  0.0303  0.0144 -0.3452
22910W        W42444   1.440   7.688  15.284  0.1807 -0.0942 -0.0602
22911W        W42445  10.525   3.581   5.083 -0.1790 -0.1492 -0.1506
22912W        W42446  17.516  12.060   4.316  0.0695 -0.0422 -0.0922
22913W        W42447  13.542   6.484  11.514 -0.3806  0.3552 -0.0912
22914W        W42448  11.297   7.447   0.301 -0.4482  0.3598  0.1712
22915W        W42449   2.176   1.673  15.417  0.0989 -0.2137 -0.4736
22916W        W42450   7.427   1.373   3.532  0.1516  0.2704 -0.0671
22917W        W42451   4.591   1.054   2.578 -0.3445 -0.1510  0.0846
22918W        W42452  10.429   5.610  12.980 -0.0934  0.0656 -0.0015
22919W        W42453   4.558   1.607   0.154 -0.0814 -0.0043  0.0483
22920W        W42454   3.074  12.855  14.802  0.0474  0.0200 -0.1948
22921W        W42455   8.073  14.519   2.998  0.1196 -0.0207  0.0542
22922W        W42456   3.093   4.872   4.195  0.1464  0.3514  0.1544
22923W        W42457   3.941  11.298   3.844  0.1384 -0.2171 -0.0358
22924W        W42458  18.173   5.479  11.741 -0.0160  0.1354 -0.2747
22925W        W42459   4.552   0.857   4.054 -0.0153  0.1069 -0.0509
22926W        W42460   2.783   4.473   4.110 -0.0908 -0.0800 -0.0384
22927W        W42461   2.579   1.550   3.615  0.1938  0.0767 -0.2363
22928W        W42462   0.886  13.349  14.249 -0.1528 -0.2494  0.3204
22929W        W42463   0.669  17.692   3.909 -0.0242  0.3174 -0.4620
22930W        W42464  13.655  15.945   3.733 -0.2180  0.5809  0.1271
22931W        W42465  16.322  16.346   3.951  0.0567 -0.0905 -0.0842
22932W        W42466  11.119  16.583   0.120  0.0169  0.0711  0.2127
22933W        W42467   0.647  11.625   0.932 -0.0032  0.1223  0.0320
22934W        W42468   2.395  12.569   1.140  0.0544 -0.1402  0.1539
22935W        W42469  15.183  13.651   0.509 -0.1053  0.0568 -0.2159
22936W        W42470   4.303   6.255  12.556 -0.2388  0.1155 -0.0496
22937W        W42471   9.413  11.700  12.984 -0.1504  0.1389 -0.0203
22938W        W42472  13.388  10.826  12.718  0.0636 -0.0969 -0.0887
22939W        W42473   9.237  10.620   5.246 -0.0686 -0.0281  0.1196
22940W        W42474  15.860   1.281   2.213  0.0458 -0.1504 -0.2827
22941W        W42475   8.542   7.219  14.643 -0.5014 -0.3192 -0.2501
22942W        W42476   3.908   3.847  12.289  0.1163  0.1523  0.0274
22943W        W42477  10.217   6.540   4.118 -0.1153  0.1303 -0.0075
22944W        W42478   0.801  11.225  14.267 -0.0466  0.0198 -0.1589
22945W        W42479   5.144   9.136  12.373  0.3746 -0.0131  0.0612
22946W        W42480   3.976   0.607  12.763  0.0161 -0.1504  0.0641
22947W        W42481   9.632   3.458   1.206  0.0940 -0.0807  0.2507
22948W        W42482  14.269   7.020  15.419 -0.0388  0.1273 -0.1132
22949W        W42483   1.929  11.630   2.628  0.1304  0.1733 -0.1052
22950W        W42484  15.331  16.560   1.644 -0.1250  0.0964  0.0821
22951W        W42485   0.504  17.246   0.604 -0.2715  0.2923  0.1319
22952W        W42486   2.964  16.116   0.602  0.3368  0.3366 -0.1304
22953W        W42487   0.690  14.387   3.646 -0.0726 -0.1478  0.3560
22954W        W42488  15.947  15.292  12.590  0.0642 -0.2201 -0.1304
22955W        W42489  15.960   8.831   0.226  0.2072 -0.1696 -0.2723
22956W        W42490   5.559   8.209   3.574 -0.0001 -0.1411  0.0215
22957W        W42491   5.904   8.031   1.811  0.0375 -0.1715  0.1540
22958W        W42492   8.871   8.404  13.764 -0.0733  0.3101 -0.0123
22959W        W42493   5.840   7.107   2.822  0.2771 -0.1739 -0.3084
22960W        W42494   6.793   3.584  11.865 -0.4309  0.0048 -0.1804
22961W        W42495  16.223  14.450   3.591  0.0531  0.0571 -0.1462
22962W        W42496   0.662  14.475  14.226  0.0521  0.0447  0.0579
22963W        W42497   5.630  14.457  15.296 -0.0502  0.0717 -0.0003
22964W        W42498  17.629  11.056  13.392  0.0533  0.0583  0.1240
22965W        W42499  16.915   9.216  15.590 -0.0782  0.1879  0.3574
22966W        W42500  11.754  15.492  13.257 -0.2300  0.2404  0.0923
22967W        W42501  14.585   0.084   3.626 -0.0978  0.2122 -0.0366
22968W        W42502   2.033   0.552  12.873  0.1531 -0.0273  0.1838
22969W        W42503  15.237  15.139  15.341 -0.1021  0.1324  0.0646
22970W        W42504   9.049   5.857   0.496 -0.3990 -0.0302  0.0554
22971W        W42505   4.083  11.193  11.375 -0.2819  0.1558  0.1147
22972W        W42506  18.108  15.452   4.519  0.0738 -0.1000  0.1047
22973W        W42507  11.929   4.882   0.163 -0.1097 -0.0161 -0.0571
22974W        W42508  11.318  15.369   0.371  0.1018  0.0876  0.1416
22975W        W42509   1.149   5.665  14.094  0.0770  0.4167  0.0683
22976W        W42510  14.205  11.538  12.475  0.1431 -0.0452 -0.2567
22977W        W42511  15.028  17.486   2.418  0.0604 -0.1975  0.0398
22978W        W42512   2.143   9.590   2.608 -0.1674  0.0179  0.1834
22979W        W42513   5.210   6.378   1.777 -0.1563  0.0974 -0.1451
22980W        W42514   9.358  12.609   2.551 -0.2098 -0.0061 -0.4275
22981W        W42515  11.027   8.299   0.165 -0.1364  0.0263  0.1445
22982W        W42516  12.989   1.056   4.179 -0.0060 -0.0287  0.2258
22983W        W42517  10.009   1.632  11.751 -0.1122  0.0525  0.1583
22984W        W42518   5.370  16.994   3.078  0.1977 -0.0514 -0.3300
22985W        W42519   9.131   5.383   0.120  0.0163  0.1675 -0.3602
22986W        W42520   1.190  13.852  12.539 -0.1210  0.0660 -0.0229
22987W        W42521   7.402   6.304   0.600 -0.4417  0.1032  0.1237
22988W        W42522   8.991  16.332  14.565 -0.0842 -0.1526  0.0364
22989W        W42523   1.691   1.906   2.415  0.2085  0.1131 -0.1327
22990W        W42524   4.250  15.466   2.541 -0.0133  0.0996  0.2083
22991W        W42525   5.575  11.338  12.555 -0.1014  0.0161 -0.4851
22992W        W42526   5.205  10.781   3.873 -0.1319  0.1375  0.0580
22993W        W42527  14.889   6.850  15.672 -0.1885  0.2855 -0.0158
22994W        W42528  14.753   6.265  11.577 -0.3414  0.0085 -0.1955
22995W        W42529   4.272  15.802   2.884 -0.1711 -0.1464  0.1659
22996W        W42530   8.200  13.217   3.457  0.1409  0.1190  0.0327
22997W        W42531  10.706   6.098  14.922  0.2413  0.0452  0.0269
22998W        W42532  17.240  14.554  12.824  0.0848  0.0597  0.3211
22999W        W42533  10.769   7.838  14.861  0.2045 -0.1911 -0.1362
23000W        W42534   2.030   5.331   3.169 -0.0543  0.0339 -0.1224
23001W        W42535  12.757   2.996  14.283  0.0350  0.1885 -0.0985
23002W        W42536   3.282   3.913  14.877 -0.0276 -0.3028  0.0683
23003W        W42537   8.214   7.343   0.199 -0.3013  0.1540 -0.0025
23004W        W42538   9.624  18.363   2.652  0.1721 -0.1955  0.0458
23005W        W42539  16.804  10.921  12.208  0.0761  0.1110 -0.1988
23006W        W42540  10.091   3.667   2.953  0.1205 -0.2993 -0.1305
23007W        W42541   1.549   0.460  12.941  0.0078 -0.1549  0.2806
23008W        W42542  12.459  16.106   4.042  0.0361 -0.0106 -0.1485
23009W        W42543   3.618   6.684  11.601  0.3477 -0.3107  0.0218
23010W        W42544   0.278  12.615  14.177  0.0075  0.0217 -0.1669
23011W        W42545   2.889  14.745  12.599 -0.0196  0.5104  0.0659
23012W        W42546  17.447  15.587   0.114 -0.0082  0.1432  0.2478
23013W        W42547  13.417   0.816   3.390  0.1424  0.2460 -0.0341
23014W        W42548   1.851  18.182   4.722  0.0225 -0.0287 -0.2328
23015W        W42549   0.220   6.008   0.251  0.3626  0.0000  0.1262
23016W        W42550  15.246   5.902  15.796  0.0617 -0.1429  0.1947
23017W        W42551   5.478  10.378   3.782 -0.1488 -0.0878  0.4158
23018W        W42552   8.717   3.679   3.711  0.1406 -0.0798 -0.1124
23019W        W42553  16.906  18.018   4.599 -0.0722  0.5404 -0.1324
23020W        W42554  15.110   2.656  11.696  0.3579 -0.2010  0.1149
23021W        W42555   6.807  18.338  12.051 -0.2334  0.4078 -0.1228
23022W        W42556   4.418   5.397   3.715  0.1222  0.3812  0.2777
23023W        W42557   2.178   9.759  12.690  0.1165 -0.0913  0.1162
23024W        W42558   6.935  15.798   5.426  0.1554 -0.0693 -0.2257
23025W        W42559   1.081  11.374   0.841 -0.0282  0.1164  0.1138
23026W        W42560   9.738   3.677  11.223  0.0836 -0.0325 -0.1074
23027W        W42561  17.415   8.945   0.497 -0.3385 -0.4793  0.1441
23028W        W42562  13.492   0.724   4.097 -0.1660  0.1774  0.1209
23029W        W42563  18.359   0.408   3.773  0.0081  0.1640  0.1464
23030W        W42564   7.285  11.956  13.745  0.0794  0.0457  0.1923
23031W        W42565  16.798  13.997   2.384 -0.0149 -0.2436 -0.0790
23032W        W42566  12.313  18.393   2.659 -0.0522 -0.1120  0.2442
23033W        W42567   9.237  12.666  14.584  0.4960  0.2016  0.0106
23034W        W42568   0.480  11.618  15.364 -0.0111 -0.0395  0.2085
23035W        W42569   9.506  14.367   0.771  0.2408  0.0807 -0.1397
23036W        W42570   6.968  17.290   1.971 -0.3473  0.0639 -0.3005
23037W        W42571  18.067  14.726  10.939  0.2378  0.0664  0.2343
23038W        W42572   2.318  10.965  14.522 -0.1005 -0.0319 -0.1642
23039W        W42573   3.423  11.505  15.518 -0.2717 -0.0177 -0.2494
23040W        W42574   0.147  14.200   1.351  0.2124 -0.0842  0.0108
23041W        W42575   3.834   5.815  11.015  0.0863  0.1982 -0.0330
23042W        W42576  10.361   4.433   0.518 -0.2335  0.2108  0.4597
23043W        W42577  10.011  15.756   0.337 -0.3600  0.2620  0.0633
23044W        W42578  17.658  12.934   0.357 -0.0063 -0.1858 -0.0740
23045W        W42579  17.581  14.509   2.161 -0.2516 -0.0154 -0.1382
23046W        W42580   2.696  11.999  15.504 -0.3330 -0.1311 -0.1055
23047W        W42581   3.947  17.286   2.616 -0.1353  0.0504  0.2581
23048W        W42582  14.620  13.743  13.482  0.1085 -0.0237  0.0274
23049W        W42583   6.176  10.910   2.817  0.4428  0.0200 -0.1937
23050W        W42584   0.384   4.664   0.575  0.0837 -0.0155 -0.2288
23051W        W42585   8.773  16.466  10.500 -0.2695  0.0893  0.2573
23052W        W42586  15.226  16.208  14.531 -0.0578  0.0287 -0.1948
23053W        W42587  14.548   1.101  11.538 -0.1561  0.1007  0.0113
23054W        W42588   1.336   1.259  12.732 -0.1901  0.2603 -0.0662
23055W        W42589   9.862   2.588   4.794  0.1387 -0.0350  0.3454
23056W        W42590   0.951   4.176   0.466 -0.0253 -0.0444  0.3243
23057W        W42591   3.211   3.809  13.468  0.0863 -0.0931  0.0250
23058W        W42592   2.750   7.922  14.365  0.0729 -0.0774  0.0217
23059W        W42593  11.882  16.476   0.462 -0.3264 -0.0717  0.1058
23060W        W42594   9.136   9.767   3.799  0.0701  0.0566  0.3923
23061W        W42595  13.845   7.371   2.156 -0.4972 -0.1814 -0.1014
23062W        W42596   6.884  17.134   5.008 -0.1681  0.1162  0.0533
23063W        W42597   0.867   6.480  13.846  0.0911 -0.0382 -0.0782
23064W        W42598  15.373  12.195  13.750  0.0276  0.1778  0.0371
23065W        W42599  14.139   8.118   3.902 -0.2717 -0.0779  0.2564
23066W        W42600  16.513   9.608   4.140  0.0845  0.0814 -0.1266
23067W        W42601   9.458  12.400   0.484  0.0463  0.2687  0.2472
23068W        W42602   9.561   4.706   3.761  0.2562 -0.4008 -0.1006
23069W        W42603  11.814   9.838   0.492 -0.3577 -0.0041 -0.1150
23070W        W42604   0.369   7.805  11.154 -0.0349  0.0523 -0.0532
23071W        W42605   7.611  16.446  11.747 -0.0417 -0.0279 -0.1413
23072W        W42606   3.056  10.393  15.356  0.1631  0.0295  0.1312
23073W        W42607   3.802   2.921  14.009 -0.0727 -0.3859 -0.2526
23074W        W42608   0.403   9.038   4.011  0.1458 -0.1753  0.1614
23075W        W42609   7.087  10.531   2.288  0.0375  0.1191  0.0761
23076W        W42610  12.606  14.156   0.663  0.0734 -0.3049  0.0588
23077W        W42611  18.046  17.065   0.254 -0.0521 -0.0935  0.2964
23078W        W42612   7.309   0.592   4.822 -0.2012 -0.1160  0.1845
23079W        W42613   1.949   1.212  14.108 -0.1366  0.4933 -0.1000
23080W        W42614  13.655  14.295   3.638 -0.0535 -0.3789  0.0399
23081W        W42615   8.139   9.727  12.254  0.1847 -0.0207 -0.0271
23082W        W42616   4.534  10.628  12.537 -0.1762 -0.2762  0.0967
23083W        W42617  14.182   7.627  11.958 -0.2311 -0.1007 -0.0084
23084W        W42618  14.696   3.427   0.180 -0.1293 -0.2126 -0.2172
23085W        W42619  12.151   4.427   1.004 -0.0586  0.0237 -0.1644
23086W        W42620   6.858   5.422   2.366 -0.1198 -0.1772 -0.1840
23087W        W42621   6.371  16.362  12.424 -0.2149  0.0601 -0.2028
23088W        W42622   8.817   9.783  13.598  0.1909  0.2805 -0.0422
23089W        W42623  10.881  15.161   2.292  0.0122  0.0610 -0.0376
23090W        W42624   6.401   1.899  13.841 -0.1559  0.0539 -0.1357
23091W        W42625   9.673  13.477   3.196  0.0432 -0.0009  0.0983
23092W        W42626  13.484   2.527   2.001  0.1143 -0.2271 -0.1354
23093W        W42627  14.017   2.816  12.536  0.0388  0.1122 -0.0154
23094W        W42628   4.815   6.959  13.822  0.1131 -0.2185 -0.0451
23095W        W42629  12.632   5.755   3.114 -0.1142  0.0130  0.2246
23096W        W42630   9.253   7.080  15.285 -0.0477  0.1539  0.1293
23097W        W42631   2.189   3.022   3.401 -0.0048 -0.5051 -0.2889
23098W        W42632  11.627  14.598   0.669 -0.2757  0.0114  0.0572
23099W        W42633   4.535  11.699   2.055  0.0467  0.2455  0.2105
23100W        W42634   2.850  15.520   3.204 -0.0463  0.1584  0.0621
23101W        W42635   2.067   1.177   2.471 -0.2952 -0.2781  0.0699
23102W        W42636  18.103  18.279   2.298 -0.0749  0.0599 -0.0573
23103W        W42637   6.013   8.340  15.290 -0.1578  0.1524  0.4569
23104W        W42638   2.404   6.470   2.425  0.1272  0.0003  0.0098
23105W        W42639   4.554   3.409   2.464  0.0452  0.0394 -0.0636
23106W        W42640   8.131  12.148  14.151  0.0555  0.0509 -0.1196
23107W        W42641  15.641   0.700  15.760 -0.0110 -0.0571  0.2730
23108W        W42642  12.672   8.617  13.428  0.2537  0.0441 -0.2822
23109W        W42643  12.471  12.124   3.926 -0.2990  0.0824  0.0423
23110W        W42644  12.341  13.863   3.742  0.0208 -0.0403  0.1437
23111W        W42645  17.039  12.403   4.167  0.0852  0.0038  0.2183
23112W        W42646   3.353  13.997   4.180  0.0118  0.2060 -0.0548
23113W        W42647   1.841  14.244   4.351  0.3071  0.0147  0.0619
23114W        W42648   5.522   6.282  12.566  0.1794  0.0056 -0.0939
23115W        W42649  15.554   8.624   2.193  0.1167 -0.1970  0.2560
23116W        W42650   7.283  15.053  11.689  0.0817 -0.0324 -0.0388
23117W        W42651   5.897  12.115   4.195 -0.1931  0.2449 -0.2403
23118W        W42652  16.825   3.395  12.028 -0.0263  0.0407 -0.0060
23119W        W42653  14.200   0.318   1.725  0.0788 -0.0224 -0.0897
23120W        W42654   0.148  15.365   3.587 -0.1661 -0.1491 -0.4430
23121W        W42655  14.175   0.223   3.326 -0.1479  0.1811  0.4127
23122W        W42656  13.874   2.966   3.074  0.0886 -0.2367 -0.1028
23123W        W42657   5.375  11.269   0.320 -0.0489 -0.4738 -0.3432
23124W        W42658  11.887   0.646  15.517  0.2740  0.0036 -0.0674
23125W        W42659  10.045   1.375  12.855  0.0747 -0.0838  0.0843
23126W        W42660   0.464   3.043  12.557 -0.1039  0.1560  0.1533
23127W        W42661   5.570  11.006   3.631  0.0309 -0.0166 -0.2506
23128W        W42662   8.757  13.017   0.802  0.3304 -0.2775 -0.0387
23129W        W42663  11.787  11.490  15.241 -0.0752 -0.1771 -0.2954
23130W        W42664  12.849  17.710  14.765  0.5175  0.1130  0.0899
23131W        W42665   8.782  14.382   3.928 -0.2510 -0.0638 -0.1077
23132W        W42666  12.561  16.945   1.038 -0.2556  0.2501 -0.1822
23133W        W42667   9.485  10.683  14.865 -0.4241  0.1884 -0.0795
23134W        W42668  17.107  11.254   3.340  0.0633 -0.0964 -0.3942
23135W        W42669   3.927   2.834   2.632 -0.1316  0.1849 -0.0119
23136W        W42670  16.612   5.765   3.925  0.2085  0.0767 -0.1132
23137W        W42671   9.416  13.158  11.693 -0.0282  0.0214 -0.3333
23138W        W42672  11.279   0.964  15.268  0.1301 -0.0039  0.2158
23139W        W42673   5.174  14.626  15.497  0.0351  0.0209  0.4071
23140W        W42674   5.184   8.466   1.220 -0.1818  0.0964  0.1391
23141W        W42675  13.296   3.109  14.493  0.3294 -0.2409 -0.1803
23142W        W42676   7.081   8.658   3.335 -0.0262 -0.0361  0.0531
23143W        W42677  14.758  15.990  15.820  0.2969  0.0762 -0.2097
23144W        W42678  16.981   6.610   1.809  0.4054 -0.1254 -0.1489
23145W        W42679  10.417  12.287  14.753  0.0207 -0.1182  0.0078
23146W        W42680   1.976  11.125   0.974  0.1014  0.3170  0.2607
23147W        W42681  16.399  17.598   3.977 -0.2861  0.0088 -0.1592
23148W        W42682   2.009  12.170  14.171  0.0162 -0.1185  0.0667
23149W        W42683  11.087   7.086   3.633 -0.0942 -0.0297  0.0407
23150W        W42684  17.987   6.774  12.301  0.3146 -0.1292  0.0238
23151W        W42685   5.374  12.557   0.504 -0.1713  0.1368  0.0900
23152W        W42686  17.846   9.287  12.766  0.3687 -0.1136 -0.0383
23153W        W42687   7.463  12.941  14.345  0.0041  0.1107  0.2747
23154W        W42688   7.125   3.636   2.931  0.1219  0.0915  0.2797
23155W        W42689  18.240   9.842  15.026 -0.0643 -0.0321 -0.3934
23156W        W42690  15.769  13.165  12.147 -0.2470 -0.0817  0.0456
23157W        W42691   6.544   0.666   2.923  0.3325  0.0883 -0.2134
23158W        W42692  12.404   1.456  14.111  0.0403 -0.0492  0.3311
23159W        W42693  16.731  17.143   1.278 -0.1028  0.2922 -0.0051
23160W        W42694  12.150  10.026  13.544  0.3288  0.1902  0.0003
23161W        W42695   7.157  13.133  12.431  0.0206  0.3676 -0.2000
23162W        W42696   5.107   2.679  12.996  0.0033 -0.1737  0.3608
23163W        W42697  14.900   1.223  15.348 -0.0734 -0.1719  0.1160
23164W        W42698   9.155  15.087   3.998  0.3115 -0.0315 -0.1403
23165W        W42699   1.434   9.238  13.525 -0.1622 -0.0316  0.2929
23166W        W42700  17.220   9.901  12.890 -0.0125  0.0041 -0.0041
23167W        W42701  13.454  13.318  12.164 -0.0561  0.2108 -0.0229
23168W        W42702  13.770   5.240  11.867  0.1014  0.0049 -0.2580
23169W        W42703  14.806   0.747  13.872  0.2963 -0.3297 -0.0007
23170W        W42704  18.371  13.923  14.349 -0.2161  0.0523  0.1568
23171W        W42705   6.310  17.031   0.740 -0.0517  0.1163  0.0645
23172W        W42706   2.709   4.573  12.618 -0.1482 -0.0287  0.1765
23173W        W42707   9.732   0.426   3.550  0.2358 -0.1458  0.0220
23174W        W42708   2.375   1.732   1.800  0.0831  0.1321  0.0724
23175W        W42709  17.825  14.740   2.489 -0.0674  0.1462  0.2342
23176W        W42710   3.270   9.844   1.081 -0.0861  0.2323  0.1407
23177W        W42711   0.611  11.038   1.713 -0.3242 -0.2676  0.1096
23178W        W42712  18.389  16.751  12.515 -0.1978  0.1277 -0.2618
23179W        W42713  16.047   2.848  10.252  0.1007 -0.0955 -0.0618
23180W        W42714   9.786  12.431   1.030  0.1187  0.1052  0.3331
23181W        W42715   5.629  10.746  15.019 -0.6237  0.1940 -0.2100
23182W        W42716   5.170  12.948  14.466  0.1588  0.2279  0.1329
23183W        W42717  11.660   9.015  14.860 -0.0380  0.0862 -0.3234
23184W        W42718  16.735   9.643  14.068  0.2171  0.0588  0.1124
23185W        W42719   1.527   3.408   0.424 -0.1252  0.0901  0.1459
23186W        W42720   0.000   5.317  13.880 -0.1962 -0.0106 -0.3931
23187W        W42721   0.138   9.337  12.939  0.0959 -0.0958 -0.0441
23188W        W42722   7.450   4.123  12.543  0.0251 -0.0950  0.1822
23189W        W42723   0.206   8.920  12.171  0.2633 -0.2747  0.1301
23190W        W42724   1.337  11.258   1.355 -0.0675  0.0026 -0.2650
23191W        W42725   6.495  10.457  14.270 -0.0136  0.2599  0.0561
23192W        W42726   7.159   9.842  15.157  0.1613  0.2327  0.1168
23193W        W42727  15.849  14.893  11.372 -0.2181 -0.0341  0.0506
23194W        W42728  13.413   5.625  12.068 -0.0739  0.2950 -0.2692
23195W        W42729  12.812  14.275   4.332 -0.0681 -0.0665 -0.2360
23196W        W42730   7.706   9.279  13.271  0.0248 -0.2795 -0.0158
23197W        W42731   9.827  12.287   2.498  0.1157 -0.1517  0.2884
23198W        W42732  18.274   0.772   2.818  0.1388  0.0654  0.1286
23199W        W42733  13.899   3.257  14.558  0.0226 -0.2977  0.0071
23200W        W42734   5.641   5.877   1.267  0.0575  0.0116  0.1737
23201W        W42735   1.843   1.678   0.391 -0.0751 -0.2686 -0.2001
23202W        W42736  16.725   0.428  12.715 -0.1387 -0.2047 -0.2436
23203W        W42737  12.781   4.962  11.795  0.0173  0.2053  0.1328
23204W        W42738  17.096   5.094   1.339  0.0211 -0.2876  0.1497
23205W        W42739  17.612  13.297   2.377  0.1170  0.4095 -0.0255
23206W        W42740  14.951   1.158  11.799  0.0404 -0.2687 -0.1239
23207W        W42741  17.592  17.672  12.250 -0.0927 -0.2947 -0.3026
23208W        W42742   6.146  10.882   5.040  0.1134  0.1155 -0.0745
23209W        W42743  16.556   8.582  14.308  0.0113  0.0768 -0.0077
23210W        W42744  14.169   7.834  12.565 -0.2006  0.1837 -0.0097
23211W        W42745   0.823   2.808   0.897  0.1371 -0.0702  0.3787
23212W        W42746   1.892   1.197   4.476 -0.2555  0.2492  0.3185
23213W        W42747  10.890   1.677   2.372 -0.0515  0.2109 -0.1849
23214W        W42748  14.351   3.110   1.625  0.0140  0.1467 -0.1427
23215W        W42749  15.217  11.238  11.411  0.1645  0.1844  0.2635
23216W        W42750  13.718   4.001  14.971  0.0664 -0.0718 -0.0720
23217W        W42751   4.526   5.288   0.952 -0.1655  0.0969 -0.1137
23218W        W42752   0.336  14.075   3.566  0.0938 -0.0053 -0.4621
23219W        W42753   6.267  16.389  15.073 -0.1502 -0.0709  0.0408
23220W        W42754  12.815   7.129  14.579 -0.1249  0.1515 -0.0792
23221W        W42755  12.702   5.053   4.055 -0.0132  0.0412  0.1640
23222W        W42756   7.276  17.891   0.095 -0.0437  0.1054 -0.0417
23223W        W42757   4.837  14.846   2.802  0.1519 -0.0933 -0.1424
23224W        W42758  11.515   8.496   1.263 -0.3094 -0.0251  0.0098
23225W        W42759  10.340   3.054   1.280  0.0695  0.2977  0.1774
23226W        W42760  15.724   8.926   2.605  0.0181  0.0451 -0.1504
23227W        W42761  13.327  14.026  12.727  0.1160 -0.2159  0.1687
23228W        W42762   9.709   3.041   4.528 -0.1353 -0.0545 -0.0592
23229W        W42763   1.435   4.538  14.918 -0.2821 -0.0887 -0.3605
23230W        W42764   9.851  15.438  13.871  0.1983  0.1464  0.2021
23231W        W42765   6.722   8.340   2.703 -0.1734  0.1928 -0.0890
23232W        W42766  10.131  13.449  14.906 -0.2308 -0.0586  0.0229
23233W        W42767  11.542   2.979   0.488 -0.0213 -0.1382  0.1520
23234W        W42768   0.636  11.298   2.586 -0.4703 -0.0453  0.1845
23235W        W42769  11.146   7.625   3.769  0.0180 -0.1941 -0.0693
23236W        W42770  17.490   2.141  13.175  0.0869  0.0948 -0.3644
23237W        W42771   0.733   1.555   1.763 -0.1727  0.4159 -0.1248
23238W        W42772  10.941  13.537  14.570 -0.0181 -0.1523  0.0577
23239W        W42773  15.791   4.166  13.173  0.1571  0.1299  0.2944
23240W        W42774  13.530   8.378  14.565  0.4042  0.2840 -0.3086
23241W        W42775  10.747   3.714  12.364 -0.0865 -0.0412 -0.1653
23242W        W42776   8.043   3.508  15.793 -0.2947 -0.4094 -0.3369
23243W        W42777  15.810   7.944  15.025 -0.0257 -0.0488 -0.1111
23244W        W42778  13.891  13.991  13.893  0.0991 -0.4996  0.0567
23245W        W42779  10.853  17.651   1.397 -0.0247  0.0847  0.0505
23246W        W42780  13.703   6.379   1.327  0.1081  0.0873  0.1116
23247W        W42781  16.701  14.430  15.756  0.1092 -0.0009 -0.0299
23248W        W42782   0.586   8.447  15.748  0.0356 -0.0034  0.1099
23249W        W42783  16.703  14.617  11.483  0.0081 -0.0177 -0.0472
23250W        W42784  16.474  16.651  15.604 -0.0478 -0.1397 -0.0111
23251W        W42785  14.236   1.313   4.242  0.1865  0.0847  0.1807
23252W        W42786   5.441   6.046  13.102  0.0123  0.4554 -0.2714
23253W        W42787  11.559   0.061  11.925 -0.1075 -0.0581 -0.3544
23254W        W42788  12.747  14.226  11.862  0.0607  0.2861  0.1192
23255W        W42789   7.464   7.800  11.684  0.0487  0.0718 -0.2295
23256W        W42790   2.581  11.776   3.599 -0.0384 -0.0615  0.1692
23257W        W42791   6.654  17.707   0.276  0.1255  0.3015 -0.0676
23258W        W42792   5.136  10.783  14.382 -0.3768 -0.1351 -0.1821
23259W        W42793  16.229   9.362  11.179 -0.0394  0.2125  0.2091
23260W        W42794   2.190   0.230   4.166  0.0315  0.1914  0.2058
23261W        W42795   3.697  14.481   2.033 -0.0802  0.1716 -0.0373
23262W        W42796   2.826   4.990  13.257  0.0050 -0.2544  0.0097
23263W        W42797  11.085   0.836   0.911 -0.1256 -0.3599  0.0590
23264W        W42798   5.690   9.306   0.108 -0.2632 -0.3145 -0.0643
23265W        W42799  14.462   9.612   1.291 -0.0739 -0.0644  0.0728
23266W        W42800   4.159  16.680   3.604  0.1838 -0.1290  0.0364
23267W        W42801   1.892  17.268  14.336 -0.1952 -0.1061 -0.1216
23268W        W42802   3.932   3.845   3.692  0.0914  0.1829  0.1915
23269W        W42803  12.688  17.700  13.815  0.2783 -0.2214 -0.2295
23270W        W42804   8.348   9.240  14.788 -0.4265  0.0558  0.0015
23271W        W42805  14.185   5.116  14.423  0.2459  0.0299 -0.1474
23272W        W42806  11.972   8.151  12.790  0.1533 -0.2161 -0.3698
23273W        W42807   3.849   5.330   1.371 -0.0857  0.1923 -0.1184
23274W        W42808   1.508  10.853  15.317  0.1811  0.3454  0.3589
23275W        W42809   2.616  17.800  12.434 -0.0740 -0.2382  0.0684
23276W        W42810  11.078   9.519  12.904  0.0192 -0.1314 -0.0533
23277W        W42811  18.261  10.792  13.378 -0.1868 -0.2275  0.1417
23278W        W42812  17.404  10.734  14.258  0.0568  0.1542 -0.0780
23279W        W42813   6.039  12.121  15.366  0.0436 -0.3587  0.0094
23280W        W42814  12.033  11.933   3.823 -0.1134  0.2326  0.0131
23281W        W42815  17.544  11.752  12.732  0.0941  0.0636 -0.0963
23282W        W42816  10.662  15.166  15.526  0.3579  0.0977  0.0918
23283W        W42817   8.453   2.883   3.805 -0.2652  0.4156 -0.1139
23284W        W42818  12.777  10.434   3.259 -0.1824  0.0108  0.0726
23285W        W42819   3.155   2.069   2.098 -0.0239  0.1058  0.0584
23286W        W42820   2.390  16.756  14.193  0.0195 -0.5086 -0.0741
23287W        W42821   7.710  12.287  12.095  0.2418  0.0942 -0.0175
23288W        W42822  13.408  12.631   1.192 -0.3120  0.0070 -0.0726
23289W        W42823   5.092   2.211   2.592  0.2068  0.0641  0.1945
23290W        W42824  16.085   9.887  15.734 -0.0509  0.2482 -0.0562
23291W        W42825   3.322  11.447  13.845 -0.2432  0.2086 -0.1129
23292W        W42826  17.778   8.216   2.756  0.3005  0.1358 -0.0888
23293W        W42827   2.101  10.538   0.975 -0.2541  0.0344 -0.1342
23294W        W42828  11.727   0.004  12.957  0.1831  0.2151 -0.1004
23295W        W42829   2.493  17.813  14.725 -0.1534 -0.2251  0.0451
23296W        W42830  17.608   2.731  14.333  0.2070  0.2002  0.0689
23297W        W42831   9.455  11.336  11.218 -0.1256  0.1833  0.1678
23298W        W42832  18.201  14.899  14.001  0.2248 -0.3879 -0.0466
23299W        W42833   1.758   9.561   1.467 -0.1883 -0.3423  0.0370
23300W        W42834   3.824   0.378  12.206 -0.1982  0.5072  0.0484
23301W        W42835   1.408  11.753   2.632  0.0676  0.0848 -0.1207
23302W        W42836  11.086  12.783  14.031  0.0295  0.1112  0.0515
23303W        W42837   5.778   9.877   2.357 -0.1012  0.2225  0.0658
23304W        W42838  18.061   3.464  14.043 -0.2147 -0.1082 -0.4790
23305W        W42839  10.229  17.343   2.875  0.2018 -0.0642  0.3043
23306W        W42840   2.611   0.918  12.716  0.0261 -0.1131  0.0882
23307W        W42841  17.715   0.427  14.225  0.0364 -0.0116 -0.0865
23308W        W42842  11.183  16.091  13.466  0.2572 -0.0022 -0.0473
23309W        W42843  16.008  14.530  12.063  0.1046  0.0202 -0.2542
23310W        W42844   1.076  10.781  15.550  0.0813 -0.2504 -0.3197
23311W        W42845  13.476  14.078   4.559 -0.2390 -0.1263 -0.0701
23312W        W42846   3.165   1.158   2.555 -0.4078 -0.0719 -0.3529
23313W        W42847   7.293   9.256  11.273 -0.2626  0.1774 -0.1020
23314W        W42848   3.843   0.382   1.608 -0.3565  0.1050  0.1455
23315W        W42849   0.509  17.685  13.970 -0.2405 -0.0008  0.2430
23316W        W42850   0.562   4.178  12.459  0.0803 -0.0900 -0.0951
23317W        W42851   8.919   2.431   4.671 -0.1921  0.1416  0.0127
23318W        W42852   7.976   1.608   4.268 -0.1986  0.2013 -0.0411
23319W        W42853  11.740   7.710  11.486  0.1013  0.1234  0.2703
23320W        W42854   4.769  17.538   3.553 -0.0609  0.0812  0.0779
23321W        W42855  17.414  18.106  14.834 -0.2446  0.0416 -0.0970
23322W        W42856  15.029  16.727  10.516  0.1518  0.0303 -0.1035
23323W        W42857  15.689   1.436   4.257 -0.2105  0.2682 -0.0918
23324W        W42858  15.169   9.234  14.052  0.2021  0.0187 -0.2071
23325W        W42859   4.473  12.345   0.948 -0.1127 -0.1870  0.2876
23326W        W42860  17.232   7.165   1.440  0.1383 -0.0440 -0.0332
23327W        W42861   4.963  17.641   1.977  0.0588 -0.1610 -0.0504
23328W        W42862   9.600   7.435  11.722 -0.0422 -0.1706 -0.0924
23329W        W42863  14.293   7.934  15.671  0.2139 -0.0604 -0.0810
23330W        W42864   4.381   0.262   1.695 -0.0578 -0.0126  0.2486
23331W        W42865   8.335  10.383  14.287  0.0740  0.0652 -0.0411
23332W        W42866  13.399  18.026   4.315  0.2622 -0.2822 -0.2829
23333W        W42867  13.284  17.941  14.316  0.0568 -0.1717 -0.1507
23334W        W42868  16.757  12.785   3.881  0.2247  0.0832 -0.1649
23335W        W42869  17.297  18.137   4.208 -0.1828  0.1919 -0.1921
23336W        W42870   2.077  15.233   5.420 -0.0086  0.1462  0.3628
23337W        W42871   7.125  16.312  14.852 -0.2113 -0.2189 -0.0941
23338W        W42872  12.568  12.440   4.348 -0.0036  0.0467 -0.1648
23339W        W42873  18.258   1.706   2.531  0.0003  0.1813  0.0788
23340W        W42874   0.897   5.706  14.931  0.0436  0.2195  0.0435
23341W        W42875   0.004   3.155  13.428  0.0574  0.0232  0.0335
23342W        W42876   1.816  18.227  12.435  0.1630 -0.0801 -0.2003
23343W        W42877  16.912   3.641  13.540  0.1625 -0.2196  0.2603
23344W        W42878   6.100   9.053  13.850 -0.4671  0.2951 -0.1818
23345W        W42879  14.522   8.073  13.569  0.1305  0.3101  0.1205
23346W        W42880   8.777  11.352  11.539 -0.2124  0.3732 -0.0131
23347W        W42881   3.700  18.002   4.439 -0.0154 -0.0635 -0.0562
23348W        W42882   4.102   2.469  14.083  0.0034  0.1247 -0.0398
23349W        W42883  16.393   2.828   3.119  0.1679 -0.1383 -0.1664
23350W        W42884  16.537  15.698   1.126  0.0191 -0.2978  0.0443
23351W        W42885   2.232   7.797   2.874  0.2784  0.0681  0.3221
23352W        W42886   4.195   2.909  13.095 -0.0050  0.2975  0.0446
23353W        W42887  16.900   3.866   2.559  0.0185  0.4036  0.1902
23354W        W42888  11.151   0.952   0.379  0.5297 -0.0619 -0.3354
23355W        W42889  17.249  17.200  12.815 -0.2152  0.2844 -0.0446
23356W        W42890   3.766   8.826   5.478 -0.1209 -0.3179 -0.0517
23357W        W42891  10.222  15.375   1.239 -0.2313  0.0533 -0.1774
23358W        W42892  13.471  13.526  15.321 -0.0702  0.1580 -0.1392
23359W        W42893  17.061  10.400   1.502 -0.2824 -0.0502  0.3869
23360W        W42894   4.197  17.671  12.544  0.2022 -0.3527 -0.1542
23361W        W42895   3.767   6.048   0.321  0.0033 -0.0693  0.0098
23362W        W42896  12.277   8.197  14.510  0.0241  0.0734  0.0302
23363W        W42897  13.019   9.865   0.292 -0.0848  0.0427 -0.0746
23364W        W42898   1.938   7.990  15.673 -0.2260 -0.0846 -0.1717
23365W        W42899  13.592   0.069   2.452  0.2618  0.1000  0.0603
23366W        W42900   8.235   1.487  11.568 -0.2168 -0.1798 -0.0166
23367W        W42901  17.175   5.318   0.933  0.2750  0.0230 -0.2482
23368W        W42902  10.539  17.937   3.985  0.0577  0.2035  0.2078
23369W        W42903  16.372  14.490  12.989  0.1792 -0.1697 -0.1031
23370W        W42904  12.939   4.612  12.744 -0.1553 -0.1621 -0.1788
23371W        W42905   8.013   0.085  10.871  0.1606  0.0557  0.1414
23372W        W42906   3.576   2.316   3.388  0.0053  0.0274 -0.2744
23373W        W42907   8.520  17.831   4.492  0.5219  0.3320 -0.1416
23374W        W42908  17.155   2.458  15.579 -0.1584  0.1110 -0.1371
23375W        W42909   4.706  10.552   1.145 -0.3694 -0.0796  0.0900
23376W        W42910  10.276   6.828  13.502  0.0653  0.2627 -0.1938
23377W        W42911   9.422  15.679  13.778  0.2358  0.2963 -0.0604
23378W        W42912   2.182   3.483  12.550  0.0125 -0.0716  0.1239
23379W        W42913   8.647  15.748  15.064 -0.1510  0.1362 -0.0784
23380W        W42914  13.504  10.520  11.373 -0.1126  0.0678  0.1257
23381W        W42915  18.033  16.006   3.081  0.1788 -0.0448 -0.0215
23382W        W42916   9.053   5.367   2.955  0.1008 -0.0009  0.0150
23383W        W42917  11.152   6.964   1.165  0.0246 -0.1802  0.3131
23384W        W42918  12.881  17.419   2.735  0.0519 -0.2993 -0.1105
23385W        W42919  16.878  15.349   0.857  0.0978 -0.1249 -0.3299
23386W        W42920  16.618  14.074   4.626 -0.2781 -0.2285 -0.1136
23387W        W42921  11.005   2.915  14.582 -0.0955  0.0093  0.2408
23388W        W42922   6.825   4.186   1.915 -0.1417  0.0761 -0.0164
23389W        W42923   5.854  11.972   1.350  0.1990  0.0759  0.1295
23390W        W42924  11.595  12.734   4.232 -0.0760  0.0237 -0.1512
23391W        W42925   1.280   2.705  11.176 -0.1658  0.1461 -0.0975
23392W        W42926  15.451   4.747   0.741  0.0907  0.1219  0.0165
23393W        W42927  17.015  15.272   2.258  0.0358  0.0855  0.0497
23394W        W42928   5.128   2.476  14.330 -0.0410  0.1345  0.1955
23395W        W42929  17.114   5.246   2.153  0.0164 -0.1747 -0.1433
23396W        W42930   7.889   7.762   0.155 -0.0506 -0.1923  0.1779
23397W        W42931   2.556   6.898  13.527 -0.3573 -0.1820  0.3448
23398W        W42932   6.509  10.418   1.381  0.0706 -0.1774 -0.0499
23399W        W42933  14.167   9.539  13.531  0.2981 -0.1773 -0.0866
23400W        W42934  11.147  14.467  12.564 -0.2034  0.0060  0.2125
23401W        W42935   8.358   1.959  11.853  0.1099 -0.0926 -0.2018
23402W        W42936  14.176  13.013   3.309  0.1310  0.7542  0.1847
23403W        W42937  15.255  11.739  15.167 -0.1375 -0.0429  0.2548
23404W        W42938  13.654  15.599   1.517  0.0092  0.2960  0.0244
23405W        W42939   7.789  15.463   4.097  0.0554 -0.1487  0.4809
23406W        W42940  14.272   5.208  11.241  0.1706  0.0937 -0.0384
23407W        W42941  10.713  18.029  14.720 -0.0419 -0.0389 -0.1770
23408W        W42942  17.166  14.379   3.273 -0.0943  0.0164 -0.0302
23409W        W42943  12.972  11.428   3.449  0.2141  0.1131 -0.1064
23410W        W42944  11.351  17.724   0.721 -0.1287  0.1305 -0.1287
23411W        W42945  15.441   1.668  14.758  0.0263 -0.2365  0.0174
23412W        W42946   5.115  12.859  15.226  0.2437  0.1429 -0.2908
23413W        W42947   2.411  18.081  14.023  0.1479  0.0151 -0.0280
23414W        W42948  16.684  11.259   3.055 -0.1687  0.1345 -0.3089
23415W        W42949   5.415  13.100   0.874 -0.4287  0.0564  0.0703
23416W        W42950   5.477   3.832  14.671  0.2019  0.1918 -0.1822
23417W        W42951   1.629  14.498  14.305  0.1586 -0.2412 -0.0906
23418W        W42952   3.143   0.912  12.691 -0.1735 -0.0242  0.3938
23419W        W42953  10.236  17.756  12.522  0.0743 -0.2575  0.1672
23420W        W42954   9.409   6.561   3.716 -0.1477 -0.0619 -0.2005
23421W        W42955  16.341   3.706   0.198 -0.2407 -0.0388 -0.1941
23422W        W42956  12.531   8.173  10.199 -0.1869  0.4057  0.0304
23423W        W42957   6.716  18.292   2.884 -0.3746  0.0611  0.0871
23424W        W42958   4.782   5.058  10.822  0.0810 -0.1507  0.0751
23425W        W42959   4.104   0.394   0.041  0.0760  0.1126 -0.2385
23426W        W42960  11.313   6.738  13.792  0.3193  0.0738 -0.2108
23427W        W42961  10.438   7.051   0.591  0.1295  0.1517  0.0283
23428W        W42962   2.941   4.290  15.793  0.0677 -0.0082 -0.0645
23429W        W42963   3.197   9.339   1.305  0.3734 -0.1764  0.0166
23430W        W42964  11.958  17.437  11.641  0.2325 -0.2870 -0.3515
23431W        W42965  10.864   9.133   0.270  0.1492  0.2206  0.2510
23432W        W42966   4.319  10.547   2.663 -0.0546 -0.1697 -0.2121
23433W        W42967   4.070  18.276   1.580  0.1013  0.3594  0.1941
23434W        W42968   0.477  12.853   3.737 -0.1084 -0.3923  0.3298
23435W        W42969   2.622   4.929  11.089 -0.2031  0.2235  0.2195
23436W        W42970   9.990  14.991  13.097 -0.2963  0.0920 -0.1634
23437W        W42971   2.537   1.088   3.746  0.0788  0.1634 -0.0831
23438W        W42972  11.744   3.893  13.871  0.1656 -0.2111  0.1415
23439W        W42973   9.569  16.502  11.398  0.1776 -0.0847  0.2383
23440W        W42974  16.500   0.084  14.888  0.0700  0.2131  0.0873
23441W        W42975   4.629   4.698  14.446  0.1613  0.1408 -0.4076
23442W        W42976   6.392   1.725  12.304 -0.2934 -0.2266  0.0194
23443W        W42977   5.820   9.383   3.842  0.1541  0.1025  0.1617
23444W        W42978  14.012  11.146  13.768 -0.2497 -0.2575 -0.0494
23445W        W42979  12.630  18.070   4.102 -0.2398 -0.0747 -0.0620
23446W        W42980   6.493   9.640   4.437 -0.1043  0.1586 -0.0331
23447W        W42981   9.373   8.755  11.675  0.3678  0.0107  0.1349
23448W        W42982   5.865   6.450   3.785 -0.0904 -0.0556  0.0989
23449W        W42983  16.893  11.352   0.173 -0.2480  0.0418 -0.1466
23450W        W42984   6.433  13.787  12.258 -0.1848 -0.0353 -0.1404
23451W        W42985   2.807  14.809   5.670 -0.1716  0.1284 -0.0305
23452W        W42986   3.870   7.333   3.813  0.2045 -0.1449 -0.1185
23453W        W42987  13.594   7.576   2.548 -0.0377  0.2533 -0.0444
23454W        W42988   1.023   8.651   1.343 -0.1784 -0.1893  0.0466
23455W        W42989  14.941   3.493   3.435 -0.1481  0.2281  0.1597
23456W        W42990  10.794   8.642   1.161  0.1359 -0.1555 -0.2543
23457W        W42991  15.535  10.734   2.502  0.1210 -0.3294  0.4549
23458W        W42992   9.962   4.979  14.885  0.1016 -0.1899 -0.1916
23459W        W42993  14.903   9.248   2.797 -0.1772 -0.1432 -0.0184
23460W        W42994  17.621  15.125   1.104 -0.1584  0.0855 -0.0330
23461W        W42995  17.041   7.815   3.137  0.1458 -0.1253 -0.0223
23462W        W42996   2.999  17.388   1.404  0.0540 -0.0709  0.0024
23463W        W42997   2.559   5.262  12.821  0.1509 -0.3337  0.0689
23464W        W42998  13.442  17.998  13.318 -0.0907  0.1951 -0.1406
23465W        W42999  10.514  10.995  14.052 -0.3726 -0.1030 -0.0212
23466W        W43000  10.951  15.461  14.576 -0.0470  0.1828 -0.0706
23467W        W43001   7.869  12.251  14.581 -0.1476  0.3435 -0.2033
23468W        W43002   3.533   4.973   3.509 -0.1545  0.1657 -0.0217
23469W        W43003  17.701   2.933   3.863 -0.2839  0.2323 -0.1541
23470W        W43004  10.606  14.411  13.627  0.0318  0.1763 -0.0405
23471W        W43005  11.596   3.302   5.132  0.1386 -0.1396  0.2953
23472W        W43006  13.851  13.800   2.829  0.1307  0.1862  0.1195
23473W        W43007   1.167  17.896   0.086  0.2213  0.0297  0.3005
23474W        W43008   2.380   9.592   0.940  0.0859 -0.0579  0.4119
23475W        W43009  14.136  15.620   3.577 -0.3048 -0.3394  0.0814
23476W        W43010   2.358   7.707  14.180  0.3112  0.0080 -0.1252
23477W        W43011   1.735   5.644   2.092  0.2777  0.1077 -0.1997
23478W        W43012  12.533  11.686   2.545 -0.0569 -0.2099 -0.1473
23479W        W43013   7.922   6.021  12.012  0.0768 -0.1691  0.1407
23480W        W43014   9.126  15.086   2.255  0.1691 -0.0063 -0.0163
23481W        W43015  14.634   1.448  13.261  0.1898  0.0017 -0.0033
23482W        W43016   0.589  12.340   2.893 -0.0385  0.1688 -0.1802
23483W        W43017   7.091  17.489  15.328 -0.0522 -0.0936  0.0944
23484W        W43018   4.931   5.431   0.720  0.3922 -0.0463 -0.0910
23485W        W43019  16.852   3.163   2.372 -0.0502 -0.1913 -0.0476
23486W        W43020   0.975   3.795  14.972 -0.0710 -0.2331  0.2689
23487W        W43021  17.739   0.014   1.128 -0.0784 -0.1525  0.0486
23488W        W43022  16.840   1.484   2.513  0.1477  0.2011  0.2127
23489W        W43023   4.203   9.264   2.305 -0.0695  0.0004  0.1038
23490W        W43024   9.610   2.910   3.500 -0.0056  0.1597  0.2476
23491W        W43025  16.175  15.408  14.683  0.3752  0.1706  0.0258
23492W        W43026  18.059  15.988   4.460  0.3269  0.1236 -0.1125
23493W        W43027   9.707  17.910   3.876 -0.0804 -0.1104 -0.2904
23494W        W43028   4.975  13.794   0.984  0.2500  0.1762 -0.0103
23495W        W43029   9.783   4.244   0.043 -0.0632 -0.1889 -0.1903
23496W        W43030  15.463  16.914   2.090 -0.0040  0.1478  0.0973
23497W        W43031  17.810   0.656   0.605 -0.0306  0.1728  0.2543
23498W        W43032  15.882   6.286   4.349  0.3550  0.2086  0.0922
23499W        W43033  15.750  16.629  12.808 -0.1009 -0.0232 -0.3128
23500W        W43034  12.610  14.482   2.449  0.0997 -0.3310  0.1412
23501W        W43035  17.283   0.100   3.064 -0.1325  0.0749 -0.1857
23502W        W43036   2.147  15.599  12.279  0.3145  0.0666  0.1180
23503W        W43037   6.896  16.003   4.065 -0.1967 -0.3806 -0.1190
23504W        W43038  16.087  15.521  14.031  0.0739 -0.0247 -0.2369
23505W        W43039  10.417  17.024   2.036 -0.2807 -0.2288  0.2260
23506W        W43040  18.169   6.456  15.041 -0.0948 -0.1304 -0.3631
23507W        W43041   8.236   1.967   2.109 -0.1049  0.3003 -0.1576
23508W        W43042  13.251  13.371   4.579  0.2059 -0.1559 -0.1023
23509W        W43043  16.367  16.866   0.257  0.1391 -0.0718  0.0587
23510W        W43044   2.904   6.757  13.087  0.1271  0.3014  0.0364
23511W        W43045   3.706   4.558  14.800  0.2212  0.3968  0.0779
23512W        W43046  13.732   2.435  12.219 -0.1654  0.0433  0.1032
23513W        W43047   1.188  17.490  15.123 -0.1491  0.1281  0.2155
23514W        W43048   9.008   0.929  10.985 -0.4448  0.1431 -0.0702
23515W        W43049  11.996   7.893   0.658  0.2354  0.0271  0.2330
23516W        W43050  15.075   6.800  12.222  0.0185  0.2087 -0.1687
23517W        W43051  13.122   6.052  13.678 -0.0855 -0.0354 -0.3598
23518W        W43052   1.332   6.391  13.709  0.1349  0.0082 -0.2247
23519W        W43053   2.224   4.240  14.234 -0.1324  0.1882 -0.2363
23520W        W43054   2.490   2.583  11.867 -0.1177  0.1269 -0.1102
23521W        W43055  15.669   2.675   0.564  0.0114  0.0886 -0.4170
23522W        W43056   4.821  13.259   4.071 -0.0983  0.0953  0.2581
23523W        W43057   6.849   4.393   3.393  0.1215  0.0430  0.0908
23524W        W43058  12.828   4.791  14.552 -0.0430  0.1221  0.0332
23525W        W43059  14.494   6.977  13.976 -0.1879  0.2391 -0.1051
23526W        W43060   5.259  17.174   4.313 -0.0951  0.0568 -0.0042
23527W        W43061   3.503   2.920   1.156 -0.1826  0.1669 -0.1980
23528W        W43062  17.667  16.475   1.165  0.0504 -0.0111 -0.1178
23529W        W43063   4.409  17.144  14.273  0.0922  0.0961 -0.1942
23530W        W43064   1.969   7.923  13.330 -0.1150  0.2187  0.2987
23531W        W43065   9.363  16.060   2.217 -0.1065 -0.0953  0.1633
23532W        W43066   5.605   7.046  12.894  0.1772  0.4390  0.0198
23533W        W43067  12.700  17.653  12.800 -0.0646  0.0159  0.2722
23534W        W43068  12.074  18.396   1.615 -0.1532 -0.2812  0.1755
23535W        W43069   7.827  17.152  14.765  0.0087 -0.1234 -0.3102
23536W        W43070   7.519  13.082   2.796  0.0405 -0.1037  0.0331
23537W        W43071   9.218   4.557   2.427  0.0887 -0.2085  0.0385
23538W        W43072   1.976  12.332   4.025  0.2460 -0.2122  0.2081
23539W        W43073   4.195   2.103   1.841 -0.0205 -0.0555  0.0987
23540W        W43074  17.791   3.310   0.355 -0.1089  0.0328 -0.0907
23541W        W43075  10.564  12.333  12.901 -0.1655 -0.1402 -0.1885
23542W        W43076  17.285   4.884  12.050 -0.0941  0.0833 -0.3155
23543W        W43077  17.632  11.472   2.739 -0.0297 -0.0979  0.1548
23544W        W43078   4.857  13.525   4.860 -0.1885 -0.1293  0.0675
23545W        W43079   5.842   7.059  12.389  0.3787  0.1845 -0.0519
23546W        W43080   3.594  13.017  14.814  0.3716  0.0568 -0.0878
23547W        W43081   3.667  12.802   0.877 -0.0001 -0.1118  0.0804
23548W        W43082   2.755   9.658   1.331 -0.1160  0.2028  0.4852
23549W        W43083   4.715   6.205  13.431  0.1672 -0.0570 -0.0245
23550W        W43084   7.265   6.113   2.985 -0.0817  0.0976 -0.2420
23551W        W43085  17.197  14.552  15.755 -0.1955 -0.0134 -0.1058
23552W        W43086   1.493  11.362  15.441  0.1194 -0.1105 -0.1331
23553W        W43087  16.549   9.195   1.424 -0.0443 -0.0183  0.1119
23554W        W43088   5.892   7.085   1.959 -0.0465 -0.0750  0.0393
23555W        W43089   9.220   2.110  13.841 -0.2456  0.1276  0.0496
23556W        W43090  10.880   6.998   2.104  0.1051 -0.4175  0.1143
23557W        W43091  17.761  14.737  13.049  0.0082 -0.0657 -0.2450
23558W        W43092   1.096   4.102  15.803 -0.1436  0.2385 -0.1017
23559W        W43093  11.190  11.248   2.366  0.2831  0.0671  0.1965
23560W        W43094  16.549  13.647   1.187  0.2321 -0.0591 -0.3145
23561W        W43095  15.179  16.238   0.100  0.1255  0.1132  0.0834
23562W        W43096   8.811  11.733  11.865  0.3717  0.0619 -0.2901
23563W        W43097   7.335  17.051  11.831 -0.1534  0.1260  0.0838
23564W        W43098   3.175   7.002   0.764 -0.0911  0.2542 -0.0076
23565W        W43099  18.156  17.446   1.671  0.0621 -0.1769 -0.1842
23566W        W43100  17.329   7.032   3.851 -0.0337  0.0341  0.0282
23567W        W43101   3.746  16.847   2.637  0.0719 -0.0634 -0.0025
23568W        W43102  12.338   4.569   1.981  0.1089  0.0458  0.0235
23569W        W43103  13.974   3.677  12.821  0.0540  0.1552 -0.2540
23570W        W43104   7.300   8.966   1.718 -0.2406  0.3344  0.0161
23571W        W43105   4.032   3.390   2.515 -0.2294 -0.0316  0.2823
23572W        W43106   6.361   9.997   0.364 -0.4454  0.1296 -0.0339
23573W        W43107  14.614   7.028  12.252 -0.0755 -0.1586  0.2636
23574W        W43108   6.349   3.541   0.717 -0.2941  0.1965  0.0439
23575W        W43109  12.556  16.763  11.574  0.1223  0.1348  0.1352
23576W        W43110  15.689   4.210  14.618 -0.4060  0.1119 -0.0617
23577W        W43111   8.022   7.014  15.719 -0.1850 -0.0290 -0.2059
23578W        W43112  17.644  16.600   2.312  0.0033 -0.0413  0.0797
23579W        W43113   0.986   0.061   3.906  0.2156 -0.0987  0.3083
23580W        W43114   0.404  11.885  12.405 -0.0398 -0.1668  0.0424
23581W        W43115   6.304   9.539   1.129  0.1253 -0.1970 -0.0362
23582W        W43116   8.730  14.135   0.062 -0.0061  0.0129 -0.3570
23583W        W43117  16.100  11.746  12.079  0.1245  0.1455  0.1053
23584W        W43118  12.849  15.289  15.648 -0.0110 -0.1604 -0.0313
23585W        W43119  13.776   2.082   2.983 -0.1109 -0.1308 -0.0249
23586W        W43120  14.175  11.507  11.770 -0.2616 -0.0441  0.0799
23587W        W43121   9.940  15.894  13.089 -0.1212 -0.3176 -0.0081
23588W        W43122  11.017  11.014   0.408  0.1865 -0.1814  0.2142
23589W        W43123  16.564   3.346  15.720 -0.1102  0.0767  0.0507
23590W        W43124  13.155   5.537   2.406 -0.0713 -0.1364 -0.2625
23591W        W43125  13.311   2.257  13.759  0.3009  0.0560 -0.3177
23592W        W43126  10.236   8.395  15.708 -0.0144  0.3941  0.1126
23593W        W43127   9.089   0.084  13.780 -0.1037  0.3897  0.1736
23594W        W43128  15.651   1.190   0.068 -0.1029 -0.0435 -0.0592
23595W        W43129  10.469  15.892   0.210 -0.2250  0.0668  0.0758
23596W        W43130   9.627  14.185   4.137 -0.0832  0.1996  0.2140
23597W        W43131  11.066  18.288  13.346 -0.1625 -0.2206  0.0329
23598W        W43132   4.343  12.388  13.958  0.3001  0.0197  0.1278
23599W        W43133   2.789  17.169  14.073 -0.0708 -0.0439 -0.1132
23600W        W43134  15.300   8.285   0.568 -0.0465  0.2421 -0.1596
23601W        W43135   6.250  11.819   3.004 -0.0112 -0.1435 -0.1603
23602W        W43136  11.371   1.232  15.706 -0.1907 -0.3751  0.5082
23603W        W43137   2.245  16.521  13.689  0.0666  0.0860 -0.1055
23604W        W43138   0.308   7.358   4.144  0.0776  0.1606  0.1531
23605W        W43139   7.849  11.287   3.703  0.0059 -0.0067 -0.0768
23606W        W43140  11.930   2.581   0.470  0.1559  0.0668  0.1445
23607W        W43141  11.120  15.450   1.826  0.1999 -0.0427  0.0502
23608W        W43142   8.219   5.841   1.141  0.0615  0.0488 -0.0089
23609W        W43143  15.545  17.372   2.493  0.2083 -0.0814  0.0431
23610W        W43144  11.139   0.658  14.184 -0.1329  0.1034  0.1368
23611W        W43145  15.321   2.667   0.209 -0.1172 -0.0562 -0.2464
23612W        W43146   0.388  10.212   0.338 -0.0329 -0.2187  0.1421
23613W        W43147   7.994  14.320  15.563  0.0895  0.0816 -0.1946
23614W        W43148   8.625  14.553  13.966  0.0512  0.0656  0.3600
23615W        W43149  11.432   5.002  11.523 -0.0682  0.1509  0.1794
23616W        W43150  10.014  10.004   0.753 -0.0782 -0.2672  0.1592
23617W        W43151   1.241  17.179   1.131  0.1838  0.0429 -0.1584
23618W        W43152   7.489  15.256   4.472  0.0503  0.0285  0.1157
23619W        W43153  17.777   1.152   4.441  0.0368  0.1464  0.1021
23620W        W43154   1.062   1.454   3.093 -0.3134 -0.1543 -0.0596
23621W        W43155  11.100  10.798   1.669  0.0953  0.0759  0.0364
23622W        W43156   4.959   8.268  11.374 -0.2102  0.1164  0.0265
23623W        W43157   7.613  15.604   3.042  0.1038  0.2983 -0.2234
23624W        W43158   4.389   0.076   2.813  0.2333 -0.0865 -0.0411
23625W        W43159   4.611  13.162  14.957 -0.1224 -0.0239  0.3776
23626W        W43160   2.095   0.501   1.870  0.1362 -0.1622 -0.1162
23627W        W43161   0.267   4.880   3.525 -0.0966  0.0600 -0.0344
23628W        W43162  16.766  10.302   4.543 -0.1925  0.1743  0.2357
23629W        W43163  11.110   9.067  13.173 -0.1592  0.2675 -0.1064
23630W        W43164   5.747  16.262  11.992 -0.0418 -0.1385  0.0873
23631W        W43165  14.378  15.941  14.676 -0.1642 -0.0125 -0.0320
23632W        W43166   6.011  12.388   4.757 -0.0047 -0.4136  0.0909
23633W        W43167  12.181  17.368  15.244  0.0114 -0.0341  0.1367
23634W        W43168   6.866  14.346   2.211 -0.0050  0.0263 -0.0436
23635W        W43169   0.977  10.859  12.087  0.0342 -0.3097 -0.0452
23636W        W43170   7.297  15.622   2.592 -0.1604  0.0284  0.0057
23637W        W43171  13.388  15.991  15.178 -0.2393 -0.2091 -0.1565
23638W        W43172   8.513   5.338   1.140  0.1429 -0.1450 -0.2635
23639W        W43173  12.736  17.639   2.297  0.0993  0.0752  0.1397
23640W        W43174   9.510   0.506   0.899 -0.1245 -0.0278 -0.3677
23641W        W43175   2.350  15.703  12.783 -0.0687  0.2623  0.0931
23642W        W43176   0.072   0.972   1.861  0.0558  0.3217  0.1750
23643W        W43177  10.071  10.177   3.729 -0.2230 -0.0659  0.1056
23644W        W43178   9.286   8.776  12.684  0.1074 -0.0679 -0.1554
23645W        W43179  11.996  16.970  14.968 -0.0459 -0.2160  0.1623
23646W        W43180  12.913   3.835  13.378  0.1220 -0.1800  0.1547
23647W        W43181   9.958   3.737   3.507 -0.0027 -0.0407  0.0134
23648W        W43182  16.117   2.131  15.753 -0.2661 -0.1578  0.4232
23649W        W43183  17.845  10.475  12.222 -0.5442  0.1297  0.0546
23650W        W43184   9.878  11.297   2.506  0.1118  0.0135  0.1611
23651W        W43185  14.155  17.154  12.202 -0.1596  0.0710 -0.1272
23652W        W43186  17.584  12.036   3.601 -0.0165 -0.2464  0.2669
23653W        W43187  11.945  10.844   1.295  0.1158  0.1976 -0.0360
23654W        W43188  16.835  16.036  12.275 -0.1457  0.1391  0.1011
23655W        W43189   1.918  15.845  15.630 -0.2951 -0.1219 -0.0545
23656W        W43190  13.253  14.030   1.296  0.0381 -0.1052 -0.1629
23657W        W43191   8.039   5.430   0.943 -0.0747 -0.0485 -0.0444
23658W        W43192   9.812   0.600   0.456  0.0024 -0.1354 -0.0416
23659W        W43193   8.584   1.396   2.806 -0.2021  0.1004  0.1586
23660W        W43194  17.157   0.999   1.781  0.2551 -0.1843  0.0022
23661W        W43195  11.347   5.503  14.192 -0.1120 -0.0225 -0.2272
23662W        W43196  10.874  16.261  11.616 -0.1710 -0.0681  0.1683
23663W        W43197  16.677   8.176  14.586  0.0085  0.0018  0.1122
23664W        W43198   8.258   4.241   3.887 -0.2672 -0.1630  0.1447
23665W        W43199   8.558   0.592   2.224 -0.2000 -0.0847 -0.0801
23666W        W43200   2.496  16.141   2.663  0.0206 -0.2201 -0.3126
23667W        W43201   5.661  12.322  12.447  0.0368  0.1632 -0.1259
23668W        W43202  12.368  13.071   0.784  0.3619 -0.1556  0.1759
23669W        W43203   2.127  15.036   4.445 -0.1235 -0.3480 -0.2164
23670W        W43204   2.025   6.276  13.064  0.1469  0.2081  0.3290
23671W        W43205   0.581   6.599   2.899  0.3148 -0.1848  0.2525
23672W        W43206  14.697  11.542  11.556 -0.0466 -0.0760 -0.2710
23673W        W43207   0.728   1.010   0.142  0.1247 -0.2268 -0.2142
23674W        W43208  11.690  15.505  12.749 -0.2123  0.2840 -0.0195
23675W        W43209   1.889  15.882   1.097 -0.0907  0.4105  0.1407
23676W        W43210  16.344  17.925  12.789 -0.0960  0.4179  0.0557
23677W        W43211   4.673   4.973  14.863  0.0487  0.1745 -0.0581
23678W        W43212  10.650   3.892   3.140  0.3091  0.1356 -0.2503
23679W        W43213   6.347  16.273   4.738  0.1900 -0.4421 -0.0854
23680W        W43214   1.159   7.891  10.482  0.3765 -0.1988  0.0546
23681W        W43215  11.106   1.533   4.216 -0.0223 -0.0915 -0.0892
23682W        W43216  13.359   1.649   1.734 -0.0224 -0.0216 -0.1279
23683W        W43217   7.790  13.549   1.904  0.2682  0.3184  0.4702
23684W        W43218   4.292   9.166  12.571 -0.1230 -0.1198 -0.1336
23685W        W43219  11.669  11.937   2.091 -0.0726  0.1077 -0.1253
23686W        W43220  12.931   2.466   1.959  0.0207 -0.0577  0.2375
23687W        W43221   2.684  10.006  11.752  0.0924 -0.1031  0.3260
23688W        W43222   4.965  10.084   2.534  0.2811 -0.0849  0.0861
23689W        W43223  14.885   4.311  11.938 -0.1901 -0.2588 -0.2728
23690W        W43224   1.349   1.567  15.371  0.0173  0.1414 -0.3538
23691W        W43225  17.588  15.640   3.748 -0.0102 -0.4647  0.1141
23692W        W43226   0.952   4.947  13.037 -0.1581  0.0037  0.1378
23693W        W43227  10.492   7.904   0.455  0.3043  0.1102 -0.0178
23694W        W43228  17.199   8.878  13.477  0.0656  0.0524  0.1061
23695W        W43229   6.125   6.062   5.206 -0.0327  0.0271 -0.1915
23696W        W43230  14.182   7.979   2.765  0.4236  0.1667 -0.0566
23697W        W43231   0.249   6.289  14.007 -0.1782  0.2384  0.0113
23698W        W43232  15.991  12.154   0.010 -0.2455  0.2487  0.1407
23699W        W43233   7.593   2.047   1.791 -0.1063 -0.2207  0.1819
23700W        W43234  17.871  10.225   0.338 -0.0889  0.0628  0.1921
23701W        W43235   9.894  15.457  12.895 -0.2566  0.1225 -0.0333
23702W        W43236   3.119   2.508  14.245 -0.2952 -0.1220  0.0093
23703W        W43237   4.928   8.922   0.638 -0.0467 -0.1871  0.0641
23704W        W43238  14.774  15.220  12.990  0.2624 -0.1514 -0.0627
23705W        W43239   4.360  13.720   2.470  0.0061 -0.2734 -0.0216
23706W        W43240   7.385   7.689   3.500 -0.3017 -0.0037  0.1857
23707W        W43241  12.884   0.703   3.852 -0.0271  0.0363  0.0516
23708W        W43242   9.189   9.140  13.548  0.0612 -0.1170  0.1571
23709W        W43243  17.133   2.003  13.755  0.1627 -0.0321 -0.1025
23710W        W43244   2.255   4.877   5.671  0.0607  0.0611 -0.1757
23711W        W43245  18.032   0.493  14.861 -0.1292  0.0018 -0.0730
23712W        W43246  17.556  11.613   3.921  0.2892 -0.0319  0.1808
23713W        W43247   9.003   2.536   2.583  0.0398  0.0640 -0.1148
23714W        W43248   7.458  17.958   4.671  0.2498  0.3395  0.1805
23715W        W43249   3.131   8.910  10.678 -0.1318  0.0868 -0.1199
23716W        W43250  11.848   4.406   4.102  0.1975  0.1121 -0.1903
23717W        W43251  17.206   0.431  14.321  0.1285 -0.1035  0.0918
23718W        W43252  12.863  10.730   2.481 -0.4494  0.1579 -0.0750
23719W        W43253   5.029   3.938  15.594  0.2027  0.2900  0.4709
23720W        W43254  13.081  13.977   0.794  0.3410 -0.2288 -0.0669
23721W        W43255   6.586  16.110  12.894  0.2134  0.4190  0.1270
23722W        W43256  14.309  10.343   2.005  0.1779 -0.0542  0.1331
23723W        W43257   9.830   2.063  13.897  0.3931 -0.0345 -0.0914
23724W        W43258  13.093  13.797  12.228  0.0879  0.0277 -0.3450
23725W        W43259  15.158  17.878   3.789 -0.0320  0.1439 -0.1822
23726W        W43260  14.411   7.686   4.086 -0.1519 -0.2052  0.0960
23727W        W43261   5.482  14.460   1.255 -0.2109 -0.2611  0.2198
23728W        W43262  16.244   3.184  12.060  0.0404  0.1312 -0.1958
23729W        W43263  16.592   1.358  14.546  0.1026 -0.1970  0.0719
23730W        W43264  12.148  15.419  12.854 -0.0020  0.1615  0.0756
23731W        W43265   9.827   6.505   2.848 -0.0504 -0.3712  0.1580
23732W        W43266  17.529  10.759   3.300  0.0522  0.0933 -0.3267
23733W        W43267  16.593   5.410  12.835  0.5373 -0.1097 -0.1214
23734W        W43268  14.351  15.357  13.316 -0.2214  0.2890 -0.2411
23735W        W43269   8.696  11.011   1.019  0.0998  0.3540 -0.2504
23736W        W43270  11.007  16.439  14.642  0.0574  0.0367 -0.1825
23737W        W43271   4.098  14.973   5.419 -0.0861 -0.0237 -0.1282
23738W        W43272   7.453  18.056  14.718  0.0526  0.1657 -0.1074
23739W        W43273   6.641  11.960   0.212 -0.0274 -0.0897 -0.1146
23740W        W43274   2.479  16.203   1.728 -0.2890 -0.0230  0.1073
23741W        W43275   7.604   6.424  15.302 -0.2465  0.0010 -0.1293
23742W        W43276   7.958   3.766   0.667 -0.0440 -0.0834 -0.3298
23743W        W43277   6.480   5.193  14.534 -0.0258  0.0722 -0.0140
23744W        W43278   6.527   5.488  13.914 -0.2010 -0.2775  0.1297
23745W        W43279   5.853   9.263  14.322 -0.0682  0.0158 -0.2832
23746W        W43280   0.778   2.508  13.325  0.2193  0.0968  0.0825
23747W        W43281   9.320  14.963  15.271  0.1679  0.1138 -0.1006
23748W        W43282  10.701  16.711  15.582 -0.1828  0.1118  0.0472
23749W        W43283   4.579  16.273   1.390 -0.1387  0.1809  0.0245
23750W        W43284   4.321   3.444   3.863  0.1937 -0.2043 -0.1276
23751W        W43285   4.808   8.612  14.026 -0.1576  0.1039  0.0075
23752W        W43286   2.591   6.663  13.921 -0.0631  0.1995  0.1695
23753W        W43287   7.809  17.797  12.955 -0.1662  0.2004 -0.2654
23754W        W43288   8.551  15.525   2.902  0.2095  0.0834 -0.2085
23755W        W43289   6.087  17.598  12.318 -0.0619 -0.1157  0.0406
23756W        W43290  13.944   9.183  11.122  0.0304 -0.0745 -0.0108
23757W        W43291  11.849  13.923  12.963 -0.0066 -0.1043 -0.0647
23758W        W43292   3.292   8.627   3.574 -0.3080  0.2325  0.1696
23759W        W43293   4.987  11.456   1.172 -0.1618  0.0281 -0.0151
23760W        W43294  11.165   8.914   3.615  0.3421  0.3435  0.2127
23761W        W43295   5.449   0.203   1.222  0.0503  0.1964  0.1020
23762W        W43296  17.435  17.454   0.942 -0.0984  0.1972 -0.2708
23763W        W43297   1.531  14.420  15.594 -0.0428  0.1513 -0.2592
23764W        W43298   8.945   5.946   3.678  0.2345 -0.3389 -0.0485
23765W        W43299   1.323   5.222  14.307  0.0673  0.1578 -0.0905
23766W        W43300  15.427   2.123   2.252  0.0069 -0.1864 -0.1391
23767W        W43301  12.297   7.398   0.528  0.0860 -0.2178  0.0201
23768W        W43302   4.392  15.917  12.361  0.0287  0.0187 -0.0681
23769W        W43303   1.086   1.731  12.876  0.1617  0.3435  0.0163
23770W        W43304   3.664  12.287   2.937 -0.2996 -0.4558 -0.1698
23771W        W43305   4.946  13.235   0.934 -0.1839 -0.1719 -0.0759
23772W        W43306  14.206  12.983   4.164  0.2185 -0.5225 -0.1637
23773W        W43307   1.722   6.360  15.020 -0.1205 -0.1089 -0.0703
23774W        W43308  17.355  18.000  13.999 -0.0353  0.0685  0.3068
23775W        W43309  14.319   8.303   4.510 -0.0118  0.0384  0.2019
23776W        W43310   5.536  11.567  13.912 -0.3647 -0.3263  0.2299
23777W        W43311   4.199   9.537   0.283 -0.1916 -0.0701 -0.3246
23778W        W43312   8.547  13.942   3.451 -0.0014 -0.0279  0.0176
23779W        W43313   7.235   2.809   4.277  0.0134 -0.0241  0.0082
23780W        W43314  12.956  15.597  15.072 -0.2127 -0.0989  0.1730
23781W        W43315  18.211   8.532   3.721  0.0263 -0.1560  0.1373
23782W        W43316  10.534   5.206  11.647 -0.0489  0.1631 -0.4383
23783W        W43317   6.192   6.214  14.663 -0.1663  0.0827  0.1512
23784W        W43318   8.410   7.875  14.258 -0.1871 -0.4138 -0.1239
23785W        W43319   0.255  18.309   0.772 -0.1002 -0.1280  0.1825
23786W        W43320  11.260   8.839  10.502 -0.1105 -0.0295 -0.1170
23787W        W43321  16.518  16.473   0.556  0.1709  0.4063  0.1689
23788W        W43322  17.225  15.806  14.046  0.0323  0.0372  0.4891
23789W        W43323   7.275   2.444   3.473 -0.0668  0.0293  0.1437
23790W        W43324   8.991  13.925   1.283  0.0609 -0.1381 -0.0351
23791W        W43325  15.742   3.991   2.558 -0.1307  0.0272 -0.0750
23792W        W43326  16.149  16.875   4.153 -0.0231  0.2651  0.1254
23793W        W43327   5.693   3.890   0.059  0.1313 -0.2353 -0.1500
23794W        W43328   3.024   0.811  11.364  0.1908 -0.2403  0.0665
23795W        W43329   0.385   8.695  14.803  0.0165 -0.1409  0.0293
23796W        W43330   4.147   9.188   0.663 -0.0729 -0.0778 -0.0215
23797W        W43331   2.208   8.583  11.573 -0.3322  0.1846 -0.3455
23798W        W43332   7.237   3.924   1.635  0.1906  0.0521  0.1305
23799W        W43333  12.912  18.032  15.167  0.0107 -0.0389  0.0576
23800W        W43334   6.521   3.610  12.324 -0.2377  0.0688 -0.1107
23801W        W43335  15.625  15.448   3.978  0.3777  0.1708 -0.1553
23802W        W43336  18.143   0.499   4.261 -0.1723 -0.0057  0.1583
23803W        W43337   8.825   5.359   1.691 -0.0040  0.1336  0.1880
23804W        W43338   0.204   3.748  12.136 -0.3139  0.1684  0.0355
23805W        W43339  13.458  11.240   3.563 -0.0072 -0.2151 -0.1809
23806W        W43340   4.855  11.598   3.794  0.1827  0.1887  0.3659
23807W        W43341   1.119  17.664   2.284  0.0891  0.1322  0.0888
23808W        W43342   2.925   2.110  14.808 -0.0067 -0.0907 -0.1188
23809W        W43343   4.236   5.570  15.333 -0.2487  0.0733 -0.4050
23810W        W43344   3.131  10.191  11.540 -0.3919 -0.0264  0.0659
23811W        W43345  11.376   7.389   1.307  0.3666 -0.1789  0.1233
23812W        W43346  15.259   2.656  12.195  0.0199 -0.1822 -0.3395
23813W        W43347  18.303   8.496  11.087  0.1042 -0.0042 -0.2222
23814W        W43348  14.265   5.583   2.615 -0.0092  0.0262  0.0094
23815W        W43349   3.706  10.064   0.873  0.2280  0.3554  0.0147
23816W        W43350   0.403  17.790   1.287  0.0016  0.0608  0.4035
23817W        W43351   7.096  10.818  12.703 -0.3023  0.1528  0.4466
23818W        W43352   5.910   8.426  14.680  0.0009  0.3111 -0.1095
23819W        W43353   8.169  11.325  13.844 -0.1199  0.2550  0.2007
23820W        W43354  12.756   6.771   1.542  0.0668 -0.0543 -0.2767
23821W        W43355  17.478  13.009  11.037  0.5495  0.0894  0.2104
23822W        W43356  10.255  11.060  13.665  0.1789  0.0802  0.3175
23823W        W43357  16.527   5.284  13.318 -0.2554  0.3875  0.0230
23824W        W43358   3.290  18.291  12.299 -0.1952 -0.2587  0.0650
23825W        W43359   7.389  14.696   2.377 -0.1863  0.1728  0.4221
23826W        W43360  16.176  18.219   2.686 -0.1666  0.0659  0.2021
23827W        W43361   2.605   8.065  14.797 -0.3786 -0.1285 -0.3356
23828W        W43362  15.115   7.321  15.467 -0.2239 -0.1699  0.0105
23829W        W43363   0.730   7.939   0.646 -0.1764  0.0617  0.0976
23830W        W43364  14.956  17.204  12.603  0.0675  0.0404 -0.3200
23831W        W43365  17.729  12.044  11.560 -0.1877 -0.1033 -0.2912
23832W        W43366  13.766  16.540  12.163 -0.4263  0.0537 -0.0244
23833W        W43367   9.996   7.176   2.955 -0.1481 -0.0272 -0.4858
23834W        W43368  17.521   6.127   1.335 -0.4245 -0.0072 -0.0912
23835W        W43369  16.947   6.111  11.503  0.0975  0.0597 -0.0057
23836W        W43370  17.642   5.229   1.246 -0.2777  0.2638 -0.2589
23837W        W43371  18.188   2.576   3.710  0.0827  0.1365 -0.0448
23838W        W43372  17.046   1.193  13.979 -0.2740  0.1914  0.0337
23839W        W43373  13.192   5.444   3.488 -0.2244 -0.3017  0.0571
23840W        W43374   3.375  17.749   3.387 -0.2506  0.3271  0.0095
23841W        W43375  12.044   7.989   1.971 -0.1026  0.0419 -0.0927
23842W        W43376  15.454  15.733  11.201 -0.0086 -0.1566  0.0320
23843W        W43377   8.134   3.020  14.443  0.2976 -0.1764 -0.0958
23844W        W43378   7.339   6.736   3.777 -0.0478 -0.1822  0.0183
23845W        W43379  11.438   8.660  14.423  0.3001  0.0970  0.1462
23846W        W43380  11.420  17.256   5.673  0.0282  0.0385 -0.1540
23847W        W43381   8.776   1.613  13.803  0.0497 -0.2474  0.1777
23848W        W43382   0.912  14.954  13.139  0.0489  0.0751  0.0006
23849W        W43383   6.315   6.507   3.107  0.1044 -0.0948  0.1488
23850W        W43384   4.649  12.212  12.001 -0.2008  0.1636 -0.0666
23851W        W43385  12.245   8.945  14.865 -0.2384  0.0177  0.0419
23852W        W43386  14.686  17.956  13.223 -0.1656 -0.3686 -0.2410
23853W        W43387   8.823  10.065   4.466  0.2227 -0.0151 -0.1136
23854W        W43388   2.200   5.667   0.783  0.0133  0.0217  0.0451
23855W        W43389   4.613   4.208  15.608  0.3655  0.0265 -0.2047
23856W        W43390  13.171   7.137   4.301  0.0850 -0.0466  0.0706
23857W        W43391   5.133   5.840  15.747 -0.0997 -0.0675  0.2009
23858W        W43392   8.021   9.322   5.452  0.0085  0.3000 -0.1316
23859W        W43393  11.561   4.604   2.894 -0.0403 -0.0137  0.1504
23860W        W43394   5.076   7.242   1.375 -0.1725  0.2196 -0.1497
23861W        W43395   6.228   9.999  14.137 -0.0209  0.0742 -0.3149
23862W        W43396   8.536   9.428  12.298 -0.0363  0.1626 -0.0847
23863W        W43397  15.479  13.966   4.516 -0.2635 -0.2433  0.1001
23864W        W43398   1.720   7.331  13.985  0.1829 -0.3101 -0.1727
23865W        W43399   9.145  14.608  14.242  0.0475 -0.2675 -0.0808
23866W        W43400  14.083   8.556  13.157  0.3701  0.1393  0.2692
23867W        W43401  14.734  13.328  15.506  0.0227  0.1073 -0.1447
23868W        W43402   7.888  14.475   2.200 -0.1209  0.0295 -0.0375
23869W        W43403  16.931  15.886  12.809 -0.0908 -0.1848 -0.1698
23870W        W43404  11.504  10.602   1.533  0.1735 -0.1944 -0.1004
23871W        W43405  13.666  15.331  15.747 -0.0530  0.1621 -0.0523
23872W        W43406   5.327  17.115  12.862 -0.1109  0.0753  0.0792
23873W        W43407   9.145  15.983   2.689  0.1792 -0.1509  0.1634
23874W        W43408   4.814   7.996   4.313 -0.1689  0.1658  0.2022
23875W        W43409   8.523   7.593   2.930 -0.1026  0.2185  0.1405
23876W        W43410  11.303   0.984  12.652  0.0558  0.0092 -0.0050
23877W        W43411   4.118   1.786  15.817  0.1793 -0.1561 -0.0176
23878W        W43412   6.664  15.240  11.626 -0.1856  0.1733 -0.0215
23879W        W43413   5.925  16.609  14.825 -0.0893 -0.0151  0.4263
23880W        W43414  10.861   6.755   4.706  0.1497  0.2121  0.0148
23881W        W43415  15.795  15.751  14.370 -0.1945  0.0806  0.2626
23882W        W43416   3.244  15.709   2.854  0.0889 -0.0553 -0.1194
23883W        W43417   2.960   5.353  14.686  0.0472 -0.1462  0.0695
23884W        W43418  12.966  16.775   4.647  0.1004 -0.1709  0.1987
23885W        W43419  16.841   8.923   0.567  0.1667  0.1540  0.1187
23886W        W43420  14.919   1.218   3.280 -0.1048  0.2407 -0.1855
23887W        W43421  12.248   2.143   0.296 -0.0615  0.2728  0.0068
23888W        W43422   3.373  16.028   4.225  0.0258 -0.1288  0.1323
23889W        W43423  10.197  14.046  15.675 -0.1726  0.1900  0.1356
23890W        W43424  13.893   2.584  11.373  0.0095  0.0501 -0.0716
23891W        W43425   3.441  14.471   2.565  0.0070 -0.1679 -0.0287
23892W        W43426  16.025  15.725   5.297 -0.1115  0.3552  0.1022
23893W        W43427   1.783   2.418  11.054  0.5006  0.0131 -0.2323
23894W        W43428  14.000   0.243   5.004 -0.1527  0.0220  0.1400
23895W        W43429  10.173  11.432  14.196  0.0344  0.3184  0.2288
23896W        W43430   3.725   4.087   1.040  0.0963  0.1461  0.0815
23897W        W43431  18.068  11.172  15.298 -0.3373  0.1332  0.2434
23898W        W43432  15.740  13.635  14.962  0.0884  0.0200  0.2411
23899W        W43433   0.927  14.356  10.877 -0.3196  0.0925 -0.2880
23900W        W43434   1.823   6.044   0.696 -0.1772  0.1806  0.0929
23901W        W43435  13.502   3.880  12.663  0.0381  0.2392 -0.1942
23902W        W43436   4.330   4.934  14.099 -0.0298  0.1299 -0.1546
23903W        W43437  12.409  10.805  13.113 -0.0061  0.2035  0.3595
23904W        W43438   6.159  18.172   4.372  0.0119 -0.1723  0.1146
23905W        W43439   9.929   6.192  12.834  0.1858  0.1494 -0.0298
23906W        W43440  16.387  12.680   3.081  0.1510 -0.0695  0.1710
23907W        W43441  11.879  10.022  14.506  0.0232 -0.1090 -0.0849
23908W        W43442   6.050  13.787   4.672 -0.0037 -0.1687 -0.0965
23909W        W43443  10.450  17.613  15.531 -0.0270 -0.3330  0.0195
23910W        W43444   4.931   9.771   1.628 -0.0830 -0.2247 -0.2115
23911W        W43445  12.359  12.414  15.401  0.0910  0.0130  0.1113
23912W        W43446   9.122  10.988   3.413  0.0774 -0.3714 -0.1720
23913W        W43447  13.252   8.734   2.202  0.1959 -0.3163  0.1110
23914W        W43448  15.564   9.050  15.826 -0.0257  0.4506 -0.1058
23915W        W43449   9.616  15.938   4.185  0.0290 -0.1617  0.1150
23916W        W43450   2.693   7.979   3.090 -0.1213  0.0123  0.2229
23917W        W43451   4.551   6.799   3.305  0.1406  0.3222  0.1712
23918W        W43452  13.625   6.659  14.071 -0.0356 -0.0892  0.2976
23919W        W43453   6.324   5.935  13.734  0.0648  0.0214  0.1007
23920W        W43454  11.048   4.852  14.000  0.0066  0.1261  0.0289
23921W        W43455  12.529   6.533  12.334  0.1050 -0.0236 -0.1415
23922W        W43456   7.572  10.431   1.962  0.0348  0.1021 -0.4773
23923W        W43457  10.698   3.058  11.843 -0.0898  0.0277  0.2940
23924W        W43458   9.639  13.434   0.086 -0.1712 -0.2491  0.1194
23925W        W43459   0.499   7.377   3.344  0.1429 -0.0346 -0.2916
23926W        W43460   3.628   5.323  12.951  0.1796 -0.1403 -0.1011
23927W        W43461   3.311   9.610   2.490 -0.2154 -0.0121 -0.0592
23928W        W43462  13.424  10.195  12.492  0.1984 -0.2396 -0.0016
23929W        W43463  12.074  13.961  15.618  0.0236 -0.1478  0.1449
23930W        W43464   0.526   5.274   3.354 -0.2648 -0.2370  0.0300
23931W        W43465   4.091   6.644  14.478  0.1228 -0.1056 -0.0304
23932W        W43466  17.375   6.856  13.459  0.0509  0.0573  0.2752
23933W        W43467   9.575   4.215   2.343  0.1569 -0.3952 -0.2683
23934W        W43468   1.862   9.621  13.511  0.4176  0.3114 -0.0965
23935W        W43469  11.992  13.070  13.200 -0.1248 -0.0632 -0.0659
23936W        W43470  11.307   7.861   4.199 -0.2435  0.1978 -0.0274
23937W        W43471  14.145   3.526  10.960  0.2404  0.0711 -0.0507
23938W        W43472  10.336   7.061   3.854 -0.4414 -0.1386  0.2146
23939W        W43473   7.329  17.038   0.588 -0.1987  0.0120  0.3251
23940W        W43474  11.883   7.811  13.213  0.0372 -0.1106 -0.2042
23941W        W43475   4.934   5.048  13.538  0.1045  0.0926  0.2981
23942W        W43476  15.397  17.567   1.564  0.1609  0.0943 -0.2016
23943W        W43477  10.960  12.927   4.097 -0.0413 -0.0108  0.2741
23944W        W43478  12.926   6.121  11.335 -0.2297 -0.1843 -0.2098
23945W        W43479   3.624   2.324   4.694  0.1381 -0.2198 -0.0444
23946W        W43480   1.658  13.040  15.765  0.2109  0.0061  0.1840
23947W        W43481  14.976  16.794  12.880  0.0516 -0.0321 -0.0113
23948W        W43482  17.277   8.039   0.374 -0.4265 -0.1425 -0.2872
23949W        W43483  11.286  13.350   0.557 -0.6152  0.0110  0.0662
23950W        W43484   0.890  11.420   0.385  0.0651 -0.1728 -0.0994
23951W        W43485  16.157   3.370   1.140 -0.0113 -0.3562 -0.1980
23952W        W43486   2.131   9.030   3.126 -0.0517  0.0685 -0.0124
23953W        W43487   0.942   5.612   3.281 -0.2740 -0.0052  0.1078
23954W        W43488   3.897   5.276   3.828  0.0552 -0.0305 -0.0960
23955W        W43489  10.081   5.364  13.236 -0.1694  0.1211  0.1240
23956W        W43490  16.012  13.634  13.953  0.0947  0.1250 -0.3486
23957W        W43491   1.991   0.816   1.508  0.3956  0.0281  0.0941
23958W        W43492   2.388  13.895  12.681  0.1623 -0.0057  0.1528
23959W        W43493  11.704  14.437   2.735 -0.0241  0.0131 -0.2951
23960W        W43494   4.080   4.290   0.685 -0.2105  0.0379  0.0725
23961W        W43495   2.446   7.769  15.238  0.0770 -0.0858 -0.1074
23962W        W43496   9.903  12.264  13.798  0.0910 -0.2196  0.1474
23963W        W43497   3.986  16.916   4.920 -0.0326  0.2433  0.1894
23964W        W43498   1.639   3.992  14.069  0.0376 -0.0489  0.0963
23965W        W43499   2.799  15.677   1.078  0.0572  0.0542  0.1786
23966W        W43500  17.279  11.765  13.988  0.1483 -0.0748  0.1861
23967W        W43501   1.536  14.832   3.170 -0.0577 -0.0455  0.1064
23968W        W43502  18.142  16.637  13.293 -0.3559  0.0110  0.2747
23969W        W43503   1.950   4.950  13.036 -0.1237  0.1733 -0.1035
23970W        W43504  15.219  15.362  11.438 -0.2526  0.0568  0.0750
23971W        W43505  14.917   5.241  10.627 -0.0766 -0.0321  0.0505
23972W        W43506   7.734   3.919  14.374  0.0427  0.0066 -0.1310
23973W        W43507  10.806   2.506   5.795 -0.1968 -0.0038 -0.1043
23974W        W43508  17.693   4.351   3.448  0.5357 -0.1321  0.1663
23975W        W43509   8.518   0.548  12.905 -0.0157 -0.3418  0.1594
23976W        W43510   4.109   7.375  12.070  0.0069 -0.0504 -0.1120
23977W        W43511   4.805   0.160  13.364 -0.1153  0.1671  0.0570
23978W        W43512   6.444  11.180   3.243 -0.0662  0.0322 -0.0333
23979W        W43513  12.237   6.099   1.629 -0.0204  0.0931  0.1987
23980W        W43514  10.303   6.793   2.856 -0.2527 -0.1392 -0.1858
23981W        W43515   3.389  15.810   0.856 -0.0064 -0.4334 -0.1039
23982W        W43516  14.189  12.899  12.016 -0.0720 -0.2768 -0.1180
23983W        W43517   0.721  13.978  13.520  0.1155 -0.1517 -0.3362
23984W        W43518   7.233   2.832   0.804 -0.0903 -0.1124  0.0248
23985W        W43519  10.024   2.642   2.498  0.0776 -0.0658  0.0410
23986W        W43520   0.235   4.501   1.459  0.1783 -0.2939 -0.0949
23987W        W43521  17.633   9.563   0.222  0.0122  0.0127  0.1040
23988W        W43522   3.711  15.635  12.763 -0.3630  0.0959  0.0724
23989W        W43523  11.501  13.534  14.554 -0.1944 -0.1931 -0.0159
23990W        W43524  13.178   3.376  15.523  0.0976  0.0901 -0.0405
23991W        W43525   2.943   4.907  15.106 -0.0592 -0.2335  0.0458
23992W        W43526  11.268  13.914  11.692  0.2123  0.0033  0.0833
23993W        W43527  11.665   7.222   4.549 -0.0837  0.1234  0.0287
23994W        W43528  13.595  13.729   3.637 -0.1282 -0.1837  0.1085
23995W        W43529   0.187  10.988  11.569 -0.0325  0.0268 -0.1490
23996W        W43530   1.407   0.996  13.140  0.1724  0.2213  0.0109
23997W        W43531   5.757  13.603   3.876 -0.0675  0.0325 -0.2611
23998W        W43532   6.395   3.343  15.698 -0.1184  0.0262 -0.0162
23999W        W43533  11.836  17.159   0.578 -0.4467  0.1573 -0.2348
24000W        W43534  18.306  16.905  14.736 -0.2142  0.1948  0.4531
24001W        W43535  16.962  15.070  13.463  0.0197 -0.2487 -0.0128
24002W        W43536   6.586   0.373  14.118  0.1323 -0.1672  0.1715
24003W        W43537  14.758   0.052  13.470 -0.5385  0.2280 -0.1022
24004W        W43538   3.709   6.198  13.324  0.1143 -0.0200  0.0267
24005W        W43539  11.992  11.602  15.750 -0.2874  0.1298 -0.0705
24006W        W43540   0.831  16.983  12.502  0.0493 -0.0581  0.1020
24007W        W43541   4.437  17.113   3.612 -0.0310  0.1048 -0.4127
24008W        W43542  16.024   5.130   1.992 -0.1528  0.0151  0.0802
24009W        W43543   8.662  15.045   0.883 -0.2326  0.0382 -0.0128
24010W        W43544   8.358   6.266  13.110  0.1783 -0.2152 -0.1468
24011W        W43545   0.062   0.474  11.919  0.2298 -0.1724 -0.0740
24012W        W43546   7.814  18.030   1.480  0.4698  0.0922  0.0749
24013W        W43547   3.317  16.432  13.453 -0.4057 -0.0659  0.0546
24014W        W43548   2.204   0.318  15.707  0.1764 -0.0642 -0.2030
24015W        W43549  14.383  15.073  12.414 -0.2709  0.2089 -0.1236
24016W        W43550   6.833   6.374   3.201  0.1070  0.0171 -0.0451
24017W        W43551  14.298   3.468   3.918  0.1702 -0.0318 -0.0459
24018W        W43552  11.756  14.968  11.984 -0.1145 -0.0862  0.2789
24019W        W43553  15.523  12.292  12.453  0.0865  0.1214 -0.1172
24020W        W43554   0.622  10.577  13.295  0.2369  0.1383  0.1026
24021W        W43555   4.253   0.993   2.211  0.0016  0.0788 -0.0018
24022W        W43556   0.430   9.519  11.080 -0.1835  0.1221  0.3356
24023W        W43557  13.564   6.955  13.446  0.0912  0.1392 -0.1082
24024W        W43558  18.112  10.153  12.558  0.2318 -0.2765  0.1819
24025W        W43559   2.969   1.662   1.831 -0.0463 -0.1387 -0.0427
24026W        W43560   2.122  18.107  13.155  0.1146  0.4103  0.2351
24027W        W43561   0.784   9.662   2.216  0.0775  0.2657 -0.1050
24028W        W43562   6.338   8.996  13.290 -0.2068  0.3065 -0.0318
24029W        W43563   1.299   6.538   3.426  0.0565  0.1030  0.3168
24030W        W43564  17.090   8.903  14.932  0.1417 -0.2515 -0.2100
24031W        W43565   0.564  16.414  15.252 -0.1078  0.2023 -0.3344
24032W        W43566   3.472  11.775  12.726  0.0538 -0.0542 -0.0167
24033W        W43567   4.215   8.331   3.603  0.1927  0.4575 -0.2475
24034W        W43568   1.486   0.055   1.182  0.0299  0.0349  0.1490
24035W        W43569   2.812   7.946   1.950  0.1561  0.1242 -0.2605
24036W        W43570  10.722   8.222  12.577  0.0784  0.0262 -0.0278
24037W        W43571   3.043  11.136  12.176  0.0259  0.1675  0.2154
24038W        W43572   0.309   4.035  15.614  0.1904 -0.2271 -0.0771
24039W        W43573   7.454   0.773  15.460 -0.0297  0.1644  0.0715
24040W        W43574  17.617   4.073  14.162 -0.0720  0.1093 -0.0708
24041W        W43575   7.658  17.693   2.599 -0.0159 -0.3530  0.4532
24042W        W43576   4.241  10.786   4.213 -0.0652  0.2101  0.2444
24043W        W43577   0.840   7.138  11.078 -0.0923  0.1304 -0.1460
24044W        W43578  17.228   1.922  14.833  0.1776 -0.2236 -0.0380
24045W        W43579   6.367  18.157   2.574 -0.0077 -0.2180 -0.2548
24046W        W43580  10.598  10.633  11.863 -0.0416  0.0197 -0.0580
24047W        W43581  16.270  14.908  14.488  0.1384 -0.2528  0.2628
24048W        W43582  15.017  11.738   3.401  0.0966 -0.1585 -0.0656
24049W        W43583  10.791   0.430  15.786  0.1207  0.0434 -0.1381
24050W        W43584  11.717   4.851  11.913 -0.0451 -0.2463  0.1609
24051W        W43585  15.430  11.570  13.089  0.0520 -0.1482 -0.2199
24052W        W43586   1.485   6.380  11.941 -0.0678 -0.1671 -0.1629
24053W        W43587  12.360  16.415   4.663  0.0867  0.4301 -0.1920
24054W        W43588   2.934   3.314  12.535 -0.0908 -0.0353  0.4694
24055W        W43589  16.688   3.610   4.424  0.4778 -0.0932  0.1203
24056W        W43590   3.466  12.709   4.164 -0.0104  0.0119 -0.1041
24057W        W43591  13.336  11.319  12.666 -0.1276 -0.2812 -0.1274
24058W        W43592  10.427  13.306  12.238  0.0735  0.0893  0.1527
24059W        W43593  12.578   9.263   0.889  0.1006  0.1245 -0.0349
24060W        W43594   8.853   4.351   4.983 -0.0730 -0.1872 -0.1442
24061W        W43595   8.621  10.408  12.190 -0.0227  0.2018 -0.2206
24062W        W43596  15.931  14.452   1.166  0.0851 -0.0948 -0.2081
24063W        W43597  16.095   3.360   1.642 -0.3172  0.0264  0.3338
24064W        W43598  13.563  16.804   4.430 -0.0172 -0.3223  0.0723
24065W        W43599  13.102  16.992  14.220 -0.0669  0.1538  0.1311
24066W        W43600  14.090   3.356   0.870 -0.1711 -0.2502 -0.4253
24067W        W43601  16.390  15.701  15.229 -0.2401 -0.0434 -0.2785
24068W        W43602  13.728  14.570   5.775 -0.2427 -0.1676 -0.1031
24069W        W43603  14.832   9.883   2.169  0.0777 -0.2431 -0.1400
24070W        W43604   5.531  10.155   4.235  0.0638 -0.1521  0.0093
24071W        W43605  11.093   2.759  11.975  0.0776  0.1843  0.0075
24072W        W43606   7.295  12.872   3.254 -0.1066 -0.1620  0.3778
24073W        W43607   7.514  17.631   3.138  0.0776 -0.0789 -0.2221
24074W        W43608  10.572  12.483  15.235  0.2318 -0.1298  0.1978
24075W        W43609  14.689  12.107  14.653 -0.0807  0.0802  0.0520
24076W        W43610  10.590  15.599   4.650 -0.1201 -0.0120 -0.2343
24077W        W43611  15.578  12.789   1.326  0.0504 -0.3878  0.0816
24078W        W43612  15.330   7.080   5.242 -0.2120  0.2530  0.0753
24079W        W43613   0.056   0.203   2.183 -0.1874 -0.1576  0.0650
24080W        W43614   5.789   5.403   0.350 -0.0613  0.0146 -0.1532
24081W        W43615  14.909   6.895   3.921 -0.0622  0.1843  0.2213
24082W        W43616  16.582  15.830   3.519 -0.0287  0.1662 -0.2344
24083W        W43617  12.546   7.536   2.682  0.1454 -0.1817 -0.3325
24084W        W43618   6.468  12.540   1.794  0.1915 -0.0121  0.0163
24085W        W43619  10.373  12.989  15.159 -0.0533  0.0666  0.0628
24086W        W43620   2.573  10.693   2.744 -0.0991 -0.3222  0.0163
24087W        W43621  14.298  17.399   1.463  0.2751 -0.3298 -0.2060
24088W        W43622   1.289  15.060  12.221  0.1066 -0.0216 -0.3546
24089W        W43623  16.928   8.342   3.355  0.2886 -0.0395 -0.1906
24090W        W43624  15.126  17.647  15.737  0.1654 -0.2673  0.3186
24091W        W43625   7.699  12.408  10.934 -0.2264  0.3285 -0.0455
24092W        W43626   4.116   4.880   3.543  0.1360  0.0940  0.4226
24093W        W43627  13.812  17.100  11.820 -0.0419 -0.0426  0.3310
24094W        W43628   0.143  17.460   0.233 -0.1525 -0.0396 -0.0062
24095W        W43629   8.834  15.341  12.205 -0.0601  0.2758  0.2405
24096W        W43630   7.382  12.341   1.782  0.1261  0.2620 -0.0564
24097W        W43631  17.699  18.170   1.980  0.1318  0.1801 -0.0128
24098W        W43632  11.451  11.689   0.413 -0.0732  0.0270 -0.0307
24099W        W43633   3.130  12.316  13.650  0.1218 -0.0621  0.4373
24100W        W43634  15.517   7.039   3.844 -0.1916 -0.0473 -0.0975
24101W        W43635  11.500  15.923   2.317 -0.1007 -0.1012 -0.0470
24102W        W43636   5.635  11.455   2.489 -0.0783 -0.0104  0.0803
24103W        W43637  14.197  13.277   2.037  0.1549  0.1427 -0.2892
24104W        W43638  12.090  10.345   2.119 -0.0316  0.0357  0.1023
24105W        W43639   6.203   4.968   1.642  0.3342 -0.0418  0.1324
24106W        W43640   0.887   5.547  11.532 -0.1668 -0.0870 -0.0083
24107W        W43641   0.362   7.066   0.580 -0.1854  0.0332  0.1365
24108W        W43642   3.923   8.970   1.976 -0.2430 -0.0183 -0.4217
24109W        W43643  10.858   0.971   4.181  0.1789 -0.5184  0.1110
24110W        W43644   7.021   8.297  12.209 -0.1211 -0.3087  0.2917
24111W        W43645  15.304  17.730  13.367  0.3188  0.1509  0.0580
24112W        W43646   0.575  12.797   2.507  0.2268 -0.0500 -0.0385
24113W        W43647   4.405   0.797   4.567 -0.3689  0.1383  0.2317
24114W        W43648   8.581   5.727  11.716  0.1046  0.0643 -0.0418
24115W        W43649   7.329   6.059  15.530 -0.0594  0.0648 -0.3712
24116W        W43650   2.745   9.874   0.104 -0.4994  0.1525 -0.4207
24117W        W43651  14.400  12.421  11.896 -0.1517 -0.0965 -0.1071
24118W        W43652  16.263  16.955   1.256 -0.0514 -0.0721 -0.0809
24119W        W43653  17.060  16.939   3.886  0.0015  0.1815  0.0463
24120W        W43654  17.969   5.259   1.811 -0.1363  0.0638 -0.0946
24121W        W43655   3.503   2.691   4.334  0.0661 -0.0120  0.1285
24122W        W43656  15.343   9.960   4.442 -0.2389  0.0838  0.2019
24123W        W43657   0.447   8.679  12.494 -0.2933 -0.0648 -0.0138
24124W        W43658  11.569   4.088   1.440 -0.0419 -0.3115 -0.0230
24125W        W43659   7.716   6.276   0.176 -0.0943  0.0132  0.1535
24126W        W43660  10.759  14.497   3.089 -0.0667 -0.0653  0.3319
24127W        W43661  18.191   4.903  11.054 -0.0630  0.2485 -0.1465
24128W        W43662   9.593   8.553   0.362  0.1240  0.2207 -0.4447
24129W        W43663   0.214   3.002   3.795 -0.0637  0.2211  0.0387
24130W        W43664   7.407   1.519  13.354  0.0391 -0.2147  0.3141
24131W        W43665   6.387  12.944  11.485  0.1044 -0.0797 -0.3588
24132W        W43666   0.944   7.285   3.630  0.1627 -0.2049 -0.2081
24133W        W43667  17.524  14.787  12.013 -0.2312 -0.2397 -0.1709
24134W        W43668  16.580   6.407   2.165  0.0672  0.1661 -0.3931
24135W        W43669   7.254  12.501  11.404 -0.2363  0.4120 -0.1785
24136W        W43670   7.606  15.925  11.680 -0.3268  0.1162 -0.1000
24137W        W43671   4.041  10.316  12.757  0.2097  0.0895 -0.0898
24138W        W43672   5.132   3.558  11.624 -0.0488  0.1758 -0.1695
24139W        W43673   7.498   4.330   3.231 -0.2627  0.0587 -0.0623
24140W        W43674   8.189   5.580   2.016 -0.1877 -0.2429  0.1513
24141W        W43675   8.225  14.789  14.444  0.0312 -0.1191 -0.2117
24142W        W43676   3.434   7.255   3.635 -0.1581 -0.0305  0.5389
24143W        W43677  13.775   7.267  12.698 -0.1502  0.0530  0.0489
24144W        W43678  12.929  17.869  13.369 -0.1880 -0.0583  0.1467
24145W        W43679   3.979   0.777  11.841 -0.4684 -0.1422  0.0440
24146W        W43680  17.941  14.669   1.036 -0.1316  0.0857  0.0176
24147W        W43681   4.435   9.745   0.701 -0.1851  0.3987  0.3449
24148W        W43682   9.159  16.811   1.929 -0.2044  0.0334 -0.2439
24149W        W43683   1.855   3.430   4.252  0.1673  0.0665 -0.1974
24150W        W43684  16.962   4.250   4.166 -0.0986  0.3662  0.1006
24151W        W43685  17.549   7.081   1.830  0.0705 -0.0899 -0.2450
24152W        W43686   8.608  12.570   3.057 -0.1569  0.1156 -0.2162
24153W        W43687  13.892   3.106   4.075 -0.1772 -0.0548  0.1373
24154W        W43688  11.675   9.879  11.811 -0.1000  0.0419  0.2065
24155W        W43689   8.389   5.085   0.594  0.0860 -0.4582  0.0345
24156W        W43690  17.376  16.047  12.463 -0.0616 -0.1453  0.1995
24157W        W43691   1.693  16.337  12.783  0.1523 -0.0887  0.0727
24158W        W43692  14.570  11.802  12.636 -0.3296  0.0241 -0.1002
24159W        W43693   7.269  12.424   3.590  0.0094  0.0331  0.1274
24160W        W43694  16.719  10.419  14.624 -0.0486  0.2430  0.4261
24161W        W43695  12.000   0.464   4.293 -0.0062  0.2047 -0.0088
24162W        W43696  13.798  16.558   1.379  0.2518  0.0966  0.0248
24163W        W43697   5.991   9.545   4.530  0.2373  0.0807  0.0736
24164W        W43698   9.848  17.709  11.914  0.2290  0.0614 -0.0810
24165W        W43699   4.271  10.609   3.234 -0.0143 -0.1448 -0.0110
24166W        W43700   8.674  14.553  14.478  0.4659  0.0483  0.0891
24167W        W43701   0.353   2.628  12.322 -0.1959  0.3793  0.1817
24168W        W43702   2.747   6.049   0.915  0.2150  0.1527  0.2721
24169W        W43703  10.617  15.698  15.631 -0.0267 -0.0763 -0.2235
24170W        W43704  10.419   2.077  14.795  0.1077  0.3058 -0.1967
24171W        W43705  12.768  16.323   3.741 -0.0959 -0.0088  0.0796
24172W        W43706  13.234   5.114   2.143  0.2199  0.0193  0.0763
24173W        W43707   3.173  14.498   0.583 -0.3148  0.2737  0.1252
24174W        W43708   2.374  12.064   4.809 -0.1332  0.1091 -0.2723
24175W        W43709  15.837  12.345   3.852  0.2226  0.5102  0.3697
24176W        W43710  10.520  12.931  12.775  0.1039 -0.0602 -0.4271
24177W        W43711   9.266   7.381   2.473  0.2974  0.3383  0.0437
24178W        W43712   4.165   5.754   2.542  0.0310 -0.0848 -0.0490
24179W        W43713  13.109  13.076   0.357  0.1717  0.0112 -0.1267
24180W        W43714  17.470  10.272   2.605 -0.2546  0.0192 -0.0719
24181W        W43715   4.819  10.839   4.203 -0.3326  0.0165 -0.1673
24182W        W43716   0.598   0.755  12.928  0.0688  0.0407  0.0194
24183W        W43717   2.407  11.504   2.578  0.2137 -0.0994  0.0216
24184W        W43718   6.682  14.267   3.042  0.0622 -0.1166  0.2827
24185W        W43719   2.175  10.545  12.759  0.4271 -0.0892  0.0194
24186W        W43720   5.480  15.164  12.836 -0.0605  0.3788  0.0424
24187W        W43721  15.893   7.121  13.922  0.1677  0.1282  0.2592
24188W        W43722   9.646   6.660  15.323  0.3891 -0.1604  0.2931
24189W        W43723  17.033   3.180  12.777  0.1012 -0.0119 -0.0309
24190W        W43724  13.177   6.786   3.399  0.0833 -0.1024 -0.0524
24191W        W43725  13.575   6.253  15.191 -0.0256 -0.3393 -0.0788
24192W        W43726  14.911   8.384  12.286 -0.0927 -0.1717 -0.0665
24193W        W43727  13.189  15.278   1.529  0.0329  0.0842 -0.0312
24194W        W43728  13.121   5.513   2.945  0.0286  0.0376  0.1908
24195W        W43729   1.205  12.218  14.154  0.0966 -0.0017  0.2225
24196W        W43730  11.280  14.935   0.810 -0.4382  0.0695 -0.4216
24197W        W43731   0.894  18.210  12.957 -0.0609 -0.0486 -0.1719
24198W        W43732  17.917   3.835   0.452 -0.2403 -0.1494 -0.0202
24199W        W43733   7.785   5.362   4.420  0.0166  0.2905 -0.0357
24200W        W43734  11.200   0.003   3.096  0.3763 -0.0618  0.1704
24201W        W43735   9.937   4.634   0.290 -0.1057 -0.1071 -0.1527
24202W        W43736   2.882   1.635  14.618  0.2416 -0.2602  0.3344
24203W        W43737  13.162  10.748  15.109  0.0083 -0.2310  0.0365
24204W        W43738  17.978  17.365  12.340  0.0040  0.1898  0.0902
24205W        W43739   7.534   4.100   0.405 -0.0682 -0.1950  0.0425
24206W        W43740  16.929  13.435   0.912 -0.0389  0.0700 -0.1390
24207W        W43741   1.280   5.517   1.030  0.1597  0.0233  0.1066
24208W        W43742   1.281   1.964  13.316 -0.3182  0.0018 -0.1503
24209W        W43743  10.082  11.097   3.697  0.0320  0.1376 -0.1135
24210W        W43744   8.617   9.681  13.089  0.0556  0.0043 -0.2974
24211W        W43745   4.858   1.008  14.347  0.1899 -0.1035  0.1585
24212W        W43746  14.245   3.415  10.446  0.3601  0.0516  0.0564
24213W        W43747   3.765   0.137   2.138 -0.0275  0.1464  0.3284
24214W        W43748  17.184   1.705   2.929 -0.2123  0.2427  0.0657
24215W        W43749  13.044  10.695   0.748  0.1473  0.1084  0.0342
24216W        W43750   7.025  14.684  11.472 -0.0377  0.0400 -0.1378
24217W        W43751   9.629   0.851   3.315 -0.0360 -0.0112 -0.0953
24218W        W43752  16.810  18.340  12.198  0.0388  0.2670 -0.1546
24219W        W43753   5.042   7.614   1.792  0.0611  0.1636  0.1818
24220W        W43754   8.253   4.499  11.595  0.0455 -0.2473 -0.0110
24221W        W43755   0.595   5.595   2.830  0.0364 -0.0657  0.0565
24222W        W43756  15.489  11.593   1.174  0.1355  0.0572  0.2575
24223W        W43757   7.464   8.748   0.833  0.1091 -0.1340  0.0037
24224W        W43758   2.750  11.109   0.813  0.0884  0.0704 -0.1004
24225W        W43759  13.946   3.097  11.188  0.0401 -0.0027 -0.0104
24226W        W43760  16.053   4.164  13.612  0.0257  0.1720  0.1419
24227W        W43761   6.032  17.199  12.025 -0.1028 -0.0849 -0.2058
24228W        W43762   0.939  13.009  12.013  0.0710  0.0907 -0.0740
24229W        W43763  12.967  15.170   2.866  0.1338  0.0897  0.1976
24230W        W43764   7.996   2.109   0.839  0.1498 -0.1413 -0.2437
24231W        W43765   9.102   3.921  12.075 -0.0599 -0.2324  0.2299
24232W        W43766   1.374   8.452   3.026 -0.1403 -0.1783 -0.1173
24233W        W43767   3.024  15.410  12.095 -0.1078  0.0213 -0.0507
24234W        W43768   3.664   8.457  12.424 -0.2370 -0.1372 -0.2461
24235W        W43769  10.734  14.257   1.308  0.1123 -0.2082  0.0879
24236W        W43770   8.315   8.653   3.879 -0.2634  0.1765 -0.0894
24237W        W43771   2.314   3.996  12.666  0.0737 -0.0473 -0.1619
24238W        W43772   2.527   8.691  11.088  0.0673  0.1602 -0.0115
24239W        W43773   7.185   3.665  13.154  0.3587  0.1162  0.3287
24240W        W43774  11.262   8.835  13.997 -0.0638 -0.1242 -0.0862
24241W        W43775   9.213  14.489  15.724 -0.0050 -0.0048 -0.2199
24242W        W43776  12.285   3.781   4.683 -0.1103  0.1127 -0.2036
24243W        W43777   5.089   5.462  14.101 -0.1836 -0.0414 -0.0934
24244W        W43778   4.835   3.544   0.082 -0.0163  0.1355 -0.0679
24245W        W43779  10.656   0.524  11.668  0.0641  0.1342 -0.0958
24246W        W43780  18.017   9.782  13.355 -0.0017 -0.1169 -0.2177
24247W        W43781   2.417   3.688   0.636 -0.1599  0.1208  0.1545
24248W        W43782  10.358   9.131   1.145  0.1922  0.1114  0.0970
24249W        W43783   6.694   7.068  13.146 -0.3366 -0.0350 -0.2270
24250W        W43784  12.384   2.403   1.283  0.0637  0.0757  0.3334
24251W        W43785  18.058   5.389  11.135  0.0831  0.2299 -0.1706
24252W        W43786   9.149   2.385  15.173 -0.0806 -0.0640 -0.1121
24253W        W43787   2.385  17.999  11.832  0.1530  0.2311 -0.0536
24254W        W43788   0.702   8.179   3.641  0.1880  0.1220  0.1167
24255W        W43789  16.068   8.895  14.565 -0.1743 -0.1061 -0.2477
24256W        W43790   8.317  10.535   3.347  0.0004  0.1004 -0.1478
24257W        W43791  16.089  16.448  11.225 -0.1255 -0.1926 -0.1307
24258W        W43792   7.354  16.003  13.095 -0.0661 -0.2149 -0.1126
24259W        W43793   8.855  17.749  13.433 -0.0229 -0.1153 -0.0190
24260W        W43794  16.739  16.461   0.106 -0.2266  0.1067  0.3001
24261W        W43795  10.912  17.769   0.941 -0.1955  0.1674  0.1963
24262W        W43796   3.054   5.781   5.781  0.1078  0.2289 -0.0027
24263W        W43797  15.608  17.316   1.141 -0.3235  0.3787  0.0715
24264W        W43798  10.681   0.634   1.873 -0.2296 -0.2307 -0.1968
24265W        W43799  11.518  11.548   4.086  0.2034 -0.0217 -0.2888
24266W        W43800   0.713  15.640   1.762  0.0500 -0.0304  0.1731
24267W        W43801   4.903   3.314  15.500  0.3138  0.0857  0.0836
24268W        W43802   6.433   1.797   0.473  0.3092 -0.3362  0.0971
24269W        W43803  18.079  18.243  12.512  0.1489 -0.2142  0.1282
24270W        W43804   4.801   2.072   3.296  0.0384 -0.0190 -0.1337
24271W        W43805  12.579  15.349   0.686  0.1055  0.0358 -0.0410
24272W        W43806  11.302  16.176  11.745 -0.1954 -0.1631 -0.1450
24273W        W43807  15.941   8.171  13.578  0.1739 -0.0157 -0.1266
24274W        W43808  16.076   3.158   2.118  0.1348 -0.2046  0.3499
24275W        W43809  16.181  13.329   0.306  0.1259 -0.0596 -0.1427
24276W        W43810   6.990   4.726   0.631 -0.0422 -0.0870 -0.0407
24277W        W43811   3.281   6.792  14.960 -0.0346  0.0655 -0.1107
24278W        W43812   3.500   1.477  14.640  0.2883  0.3138  0.3324
24279W        W43813   9.167   4.757   0.856 -0.4321 -0.1046  0.1963
24280W        W43814  13.143   3.377   4.505  0.0518  0.2688 -0.1141
24281W        W43815   5.153   0.144  11.632 -0.1241  0.0564 -0.0921
24282W        W43816  17.204  16.853  11.879 -0.0486 -0.1087  0.1801
24283W        W43817  15.406  12.442   1.747  0.2523 -0.1225  0.2595
24284W        W43818   4.520   0.488   0.616  0.3671  0.2056  0.2648
24285W        W43819  15.366   1.418   2.562  0.1247 -0.0767 -0.1702
24286W        W43820  16.314   0.807   4.136  0.4007  0.4491 -0.1175
24287W        W43821   0.715   9.136  15.818 -0.2429 -0.4169 -0.0522
24288W        W43822   1.903   6.279  13.600 -0.2567  0.0269  0.0912
24289W        W43823   6.264  16.994   1.227  0.0032 -0.3072 -0.0355
24290W        W43824   2.533   4.560  13.441  0.0762  0.0813 -0.2294
24291W        W43825  18.321  17.891   0.673  0.0478 -0.2158  0.1693
24292W        W43826  17.499  10.470  15.838  0.2689  0.0622 -0.1703
24293W        W43827   8.174   2.305  12.692  0.3872  0.1753  0.1976
24294W        W43828   2.653   9.704  12.771 -0.0074  0.0344 -0.0388
24295W        W43829   3.136  14.893  12.185  0.0407  0.0202  0.3370
24296W        W43830  11.635  15.378   2.373  0.2457  0.3369  0.0894
24297W        W43831   2.173   2.577   3.753  0.1446 -0.1264 -0.2665
24298W        W43832   1.203  14.247  14.313 -0.2292  0.1090 -0.3807
24299W        W43833   6.560  16.386  13.299 -0.3634  0.0668  0.4124
24300W        W43834  16.433   0.962  15.737  0.0003  0.1424  0.0945
24301W        W43835  11.727  10.077  15.783 -0.0822  0.1160 -0.3383
24302W        W43836   3.424   3.679   4.313  0.0646 -0.3125 -0.1397
24303W        W43837   1.174   1.642  14.890  0.0058  0.2682 -0.1388
24304W        W43838   8.228   8.235  11.258 -0.0779 -0.0631  0.3614
24305W        W43839   9.499   1.510   2.799  0.1118 -0.4185 -0.1534
24306W        W43840   8.455   8.498   0.783 -0.0790 -0.1772 -0.2224
24307W        W43841  16.344   5.054  15.275 -0.1037  0.1778  0.1090
24308W        W43842   9.847   7.995  10.606 -0.0083  0.0958 -0.1797
24309W        W43843   3.021   9.125  14.281  0.1965  0.1346  0.0920
24310W        W43844  12.338   2.431  15.305 -0.1380  0.0893 -0.0961
24311W        W43845  15.678  11.106  13.269  0.1827  0.0592 -0.1667
24312W        W43846   9.000   1.781   5.956 -0.1621 -0.3236 -0.1049
24313W        W43847  12.372   7.996  12.031 -0.1266  0.0749 -0.0762
24314W        W43848   2.024   6.293  15.566  0.1212  0.1555  0.3291
24315W        W43849  17.653   9.890   1.294  0.2219  0.0757  0.3965
24316W        W43850  11.647   4.764   3.781  0.0919  0.1790 -0.1911
24317W        W43851  14.051   8.156   0.852  0.0293 -0.1324 -0.2249
24318W        W43852  17.816  16.459   1.654 -0.0453  0.0534  0.2303
24319W        W43853   7.917  11.031   0.777 -0.1698 -0.1733 -0.1062
24320W        W43854  14.585  15.477   3.744  0.1139  0.0271  0.2372
24321W        W43855   1.212   6.627   4.025 -0.4503 -0.1946  0.2244
24322W        W43856  10.836   9.046   0.763  0.1474  0.1067 -0.1970
24323W        W43857  10.879   1.782   0.406 -0.0922  0.1834 -0.0316
24324W        W43858   7.544  17.521   4.523  0.1303  0.0379  0.2296
24325W        W43859   8.809  15.001  14.369 -0.2103 -0.2449 -0.0698
24326W        W43860  13.478  16.896   3.050  0.0638  0.2081  0.3507
24327W        W43861   4.723  13.676  15.131 -0.1410 -0.0970  0.1235
24328W        W43862   3.124   9.523   2.939 -0.0990 -0.0971  0.1695
24329W        W43863   2.371  12.087   0.874 -0.2802 -0.0288  0.0227
24330W        W43864   7.092   3.096   2.612  0.1031 -0.0100 -0.1597
24331W        W43865   3.320   3.234  14.321 -0.0631 -0.0332  0.1044
24332W        W43866   9.002   0.513   3.904  0.0830 -0.0780 -0.0694
24333W        W43867   6.608  15.006  13.015 -0.1057 -0.2244 -0.2438
24334W        W43868  15.260  18.340   2.399 -0.3618 -0.0903 -0.5874
24335W        W43869   6.293   1.164   2.291  0.0248 -0.3057 -0.1496
24336W        W43870   8.455   5.517  12.676 -0.3513  0.1927  0.0327
24337W        W43871   4.058  12.298   3.595  0.3198  0.2005 -0.1277
24338W        W43872  17.427   2.189   2.201 -0.2464  0.1393  0.3056
24339W        W43873  12.723   5.127  15.310  0.0981  0.0190  0.1045
24340W        W43874   3.467  11.739   3.809  0.0195  0.0040  0.5570
24341W        W43875   5.338  16.068   4.006  0.0745 -0.1940  0.2345
24342W        W43876   9.124  13.446   0.077  0.1890 -0.0754  0.0948
24343W        W43877  17.157  11.260  14.264 -0.3759  0.1238 -0.0937
24344W        W43878   4.484   1.529   2.729  0.0843  0.0926 -0.2206
24345W        W43879  11.561   7.862   1.900 -0.1283 -0.3187 -0.2351
24346W        W43880  17.621   3.352  15.611  0.0188 -0.1700  0.2999
24347W        W43881  11.547  16.304   3.984  0.1861  0.0319 -0.1711
24348W        W43882   4.107   1.017  13.146  0.1860  0.4011  0.1765
24349W        W43883   1.871  13.003   3.428 -0.1524 -0.0748  0.0977
24350W        W43884   5.547   9.175   3.438  0.0025 -0.2289 -0.0348
24351W        W43885  10.548   5.693   1.122 -0.0973  0.2934  0.2271
24352W        W43886  12.571   3.758  14.357  0.1246 -0.2953 -0.1273
24353W        W43887   6.039  10.448   2.980  0.1270  0.0344  0.0383
24354W        W43888   0.102   3.636  13.836 -0.2145 -0.3472 -0.0701
24355W        W43889   3.089   7.285  14.082  0.1115  0.2186 -0.2036
24356W        W43890   0.041   8.979   3.680 -0.1366 -0.0626  0.1069
24357W        W43891  17.571   5.968   3.554  0.0303  0.1339  0.1521
24358W        W43892  12.025   5.466  12.714 -0.2637  0.0485  0.0437
24359W        W43893  18.334   9.746   2.505 -0.2249  0.1216  0.0139
24360W        W43894  17.903  15.222   2.323  0.0533 -0.0447  0.0473
24361W        W43895   0.835  17.968  11.025  0.0769 -0.1172 -0.2694
24362W        W43896   0.318  14.769   2.197  0.0791 -0.1154 -0.0177
24363W        W43897   2.061   3.247   2.679 -0.1340 -0.1159 -0.1298
24364W        W43898  14.006   1.047  13.778 -0.1387 -0.0189  0.3884
24365W        W43899  12.612  10.800  11.654  0.2118  0.2809  0.0331
24366W        W43900   9.384  12.118  11.842 -0.0584 -0.1806  0.0485
24367W        W43901   1.233  10.338  13.726  0.2275 -0.0444 -0.0061
24368W        W43902  17.471  17.164  12.341 -0.1268  0.1023  0.0420
24369W        W43903   2.755  13.449   0.654 -0.0736 -0.0615  0.0036
24370W        W43904   8.652   5.924   0.794  0.1014 -0.1758 -0.2766
24371W        W43905  12.349  11.938  12.436  0.0331 -0.1887  0.1230
24372W        W43906  11.386  15.282   3.731 -0.3460  0.4755 -0.1970
24373W        W43907  16.444   6.711   2.541  0.1096  0.2296 -0.4948
24374W        W43908  16.609   2.305  13.683  0.3213 -0.2079  0.2335
24375W        W43909   6.051   4.547  12.208  0.3878 -0.1015  0.1156
24376W        W43910   8.324   8.049  13.786 -0.0249  0.3108  0.0667
24377W        W43911   5.959  10.989  14.703 -0.0032  0.3040 -0.0317
24378W        W43912   2.172  18.131   4.283  0.0606 -0.1315 -0.1807
24379W        W43913  10.059  16.784   0.675 -0.0513 -0.0948  0.0037
24380W        W43914   6.171  11.436  11.427 -0.1703 -0.2241  0.0680
24381W        W43915  11.998  16.289   1.409 -0.1022  0.2055 -0.0740
24382W        W43916   5.473   5.076   2.135 -0.1639  0.2280 -0.1397
24383W        W43917   7.704  12.688   3.808  0.1419  0.1791  0.0655
24384W        W43918  13.515  16.433  10.700  0.2004  0.0132  0.3034
24385W        W43919   5.611  17.513  13.747  0.1778 -0.1213  0.0212
24386W        W43920   9.466  16.556   0.586  0.3505  0.2402  0.3682
24387W        W43921  13.458  18.197   3.791 -0.1901 -0.0001  0.0476
24388W        W43922  16.260  12.777   0.251 -0.0797  0.0684  0.1955
24389W        W43923   2.404  12.898  14.111  0.0195 -0.2366 -0.3364
24390W        W43924   2.051   2.731   2.515  0.2599 -0.2231 -0.1044
24391W        W43925   4.996   0.461   2.618  0.2199 -0.2346 -0.1617
24392W        W43926  17.908   0.363  15.321 -0.2165 -0.0585  0.0515
24393W        W43927   3.733   6.972  14.753 -0.0802  0.4619 -0.1439
24394W        W43928   0.319  14.574  14.816 -0.2563 -0.0467  0.1898
24395W        W43929  17.202  11.120  12.021  0.2086 -0.1762  0.0412
24396W        W43930  15.713  10.463   1.721 -0.1633  0.2790  0.2390
24397W        W43931   0.843   8.476  14.706 -0.0611 -0.0475  0.0960
24398W        W43932  15.700   2.521  12.272 -0.0723  0.1381 -0.1863
24399W        W43933   6.376  16.907  15.282 -0.5434  0.0537 -0.0045
24400W        W43934   0.371  11.606   4.132 -0.0355 -0.0666 -0.0776
24401W        W43935   7.231   3.560   1.300 -0.2552 -0.0351  0.1356
24402W        W43936  14.523   1.141   2.378 -0.0043 -0.0579  0.1556
24403W        W43937  13.590  18.036  11.456 -0.2745  0.0008 -0.1597
24404W        W43938  14.414   4.624  11.733  0.0234 -0.1397 -0.0976
24405W        W43939  11.276  17.868  15.401  0.3092 -0.2721 -0.0263
24406W        W43940   5.070   8.039   3.649  0.2134 -0.1929 -0.0560
24407W        W43941   1.258  15.188  14.129 -0.2862  0.0044 -0.0550
24408W        W43942   4.245   8.837   3.567 -0.0151  0.4049  0.1263
24409W        W43943  13.655  17.392   2.421  0.1369  0.0942  0.2603
24410W        W43944   6.956   4.198  12.480  0.0425 -0.2306 -0.1231
24411W        W43945   3.086   6.327   2.432  0.0685 -0.2120  0.1358
24412W        W43946   7.980   2.637  13.097 -0.0474 -0.1863 -0.3595
24413W        W43947   9.708  17.562   2.231  0.2827  0.1507  0.3347
24414W        W43948  12.579  17.159   0.381 -0.1205 -0.0050  0.0594
24415W        W43949   0.127  11.872   1.384 -0.0351 -0.1040 -0.0990
24416W        W43950   7.783  13.312  11.862 -0.2558 -0.0283  0.0191
24417W        W43951  10.233  10.165   4.653  0.0052  0.2549 -0.1076
24418W        W43952  16.171  12.946   3.486 -0.1227 -0.0779  0.5413
24419W        W43953  13.136  10.218   2.614  0.1881  0.2503 -0.0256
24420W        W43954  14.577   5.462  15.223  0.2061  0.1995 -0.2312
24421W        W43955   8.566  13.176  13.577  0.1460 -0.1148 -0.3123
24422W        W43956  14.775   9.517  13.269 -0.3819  0.1463  0.2978
24423W        W43957   2.679  12.626  13.584 -0.1821 -0.3124 -0.1146
24424W        W43958  17.168  10.081  11.349 -0.2188  0.0919  0.2034
24425W        W43959   9.527   6.069   1.402 -0.2381 -0.1453 -0.0706
24426W        W43960  10.989   0.577  12.721  0.0356 -0.1272  0.4327
24427W        W43961  14.816  10.344   1.951  0.0760 -0.0716  0.0999
24428W        W43962   5.381   8.091  15.271  0.1502 -0.0530 -0.0906
24429W        W43963  11.754  13.257   3.440 -0.0232  0.1157 -0.0635
24430W        W43964   7.396   8.274   2.185  0.3659 -0.0185  0.0240
24431W        W43965   6.230   6.581  11.310 -0.0451 -0.1036 -0.0099
24432W        W43966   6.159  17.432   1.497  0.2197 -0.0689 -0.1508
24433W        W43967   3.607  14.986   3.394  0.2221  0.2042 -0.1480
24434W        W43968   2.182   7.424   2.077  0.1252 -0.1860 -0.1011
24435W        W43969   0.586   8.907   1.484 -0.3207 -0.1354  0.3588
24436W        W43970  15.616   6.323  11.261  0.0951 -0.1456 -0.1111
24437W        W43971   6.036  17.982   3.853 -0.0382  0.0432 -0.0498
24438W        W43972  15.450   3.027   3.488 -0.2176 -0.1779 -0.1251
24439W        W43973  11.812   0.075  15.502  0.0570  0.0906 -0.4149
24440W        W43974   2.327   6.929   0.436 -0.0071 -0.1947 -0.2149
24441W        W43975  16.295  16.706   1.670  0.2666 -0.0172  0.0003
24442W        W43976  11.034   8.579  14.613 -0.2254 -0.0856 -0.1692
24443W        W43977   5.289   3.557   3.053  0.0138 -0.2838 -0.1486
24444W        W43978   5.659  14.121   3.477  0.1393  0.2646 -0.0418
24445W        W43979   0.221   2.611   4.128 -0.1562 -0.0416  0.1820
24446W        W43980  16.448  11.391   0.037  0.3211  0.0935  0.1306
24447W        W43981  12.652   8.510   3.395 -0.6100  0.1661  0.0624
24448W        W43982  13.156  16.174   2.201 -0.2189 -0.1096  0.0781
24449W        W43983   5.589   3.687   3.562 -0.0908  0.1766  0.0302
24450W        W43984   2.226  10.079   0.891  0.2978 -0.2337 -0.0049
24451W        W43985   7.660   3.320  12.491 -0.0829  0.1074 -0.1368
24452W        W43986  10.372   2.206   3.221 -0.2770 -0.1985 -0.0930
24453W        W43987   1.341  12.966   3.349 -0.3743  0.2502  0.1587
24454W        W43988  16.508   1.777  14.886 -0.2457  0.2447  0.0427
24455W        W43989   4.821  11.207  14.165  0.0582  0.1795 -0.1046
24456W        W43990  12.352  16.885  15.303  0.0853 -0.3352 -0.0693
24457W        W43991  14.596   8.648   1.396 -0.2268  0.3197  0.1047
24458W        W43992   0.542   7.095  11.753 -0.0615 -0.0620 -0.3649
24459W        W43993  16.878  13.231   1.362  0.1901 -0.3438  0.2839
24460W        W43994   8.452   4.565  13.531  0.0093 -0.0245 -0.3453
24461W        W43995   9.890  17.403  12.404 -0.1266 -0.1447 -0.0648
24462W        W43996   0.042  16.400  15.021 -0.2646  0.0363 -0.1440
24463W        W43997  10.860   9.668   1.520  0.1628  0.1029 -0.3350
24464W        W43998  16.435   2.123  15.274 -0.2574  0.0796  0.0750
24465W        W43999   8.647   2.074   3.422 -0.2975  0.0888 -0.0560
24466W        W44000  10.916   7.687  11.871  0.0426 -0.1172 -0.0965
24467W        W44001   1.272  16.665   3.986  0.5179  0.1437  0.1708
24468W        W44002  15.688  10.976   2.918  0.1464 -0.0050  0.0097
24469W        W44003  15.397  17.190   3.092  0.2986  0.0666  0.1052
24470W        W44004   9.957   8.776   1.927 -0.1810 -0.1359 -0.1890
24471W        W44005  15.108  13.336   0.143 -0.1345  0.0504 -0.0606
24472W        W44006  14.975  14.712  15.605  0.0162 -0.4128 -0.1198
24473W        W44007   8.178   3.206   1.523 -0.1137 -0.3054  0.2070
24474W        W44008  10.049   1.845  12.638  0.0532 -0.0052  0.0900
24475W        W44009   7.511   3.196   4.050 -0.2166  0.1236  0.0285
24476W        W44010  16.176   8.672   2.773 -0.1069 -0.0182  0.1500
24477W        W44011  10.270   9.240  12.780  0.2023 -0.2594  0.1947
24478W        W44012   3.547  17.325  11.912  0.1511  0.1125 -0.1878
24479W        W44013   5.764   9.697   0.974 -0.0300 -0.1158  0.1557
24480W        W44014  15.714  16.215  14.533 -0.1193  0.0735 -0.0992
24481W        W44015  15.363  11.626   4.999  0.3936 -0.0624 -0.3511
24482W        W44016  11.270  15.790   3.302  0.0281 -0.0575  0.0863
24483W        W44017  15.586  15.283   0.295  0.1140 -0.0519 -0.0440
24484W        W44018  10.163   0.768   2.627 -0.1444  0.1683  0.1144
24485W        W44019   2.134   1.242   0.350  0.0111  0.0236 -0.0664
24486W        W44020   3.628   8.403   4.969 -0.0232  0.1858  0.1282
24487W        W44021   3.920   6.917  15.834 -0.0409 -0.0437 -0.0981
24488W        W44022  15.277   6.017  12.874  0.0479  0.3856  0.2156
24489W        W44023  10.493  17.368   3.937 -0.0500  0.0930 -0.0421
24490W        W44024   5.303  10.314  11.637 -0.0063 -0.1902  0.0839
24491W        W44025   0.476   9.933  13.205  0.0425 -0.1525  0.0064
24492W        W44026   0.886   9.038  12.813  0.1780  0.1024 -0.1552
24493W        W44027  16.911   5.688  12.152  0.1601 -0.0882  0.0863
24494W        W44028   5.752   1.670  15.585  0.1115  0.1186  0.1208
24495W        W44029  13.637   2.755  14.498 -0.0748  0.2708 -0.0588
24496W        W44030   2.223   5.199   0.625  0.0193 -0.2216  0.3409
24497W        W44031   7.770  16.072   2.930 -0.0104 -0.1064 -0.2984
24498W        W44032   0.513   4.481  11.457  0.1642 -0.0681  0.3177
24499W        W44033   1.003  12.916  12.956 -0.2161  0.0214  0.1476
24500W        W44034  11.767  15.683  15.048  0.0623 -0.4464 -0.3768
24501W        W44035   3.877   6.032  13.790  0.0951  0.0710  0.2857
24502W        W44036   7.185   1.077   3.842 -0.2306 -0.0096 -0.0393
24503W        W44037   7.769   6.026   0.939 -0.1793  0.1738 -0.1121
24504W        W44038  14.553  10.650  11.997 -0.1965 -0.3512 -0.0505
24505W        W44039   0.549   1.488  15.510  0.0390 -0.2451  0.0775
24506W        W44040  12.683   3.101   0.341  0.4122 -0.1833  0.0359
24507W        W44041  17.130   3.946   4.518 -0.3815  0.0786  0.1672
24508W        W44042   8.173   1.785   0.023 -0.0095  0.3091 -0.0764
24509W        W44043  10.066  10.974   3.131  0.1980 -0.0002 -0.1786
24510W        W44044  15.307   3.736  14.581 -0.1377  0.1152 -0.2126
24511W        W44045  13.451   5.074   3.669  0.3030  0.1700 -0.0081
24512W        W44046  14.102   6.427   2.288 -0.1323 -0.4032 -0.1432
24513W        W44047   3.182  12.441   3.733  0.1243 -0.1825  0.1294
24514W        W44048  12.493   3.206   1.823 -0.3612 -0.0541 -0.2525
24515W        W44049  16.607  12.456   3.458  0.3175  0.1043  0.2122
24516W        W44050  13.376  13.563  11.740 -0.2622 -0.1276  0.0883
24517W        W44051   1.627  15.901   0.671 -0.3731 -0.0591  0.0534
24518W        W44052   8.723   3.702   3.240  0.0896  0.1161 -0.2021
24519W        W44053   1.376   0.426  14.024  0.1918  0.0417 -0.0273
24520W        W44054   5.652   3.702  11.716  0.1323 -0.0130 -0.1188
24521W        W44055   9.619   7.610  14.543 -0.3872 -0.0770 -0.1084
24522W        W44056   9.131  15.880   4.565  0.1699 -0.2191  0.2322
24523W        W44057   6.106  14.929  13.066 -0.0425 -0.0691  0.0622
24524W        W44058  11.496  17.225   2.693 -0.0637  0.0859  0.5294
24525W        W44059   0.502   6.806  13.759 -0.0478  0.2730 -0.1420
24526W        W44060   4.015   4.573   1.855 -0.1870  0.1521 -0.1853
24527W        W44061   8.387   5.108   1.874 -0.0895  0.0975  0.0363
24528W        W44062   8.319   4.553  13.057  0.1555 -0.1324 -0.1580
24529W        W44063   9.229  16.893  14.407  0.0255 -0.2046  0.0791
24530W        W44064  10.522  18.218   2.740 -0.1209  0.0726 -0.2945
24531W        W44065  11.605   7.868  15.304  0.2459  0.2851  0.0700
24532W        W44066   0.427   2.219   4.429 -0.0114  0.0378  0.0661
24533W        W44067   5.029  16.541  15.322 -0.0372 -0.0729  0.1791
24534W        W44068  17.631  10.362  13.918 -0.0196 -0.1415  0.1056
24535W        W44069   6.073   8.834  14.428 -0.2199  0.0561 -0.0899
24536W        W44070   5.220  12.165   0.253 -0.0869  0.1140 -0.1799
24537W        W44071  14.064  15.532  12.869  0.2898 -0.2687 -0.1196
24538W        W44072   5.128  10.479   0.494  0.2216  0.2732  0.3785
24539W        W44073   2.629   0.407  11.476 -0.0837 -0.0220  0.4479
24540W        W44074   0.366   6.493  14.660  0.1957 -0.1219  0.0941
24541W        W44075   9.210  13.326   3.650 -0.0052 -0.0050 -0.0049
24542W        W44076   3.013   2.393  13.781 -0.1497 -0.1270  0.1063
24543W        W44077   1.792   0.639  11.649 -0.2944  0.0142 -0.0281
24544W        W44078   7.261   6.118  14.052 -0.0227 -0.0271  0.2709
24545W        W44079  12.730   8.239   1.127  0.0104  0.2687 -0.1627
24546W        W44080  12.204  17.464   0.327 -0.0393  0.0853 -0.1312
24547W        W44081   4.943  10.734  12.176 -0.0197  0.1430  0.2523
24548W        W44082  12.314   4.219  15.523  0.0576  0.2477  0.1343
24549W        W44083   0.259  12.447  15.215  0.0735 -0.2127  0.3550
24550W        W44084  12.982   7.779  12.854 -0.2313  0.1597 -0.2355
24551W        W44085  12.079  15.568  13.872  0.2193 -0.0750 -0.2061
24552W        W44086   5.477   6.622   2.997  0.2692 -0.2573 -0.0780
24553W        W44087   4.658   9.587  13.629  0.0459  0.0679 -0.2904
24554W        W44088   9.993  13.407   4.765 -0.0422 -0.0769 -0.1315
24555W        W44089  14.683   0.138  14.596 -0.4012 -0.1467 -0.0431
24556W        W44090  10.509   8.344   3.922  0.0744 -0.1146 -0.0409
24557W        W44091  15.056   4.371  13.751  0.0099  0.1820 -0.3633
24558W        W44092  13.189   2.285   2.793 -0.1263  0.2102  0.1214
24559W        W44093  15.033   8.678  12.685 -0.4172 -0.2174 -0.1665
24560W        W44094   8.538  11.017  12.515  0.0526 -0.0352 -0.0307
24561W        W44095   5.907   7.587  12.408 -0.0848 -0.0927 -0.0978
24562W        W44096   1.955   5.188  15.799  0.1986  0.1603  0.1741
24563W        W44097   7.384   0.856  14.937  0.0400 -0.1653 -0.0930
24564W        W44098  14.695  12.679   4.034  0.0628 -0.1084  0.1302
24565W        W44099  13.844  15.737  14.689  0.0053 -0.0867 -0.2886
24566W        W44100  16.710  12.712  13.330 -0.2117 -0.0656  0.1584
24567W        W44101   1.711   6.656   3.198 -0.0056 -0.0168 -0.0495
24568W        W44102   9.909   6.279  11.990 -0.1018  0.1175  0.0334
24569W        W44103   9.084   0.441  12.570 -0.1164 -0.2046  0.5337
24570W        W44104  12.556   9.324  14.815 -0.1128 -0.2997 -0.0835
24571W        W44105  11.007   5.228  14.810  0.0312  0.1223  0.0895
24572W        W44106   1.717   3.448  14.685  0.1456  0.3417 -0.1316
24573W        W44107   0.557  12.880   1.950 -0.0953 -0.2028  0.0486
24574W        W44108  12.410   7.420   3.354  0.2571 -0.1870 -0.0249
24575W        W44109  10.624   8.758   3.122 -0.3825 -0.4434  0.0697
24576W        W44110  17.620  17.713   1.794  0.0806 -0.0111 -0.0481
24577W        W44111   1.362   7.240  14.542  0.2131  0.6341  0.2009
24578W        W44112   1.936  11.700  14.419 -0.1223  0.2335 -0.1309
24579W        W44113   5.731   0.804  12.442 -0.0330  0.1147  0.2134
24580W        W44114   5.516  14.804   2.964 -0.0657 -0.2246  0.1005
24581W        W44115  14.161  16.725   3.741 -0.0204  0.1622  0.3561
24582W        W44116  12.459   2.633   0.322 -0.1914 -0.2036  0.0966
24583W        W44117   8.512  18.196  15.511 -0.1740 -0.0951 -0.4148
24584W        W44118   1.238  11.043   3.252  0.0116  0.1813 -0.2490
24585W        W44119   1.102   0.261  14.503 -0.0867  0.4915  0.0078
24586W        W44120  17.643  17.753  11.604  0.0358 -0.2619  0.0203
24587W        W44121  12.323  15.091   0.392 -0.0958  0.3839 -0.2914
24588W        W44122   1.237  12.391   0.335  0.1159  0.1255 -0.1008
24589W        W44123   8.953   6.813  13.302 -0.0377  0.1607  0.1200
24590W        W44124  15.914   8.853   0.701  0.0356 -0.0697 -0.0176
24591W        W44125   2.883   7.708  13.951  0.1917  0.0745  0.0847
24592W        W44126  12.179   0.371   0.045  0.1864 -0.0376 -0.1212
24593W        W44127   9.339  10.743  11.429  0.3276  0.1063  0.1681
24594W        W44128  17.752  16.102   3.996 -0.0029 -0.1154  0.1067
24595W        W44129  11.396   6.428  15.170  0.0062  0.1702  0.2838
24596W        W44130  14.387   3.928  15.050 -0.0922  0.1347 -0.0430
24597W        W44131  16.404   7.661   2.317 -0.0757 -0.5338 -0.0360
24598W        W44132  17.659   2.273   1.339  0.1324  0.1718  0.1721
24599W        W44133  15.979   7.848  12.204 -0.2262 -0.0619  0.3096
24600W        W44134   9.655   6.582  14.700 -0.0032  0.1320  0.1867
24601W        W44135  12.916  13.742  11.616 -0.2383 -0.0185 -0.0152
24602W        W44136   9.537   4.853  12.689  0.3183 -0.3345 -0.0652
24603W        W44137  10.539  13.911   3.965 -0.0141  0.0337  0.0770
24604W        W44138   2.185   2.137   3.045 -0.2077  0.2312 -0.1741
24605W        W44139   7.971   7.251   0.685  0.0687  0.0947 -0.0906
24606W        W44140   7.931   3.007  15.326  0.1597 -0.0325  0.0284
24607W        W44141  13.688  13.091   4.570 -0.0042 -0.0114  0.1948
24608W        W44142  14.278  11.011   2.360 -0.0339  0.2268  0.2792
24609W        W44143   7.389  14.892  12.219  0.3428  0.0250  0.1713
24610W        W44144  11.858   1.958  14.211  0.1120  0.0398  0.0113
24611W        W44145  11.476   3.882   4.782  0.3476 -0.0412 -0.0680
24612W        W44146   2.062  12.507   1.438  0.0409  0.0971 -0.1044
24613W        W44147   2.738   9.008  15.476 -0.0483 -0.2248  0.0169
24614W        W44148  15.021   3.600  14.207  0.0249  0.0051  0.3849
24615W        W44149   4.900   3.820  13.435  0.1182 -0.0633  0.0554
24616W        W44150  17.541  13.569   2.989 -0.2411  0.0612 -0.0575
24617W        W44151  17.712   6.976  13.829  0.0833 -0.0595  0.1487
24618W        W44152   7.856  11.530   3.231  0.0373  0.3144  0.1460
24619W        W44153   5.859   4.323   0.935 -0.1043 -0.3737  0.1404
24620W        W44154  14.497   0.600   1.496 -0.0956 -0.2157  0.2888
24621W        W44155   2.522  16.440  14.598  0.3477  0.2371  0.0549
24622W        W44156  10.893  17.221   1.097 -0.0565  0.2129  0.0852
24623W        W44157  13.004  14.224   2.542 -0.0088  0.3595 -0.0565
24624W        W44158  13.185   3.214  14.999 -0.3417  0.0375 -0.2837
24625W        W44159  16.269   4.455  11.436 -0.2073  0.3789 -0.2889
24626W        W44160  16.085  10.860  13.729 -0.0889  0.3067  0.0777
24627W        W44161   3.352  14.103  15.430  0.2364  0.1980  0.0770
24628W        W44162   0.900  15.149   3.449 -0.1472 -0.1268  0.1184
24629W        W44163   4.294  17.640   2.486  0.1840  0.0429  0.0693
24630W        W44164   3.621   7.446  12.217 -0.0096  0.0057 -0.2297
24631W        W44165  15.524  10.761  15.049 -0.0616 -0.0137  0.1592
24632W        W44166   5.656  16.558  12.871  0.3643  0.0406  0.3602
24633W        W44167   8.330   9.539   1.978  0.0841 -0.0957 -0.0758
24634W        W44168   4.743  11.722  12.712  0.2701 -0.1903 -0.3277
24635W        W44169  15.762   7.869   3.772  0.2259 -0.1000 -0.1862
24636W        W44170  12.829  15.605   3.171  0.0289  0.0460  0.4191
24637W        W44171  10.184   3.172   4.725  0.2080 -0.1897  0.2376
24638W        W44172  18.247  12.717  15.502 -0.0556  0.0040  0.1206
24639W        W44173   6.289   7.486   1.943 -0.2859 -0.4028  0.0305
24640W        W44174  14.159   0.133  12.075 -0.2999 -0.0282  0.0973
24641W        W44175   6.809  11.814  15.177  0.0271  0.2592  0.0797
24642W        W44176   4.609   3.052   3.963  0.0093 -0.4796  0.4780
24643W        W44177  16.875   0.169  13.243  0.1301  0.0438  0.4377
24644W        W44178  11.717   2.652  12.599  0.0295 -0.2310 -0.3464
24645W        W44179   8.971   3.864  15.249 -0.2204 -0.1000  0.1781
24646W        W44180   9.000   8.375   3.322  0.1040 -0.0700 -0.0945
24647W        W44181   6.884   1.881  15.133 -0.1007 -0.4184 -0.1947
24648W        W44182  12.380   2.133   2.636  0.1828 -0.1031 -0.1881
24649W        W44183   1.326  15.294  13.082 -0.0338  0.2196 -0.0429
24650W        W44184  18.314   7.619  11.353  0.1109 -0.2377  0.2436
24651W        W44185   2.936   8.222   2.373  0.1454 -0.0676  0.1466
24652W        W44186   1.685  12.550   0.042  0.0456 -0.0538 -0.2939
24653W        W44187   0.610  15.140   2.120  0.3960  0.2434  0.0310
24654W        W44188  10.349  12.287  11.555  0.3711  0.0484 -0.2435
24655W        W44189   6.287   3.258   2.250  0.3325  0.0339  0.1316
24656W        W44190  13.452   7.697  13.728 -0.3386 -0.1781 -0.0898
24657W        W44191   1.322  10.268   1.923  0.1811  0.2987  0.2284
24658W        W44192  17.528   1.127   3.988 -0.2851  0.0043  0.0281
24659W        W44193  10.609  11.323   0.375  0.2731 -0.1082  0.1558
24660W        W44194   3.751  13.244   0.093 -0.2371 -0.3168 -0.4209
24661W        W44195   4.863   0.872   0.981  0.2299 -0.3521 -0.1008
24662W        W44196   3.518   7.387  15.522 -0.1578  0.1983 -0.0610
24663W        W44197   2.383  13.158   3.960 -0.0307 -0.0617  0.2060
24664W        W44198  15.417  13.328  10.315 -0.0641  0.0012  0.1242
24665W        W44199   8.301   2.359  14.937  0.1981  0.0389  0.2117
24666W        W44200   7.008   3.694  14.034  0.1276 -0.0508 -0.1733
24667W        W44201  15.754  17.519   2.878  0.0474  0.2675 -0.0277
24668W        W44202   7.234   7.626   1.884  0.2330  0.0873 -0.0613
24669W        W44203  17.468   2.127  15.315 -0.0912 -0.1492  0.1128
24670W        W44204  10.185  11.122   2.141  0.0068  0.0605  0.1358
24671W        W44205   2.937   9.444   2.219  0.1780  0.0760 -0.0185
24672W        W44206  15.531  15.527  15.166 -0.2783  0.0613  0.1071
24673W        W44207  16.949  14.174  14.087  0.0634 -0.1635 -0.0440
24674W        W44208   9.712   2.261   0.050  0.1539  0.2164  0.0016
24675W        W44209   3.067   3.604  11.543  0.2228  0.0632 -0.1295
24676W        W44210   1.353   7.023   3.730  0.1157  0.1313  0.1622
24677W        W44211  13.875  16.623  14.271 -0.1398 -0.1328 -0.0675
24678W        W44212  13.548   7.399   0.326 -0.2067 -0.1444 -0.0547
24679W        W44213   0.864  15.887   0.550  0.4406 -0.1368  0.1857
24680W        W44214  14.110   9.629   0.959 -0.0184 -0.1361 -0.1288
24681W        W44215  17.615   4.021  11.882 -0.0208 -0.0888 -0.2609
24682W        W44216   6.529  14.601   5.009  0.0615 -0.1590 -0.0574
24683W        W44217  10.971  15.032   3.892 -0.1553 -0.1584 -0.1146
24684W        W44218  15.030  16.227  13.150  0.0282 -0.0634  0.2062
24685W        W44219  13.267   5.175  11.858 -0.1120 -0.0278 -0.1249
24686W        W44220  15.931   3.822  12.705 -0.1885  0.4548 -0.0427
24687W        W44221  15.200  12.679   3.408  0.1445 -0.1184  0.3596
24688W        W44222  16.066  15.361   2.312 -0.0463 -0.1840 -0.1272
24689W        W44223  14.971   3.880   0.216 -0.1465  0.1252  0.4650
24690W        W44224   7.171  11.297  13.489 -0.0444 -0.2685  0.1384
24691W        W44225  16.487   4.786  14.514 -0.0510  0.0028 -0.0337
24692W        W44226  17.563  15.099  11.597  0.1353 -0.0048 -0.0516
24693W        W44227  14.984  14.729   1.806  0.1150  0.1174  0.0098
24694W        W44228   8.333   9.072  12.598 -0.1754  0.0921 -0.0789
24695W        W44229  12.323   6.522   2.919  0.0418  0.1169 -0.1337
24696W        W44230   7.494  13.766   1.502  0.0589  0.1486 -0.0742
24697W        W44231   4.777  18.104  12.143 -0.0468 -0.1260 -0.3102
24698W        W44232  17.047  15.643   3.743  0.0001 -0.2477  0.1548
24699W        W44233   2.240   7.320   4.069 -0.0117 -0.2035 -0.1290
24700W        W44234  11.115   7.020  12.799  0.1575  0.4663 -0.0116
24701W        W44235   9.126   9.756  13.249 -0.3123 -0.2754 -0.0454
24702W        W44236   1.139   4.088   1.019  0.0168 -0.2171 -0.0009
24703W        W44237   7.434  16.228   1.295 -0.0504 -0.0636 -0.3341
24704W        W44238   8.754  14.645   2.300  0.1763  0.0115  0.0080
24705W        W44239   9.594   2.977  11.976 -0.1439  0.0632 -0.0615
24706W        W44240  16.139  14.858  13.287  0.2387  0.2433  0.1398
24707W        W44241  10.001  13.845  15.292  0.0000  0.2227  0.1105
24708W        W44242  10.935  15.916   3.674 -0.0198 -0.3862  0.1618
24709W        W44243   9.528  11.152   3.087  0.1010 -0.1055 -0.0290
24710W        W44244  10.197   7.428   1.624 -0.1202 -0.1764 -0.1062
24711W        W44245   0.637  10.670   1.347 -0.0829  0.2128 -0.3483
24712W        W44246   8.743   8.684   2.221 -0.1042 -0.2266  0.0839
24713W        W44247  16.445   2.060   4.174  0.2619 -0.0076 -0.2432
24714W        W44248  10.676   0.969  11.972 -0.4488  0.1039 -0.0917
24715W        W44249   7.783   8.002  14.871 -0.0517  0.1521 -0.2418
24716W        W44250   0.998   0.518   1.352  0.2596 -0.2275  0.1820
24717W        W44251   9.478   8.136  12.203 -0.1928  0.0173 -0.3950
24718W        W44252   3.532  14.113   0.572  0.3243  0.0705  0.0840
24719W        W44253   7.279   3.521  14.573 -0.1145  0.1636 -0.2674
24720W        W44254   5.740   1.965  11.198 -0.1815  0.0982 -0.1861
24721W        W44255   6.429  17.709  14.776  0.2197  0.2133 -0.2307
24722W        W44256   8.507  11.237   2.962  0.0633 -0.1374 -0.2031
24723W        W44257   6.452   8.850   3.385 -0.0813  0.0700  0.1685
24724W        W44258  10.198   9.708  15.735 -0.1562 -0.1353  0.1486
24725W        W44259  12.947  10.702  13.097  0.1563  0.0909 -0.1946
24726W        W44260  12.607   2.311  15.777 -0.1632 -0.0686 -0.0127
24727W        W44261   1.619  10.792  12.840  0.0825 -0.2108 -0.0011
24728W        W44262   6.769  13.868  15.249 -0.1090 -0.0429 -0.1595
24729W        W44263   0.085  11.078  12.084 -0.0434  0.0179  0.1128
24730W        W44264  14.115   1.779  15.230 -0.0717  0.2238  0.0900
24731W        W44265  13.137   3.883  15.571 -0.2089 -0.0769 -0.5008
24732W        W44266   3.427  11.442  12.270 -0.2757  0.3052  0.2219
24733W        W44267   0.466   1.273   3.794  0.2068 -0.0267  0.0736
24734W        W44268   1.963  12.383   3.480  0.2631  0.0694  0.1996
24735W        W44269  16.141  14.939   3.249 -0.1311  0.0840  0.2812
24736W        W44270  15.781  11.333  12.543 -0.1776 -0.2067 -0.0634
24737W        W44271   1.697  15.463  13.388  0.0221  0.0098 -0.0748
24738W        W44272  15.429   7.018  13.798  0.0626 -0.1284  0.1065
24739W        W44273  14.164  10.707  14.714 -0.0996 -0.0275  0.6721
24740W        W44274  14.740   5.143  14.263  0.1051  0.3382 -0.0355
24741W        W44275  14.867  17.026  15.566 -0.1554  0.0238  0.0194
24742W        W44276  13.043   6.937   2.496  0.1096 -0.1027  0.0158
24743W        W44277  15.450   0.506  15.351 -0.0694 -0.1654  0.0649
24744W        W44278  17.891  12.719   3.229  0.1456 -0.3740  0.2738
24745W        W44279   0.897  13.278  10.337  0.3799  0.2443  0.0469
24746W        W44280   3.750   3.771   1.451  0.1826  0.0565  0.2840
24747W        W44281   5.172   6.986   2.839  0.2079  0.0245  0.1938
24748W        W44282   8.081  12.558   3.029 -0.0749  0.1793  0.3696
24749W        W44283   4.586   6.683   0.327  0.0362  0.0594 -0.0032
24750W        W44284  12.624  17.247   3.506 -0.2671 -0.0038  0.2218
24751W        W44285  11.513   8.890  15.328  0.0084  0.0550  0.0094
24752W        W44286   5.365   0.269   4.305 -0.0356  0.1129 -0.2041
24753W        W44287  15.823   8.799  12.465 -0.1434  0.3061  0.3987
24754W        W44288  17.966   6.591  13.976  0.0260 -0.0135  0.0420
24755W        W44289   8.680   0.680  14.258  0.3838  0.3356 -0.2598
24756W        W44290  18.059   6.118   1.015  0.2204  0.0452 -0.3060
24757W        W44291   9.961   9.916   1.360 -0.2350 -0.1816  0.0605
24758W        W44292  14.403  11.466   2.608  0.1766 -0.1618  0.1497
24759W        W44293   9.270   2.677  12.949 -0.0931  0.3900  0.0849
24760W        W44294  18.277   9.014  11.770 -0.1922 -0.2243 -0.2715
24761W        W44295   0.017  16.011  14.234 -0.1398 -0.0833  0.0060
24762W        W44296   7.327  13.123   4.522 -0.2561  0.1041  0.3406
24763W        W44297   6.192   3.127   0.967  0.2020  0.0439  0.1153
24764W        W44298   5.287  11.864  14.427  0.0877 -0.2409  0.2117
24765W        W44299  15.346  10.330   2.834 -0.0826  0.0315 -0.0860
24766W        W44300  14.620   7.798  11.655 -0.1831  0.2541 -0.0947
24767W        W44301   8.490  15.887   1.305 -0.0211 -0.0398 -0.1629
24768W        W44302   5.337   6.272   1.149  0.0867  0.0679  0.1818
24769W        W44303   4.853  10.661   3.376  0.0343 -0.0366  0.3770
24770W        W44304  13.636   1.062   0.012  0.1212 -0.2529  0.1220
24771W        W44305   8.875   2.939  12.735 -0.1071 -0.0799  0.0670
24772W        W44306  13.825  18.366  14.398  0.0481  0.0177  0.0023
24773W        W44307  10.658  16.770  14.544 -0.0772  0.0511  0.3774
24774W        W44308   4.449  17.964  15.331  0.1823 -0.0122 -0.1620
24775W        W44309  17.953  11.857  14.591  0.1989 -0.0427 -0.0609
24776W        W44310   5.844  16.016  14.131 -0.2623 -0.2461  0.1533
24777W        W44311   7.405   0.343  11.806  0.2725 -0.3249  0.3388
24778W        W44312  10.767   0.513  13.839 -0.1141 -0.2514  0.0891
24779W        W44313   6.648   3.480   2.568  0.0632 -0.1594  0.5180
24780W        W44314  17.091  16.451  12.408 -0.1141  0.0504 -0.0986
24781W        W44315   8.866  14.224  11.242  0.1284 -0.3468 -0.2857
24782W        W44316   8.474  15.322  13.393 -0.3396  0.0323 -0.4151
24783W        W44317   4.826  10.595  10.848 -0.0062  0.0878 -0.0911
24784W        W44318   8.172   3.763   3.992  0.2091 -0.1312 -0.2973
24785W        W44319   4.180  14.825   1.728 -0.2232 -0.2783  0.1710
24786W        W44320   3.048  11.218  13.206  0.3696  0.0542  0.0017
24787W        W44321   0.446   5.430   0.538  0.3710  0.1726  0.0623
24788W        W44322  15.331  17.262   0.177  0.0259  0.1559 -0.2796
24789W        W44323  16.436  13.775   2.934  0.1660 -0.2531  0.1251
24790W        W44324  12.137  17.972   4.000 -0.2725 -0.2165  0.1141
24791W        W44325   1.950  13.910  11.336  0.1254 -0.0264  0.2399
24792W        W44326   6.837  10.099   2.204 -0.2082 -0.3663  0.0047
24793W        W44327  17.981   8.351  13.163  0.2457 -0.1596  0.0638
24794W        W44328  16.724   9.980   0.740  0.1464 -0.0979 -0.0405
24795W        W44329  14.673  17.817  12.185 -0.0300 -0.3171 -0.1673
24796W        W44330   7.055  15.931  12.524 -0.1975  0.1377 -0.1583
24797W        W44331   7.192   4.797   3.348 -0.0428  0.1277 -0.0814
24798W        W44332  11.333   3.122   0.067  0.0096 -0.0373 -0.3290
24799W        W44333  10.916   9.491  15.222  0.0806  0.1267 -0.1318
24800W        W44334  17.321  10.384   2.132  0.1342 -0.0489  0.1929
24801W        W44335   7.074  15.861   1.342  0.0804 -0.0879 -0.0372
24802W        W44336   4.379   8.275   4.413 -0.0384 -0.3159  0.2442
24803W        W44337  12.624  17.971   3.183  0.3226  0.1768  0.0612
24804W        W44338   0.949   3.983  10.948 -0.0104 -0.1577  0.0867
24805W        W44339   3.257   6.563  12.598  0.1698 -0.0656  0.0781
24806W        W44340   4.258   6.181  11.841 -0.1629  0.2817  0.2499
24807W        W44341   0.026   4.221  12.366  0.0902  0.0024  0.2019
24808W        W44342  10.631   0.680   3.780 -0.0037 -0.4065 -0.1793
24809W        W44343  12.244  18.298  15.673 -0.1800  0.0553 -0.2235
24810W        W44344   6.280   7.867  12.597 -0.2490  0.0373 -0.1194
24811W        W44345   6.928   2.706   9.949 -0.0900  0.0704 -0.3500
24812W        W44346  14.875   2.415   0.257  0.0223 -0.1009  0.2284
24813W        W44347   1.637  11.708  11.866  0.0591 -0.0933  0.0456
24814W        W44348  16.203  14.010  13.594 -0.2005 -0.2678 -0.1661
24815W        W44349  10.240   8.357  14.812  0.1939 -0.0496  0.1049
24816W        W44350  16.113   3.791  13.300  0.0868  0.0477  0.0296
24817W        W44351   7.878   6.165   1.916 -0.1235 -0.1127  0.0334
24818W        W44352  12.390   0.905   2.655  0.1333  0.0090  0.1880
24819W        W44353   9.420   2.829   4.861  0.0423 -0.0326  0.1461
24820W        W44354   2.120   2.207   1.935  0.0287  0.2249 -0.0563
24821W        W44355  17.532   0.204   3.552 -0.0121  0.1195  0.1378
24822W        W44356   3.986  10.779  13.432 -0.2954 -0.4401 -0.0985
24823W        W44357   0.559   0.902   3.445  0.1228 -0.0181 -0.0026
24824W        W44358  10.593   2.342  12.010 -0.0247  0.0571 -0.0130
24825W        W44359   9.699  13.183  12.289  0.0576  0.1366 -0.0664
24826W        W44360  11.582  11.316   0.165 -0.2156  0.0529 -0.0981
24827W        W44361   5.387  10.289   2.490 -0.2690 -0.0457  0.1753
24828W        W44362   1.317   1.713   0.249 -0.1246  0.2166  0.3199
24829W        W44363  13.982   3.581   4.330  0.3129  0.1109 -0.0185
24830W        W44364   7.898   2.388   2.619 -0.0749 -0.0176 -0.4053
24831W        W44365   4.341   9.180   3.222  0.0296  0.0618  0.0929
24832W        W44366  14.973   3.875  13.751 -0.2080  0.0601 -0.3272
24833W        W44367   8.937  10.992  15.836 -0.2001  0.2736  0.0388
24834W        W44368   6.627   8.592  13.343  0.1845 -0.1864 -0.2419
24835W        W44369   3.839   5.277   5.408 -0.0304  0.0196 -0.0593
24836W        W44370  12.635  12.966   2.707 -0.1389  0.0678 -0.0246
24837W        W44371   8.052   2.945  11.831  0.2624 -0.1977 -0.0101
24838W        W44372   0.091   3.017   2.320  0.0021  0.2263 -0.1871
24839W        W44373  17.603  13.859  13.425 -0.0139 -0.0044  0.0078
24840W        W44374   6.278  13.689  15.417 -0.3474 -0.2027  0.0946
24841W        W44375   8.105  10.627   4.308  0.0763  0.1075 -0.2084
24842W        W44376   1.623   9.870   1.923 -0.0943  0.3407  0.2300
24843W        W44377   0.282  17.346   1.471 -0.1920  0.2866 -0.0148
24844W        W44378   8.544  15.398  12.645 -0.0007  0.0346 -0.0927
24845W        W44379   5.152   9.259   4.378  0.0809  0.0044  0.2040
24846W        W44380   7.336   3.013  10.177  0.0844 -0.0892  0.0362
24847W        W44381   1.169   8.543  15.272  0.0283  0.1592 -0.0535
24848W        W44382   4.545  10.088  10.574 -0.1908 -0.1613  0.2704
24849W        W44383  13.309  10.259   0.900 -0.1238 -0.0854  0.1459
24850W        W44384  12.108  15.124  13.315 -0.0567  0.2379  0.1494
24851W        W44385   3.560  12.493   0.458  0.0418 -0.1429  0.1610
24852W        W44386  14.944  11.544   0.194 -0.0250 -0.1178 -0.0647
24853W        W44387  15.953  11.319  13.763  0.1836  0.0796 -0.0640
24854W        W44388   0.498   4.875   1.223  0.2287 -0.0572 -0.2464
24855W        W44389   1.908   4.499   0.978  0.1550  0.1986  0.2374
24856W        W44390   3.190  15.956  11.532 -0.0908  0.0238  0.0856
24857W        W44391  14.528  11.798   1.423  0.1389  0.0320 -0.0142
24858W        W44392  16.163   3.270   0.292 -0.2117  0.0110  0.0549
24859W        W44393  17.855   7.144   2.340  0.2470  0.1133 -0.2305
24860W        W44394   5.339  11.264   1.640 -0.0393  0.0446 -0.0053
24861W        W44395  17.278   0.738   2.736  0.2268 -0.3302 -0.2467
24862W        W44396   2.896   2.839  12.678  0.1998 -0.0551  0.1187
24863W        W44397   8.259   9.096  13.375  0.1739  0.0867  0.1180
24864W        W44398   4.414   4.627  12.396  0.0310  0.5826 -0.1443
24865W        W44399   5.311  16.944  15.376 -0.0923  0.0649 -0.2592
24866W        W44400   7.490   0.131  14.554 -0.2624  0.1520 -0.1317
24867W        W44401   7.794  10.415  15.275  0.2256 -0.3248  0.0797
24868W        W44402   0.025  17.600  13.890  0.1931 -0.1638  0.0733
24869W        W44403  10.633   3.746  14.411 -0.0915  0.0054 -0.4285
24870W        W44404   0.716   0.456   3.682 -0.1165  0.1047  0.0560
24871W        W44405   3.425  14.865  12.628 -0.0656  0.0532 -0.2990
24872W        W44406  10.912   5.032  15.796 -0.1861 -0.2545 -0.2706
24873W        W44407  10.809  14.170  11.744 -0.0354 -0.0262 -0.2787
24874W        W44408  17.000  17.136   2.440 -0.0626 -0.1293 -0.2056
24875W        W44409  10.777  11.403  15.106  0.1829 -0.1073  0.1884
24876W        W44410   4.371  15.848   4.044  0.1967  0.0434 -0.2174
24877W        W44411  12.900   1.203   0.651 -0.0177 -0.2061  0.3065
24878W        W44412   5.146   6.311   4.842 -0.2318 -0.0228 -0.0590
24879W        W44413   6.577   9.200  12.898  0.1260 -0.1242 -0.1722
24880W        W44414  11.466   4.011   2.239 -0.0124 -0.1166 -0.1156
24881W        W44415   7.943   2.534  14.564 -0.0634  0.0128  0.2054
24882W        W44416   8.865   8.269  14.388  0.0534  0.2574 -0.0616
24883W        W44417   1.200  18.099  10.648 -0.1578  0.0091  0.3208
24884W        W44418  13.961  14.074  14.949  0.0161 -0.3081  0.0653
24885W        W44419   6.164  17.957   0.306  0.0471 -0.1300 -0.0208
24886W        W44420   5.471   6.572  13.004 -0.0533 -0.2654 -0.1867
24887W        W44421   7.610  17.838   4.124  0.1169  0.1350 -0.0166
24888W        W44422  15.435  11.228   4.714  0.0713  0.0633  0.0375
24889W        W44423   1.377  11.138  14.219 -0.0120  0.0755  0.2207
24890W        W44424  10.062  11.677   1.232 -0.0499 -0.1015 -0.0857
24891W        W44425   9.764   1.898  13.034  0.1262  0.2486  0.0189
24892W        W44426   7.029   7.139  12.109 -0.1719 -0.0456  0.0199
24893W        W44427   7.754   1.497  12.482  0.1547  0.0960  0.1501
24894W        W44428  14.679   5.152   1.372 -0.1269 -0.2313 -0.0778
24895W        W44429   5.820   0.454  15.187  0.4302  0.1706  0.1351
24896W        W44430   4.008   7.247   1.145 -0.0009  0.1872  0.2252
24897W        W44431  15.494  18.063  14.889 -0.1287  0.2474 -0.0268
24898W        W44432  12.588   1.820   2.350 -0.0264  0.0016 -0.1328
24899W        W44433  10.635  10.989  15.822 -0.0983  0.3015 -0.1462
24900W        W44434   1.823   7.108   3.398  0.0958  0.2101 -0.0158
24901W        W44435   3.950   0.517  15.107  0.0635  0.3891  0.0271
24902W        W44436  18.185  12.805   3.995 -0.0361 -0.0295 -0.1296
24903W        W44437   1.501  13.730  11.494 -0.1371  0.0746 -0.0551
24904W        W44438   9.498  14.822  11.825  0.0625  0.1616  0.3048
24905W        W44439  16.026  16.786  15.709 -0.1803  0.2720 -0.1823
24906W        W44440   7.834  13.762  10.673  0.0217  0.0011  0.0274
24907W        W44441   0.481   8.826  11.114  0.2056 -0.2395 -0.1524
24908W        W44442  13.240   1.093  15.551 -0.1748 -0.2849  0.3201
24909W        W44443  13.696  18.194  15.773 -0.3358 -0.0504 -0.0682
24910W        W44444  17.164   2.779  14.492  0.1863 -0.1413 -0.0686
24911W        W44445  16.733   8.700  12.621  0.0608  0.2708 -0.2888
24912W        W44446  12.221  15.071  14.644 -0.0168  0.0640  0.0429
24913W        W44447  13.348   0.685  13.851 -0.0301 -0.4760 -0.2184
24914W        W44448  11.109  10.206   3.134 -0.0633  0.0198 -0.1490
24915W        W44449   2.280   6.162   0.801 -0.1262 -0.1375  0.0900
24916W        W44450  18.000  10.252  13.563 -0.1796 -0.3805 -0.1703
24917W        W44451  14.469   9.075  11.961 -0.0844  0.1665 -0.1448
24918W        W44452  12.296   7.977   1.245 -0.0390 -0.0197  0.2418
24919W        W44453   9.045   4.401  13.413 -0.1397  0.2476  0.0471
24920W        W44454   8.157   0.769   1.321  0.0090  0.2472  0.2785
24921W        W44455   4.677  14.065  11.714  0.0271  0.0217  0.0518
24922W        W44456   1.163  12.163  14.658  0.1085 -0.0505  0.1045
24923W        W44457   8.872   9.263  10.535  0.2133 -0.2174 -0.0916
24924W        W44458  17.109   0.116   1.545  0.1809  0.1750 -0.2714
24925W        W44459   3.475   1.770   3.385 -0.0265 -0.0666  0.1585
24926W        W44460  14.519   4.187   3.993 -0.6354  0.0466  0.0529
24927W        W44461   1.350  16.814   0.338  0.0498  0.0936 -0.0412
24928W        W44462  10.946   1.293   4.570  0.1514 -0.1221 -0.2955
24929W        W44463  14.376  16.880   1.945  0.0161  0.0314  0.1419
24930W        W44464   2.548  10.343  13.719  0.2947  0.0365  0.0397
24931W        W44465  10.279  16.244   1.029 -0.0136  0.0894 -0.0574
24932W        W44466   0.318  18.048  12.958 -0.3706 -0.0282  0.1813
24933W        W44467  10.121   8.015   0.860 -0.0255 -0.0297  0.0643
24934W        W44468  14.998   3.815   0.847 -0.0459 -0.1356 -0.0290
24935W        W44469  13.086  11.089   2.226  0.1099 -0.0848 -0.2801
24936W        W44470   4.713   0.024  12.906 -0.0226  0.1063 -0.1633
24937W        W44471   1.569  11.447   2.998  0.1759 -0.2029  0.0823
24938W        W44472   5.659  14.370  13.965 -0.2917 -0.1116 -0.2789
24939W        W44473  17.384   9.140  14.557 -0.4766 -0.1428  0.1300
24940W        W44474   6.547  17.845  12.179 -0.0192  0.2171 -0.0801
24941W        W44475  11.500  15.795  11.396  0.0765  0.0864  0.3397
24942W        W44476   0.739   3.446  12.677  0.2299 -0.0688 -0.1023
24943W        W44477   8.103   3.172   0.580 -0.1440 -0.0226 -0.0183
24944W        W44478  11.939   1.560   3.017  0.3806 -0.1603  0.1643
24945W        W44479  17.412  10.789  13.777 -0.1101  0.2534  0.1904
24946W        W44480   9.208  13.953  13.433 -0.0547  0.2565 -0.5278
24947W        W44481   7.238   8.475   3.801 -0.2759 -0.4283  0.1440
24948W        W44482   6.610  16.304   0.036  0.2203  0.3365  0.0812
24949W        W44483  10.349   6.342  14.119  0.0879  0.1445 -0.2144
24950W        W44484   8.914  18.190  14.343 -0.0597 -0.0153  0.1839
24951W        W44485  12.265  17.634  14.403  0.1177  0.0115 -0.0000
24952W        W44486   8.199   5.873  12.850  0.1407 -0.0139 -0.2289
24953W        W44487   9.814  13.814   5.016  0.0987  0.0777  0.1913
24954W        W44488   5.802   7.430   0.122 -0.1523  0.0659 -0.0972
24955W        W44489   8.717   0.579   0.274 -0.0045  0.0908 -0.0313
24956W        W44490   4.861  14.318  14.201 -0.1958  0.1728 -0.0596
24957W        W44491   8.748   4.851  12.144  0.1339  0.1003  0.0690
24958W        W44492   5.538   4.497  11.353  0.1026 -0.0470 -0.1165
24959W        W44493   2.661   9.042  13.736  0.1302 -0.1878 -0.2624
24960W        W44494  17.916  18.281  14.887  0.2475 -0.2438  0.2587
24961W        W44495  12.936  12.946  14.392  0.2223  0.3780  0.3611
24962W        W44496   9.556   5.489  14.625 -0.0602  0.1967 -0.1602
24963W        W44497  11.450   8.096   3.199 -0.1061  0.3860 -0.1018
24964W        W44498   5.188  14.250   2.346 -0.0542  0.1336 -0.2494
24965W        W44499   5.231   2.827   3.164 -0.0202  0.1498  0.0963
24966W        W44500   7.575  11.897   4.234 -0.2556 -0.4301 -0.1896
24967W        W44501   1.886   1.257  15.191  0.2920  0.1353 -0.0947
24968W        W44502  12.408   9.779  14.639 -0.1864 -0.2007  0.1874
24969W        W44503   3.758  16.061  13.070  0.0232 -0.1096  0.0480
24970W        W44504   5.660   3.453  12.731 -0.2792 -0.2452 -0.0577
24971W        W44505   4.673  11.136   3.291 -0.4041 -0.3823 -0.0047
24972W        W44506  16.672   6.651  14.995 -0.1986 -0.0168  0.1618
24973W        W44507   7.614   7.626   0.529 -0.1427 -0.2645 -0.1873
24974W        W44508  11.006   7.068  14.636 -0.0832 -0.1675  0.2082
24975W        W44509   0.308   9.895  15.243 -0.3578 -0.3463  0.0858
24976W        W44510   2.335  13.995  15.456 -0.1345 -0.0541  0.0706
24977W        W44511   2.932   3.760   4.267  0.0390  0.2975  0.0116
24978W        W44512   7.831  17.298  14.300  0.0794  0.1699  0.1474
24979W        W44513   4.542  15.275  14.576  0.1078  0.0699 -0.0042
24980W        W44514   6.155  16.552  15.589  0.0019  0.1267 -0.0211
24981W        W44515  10.176  12.714   2.551  0.1224  0.1298  0.0182
24982W        W44516   0.408   3.673   1.155 -0.0731 -0.0831  0.3052
24983W        W44517   0.757  13.665  14.696  0.0478 -0.1779 -0.1442
24984W        W44518   0.418   9.013  15.225 -0.0341 -0.3839  0.2095
24985W        W44519   9.441   0.918  11.698  0.2409 -0.0591  0.1657
24986W        W44520   6.578  14.053   2.603  0.1833  0.0505 -0.1960
24987W        W44521   0.058   0.667   3.257  0.3149  0.1776 -0.1432
24988W        W44522  12.454   5.462  15.053  0.3521 -0.0370  0.0206
24989W        W44523   2.967  10.386   0.172  0.0055 -0.0533 -0.1127
24990W        W44524  14.873   6.132  13.088 -0.0154 -0.4401  0.0074
24991W        W44525   5.137  13.580   4.417 -0.4303 -0.3799 -0.1759
24992W        W44526  16.915  11.703  14.476 -0.0654  0.1822  0.0810
24993W        W44527   6.512   7.633   4.404  0.0970  0.0524  0.2716
24994W        W44528  13.113   8.027  13.917 -0.2239  0.0048  0.1637
24995W        W44529   6.470   7.882   3.100 -0.0567 -0.1665  0.2612
24996W        W44530  12.517   3.743  11.365  0.3591  0.0163 -0.2195
24997W        W44531   5.176   5.956  11.452 -0.0024 -0.0123  0.0970
24998W        W44532  11.546  13.050  10.654  0.0991 -0.0898 -0.0534
24999W        W44533   3.720   8.394  13.278  0.1817  0.0213 -0.3029
25000W        W44534  10.169   3.787  14.121 -0.0939  0.0638  0.1599
25001W        W44535   7.046  13.513   0.393  0.0681 -0.4636  0.3178
25002W        W44536  11.766   8.020  14.825 -0.1852  0.3252 -0.1690
25003W        W44537  12.098  11.589   3.382 -0.0562 -0.0648  0.2259
25004W        W44538   7.267  16.863   3.566  0.1412  0.1330 -0.0703
25005W        W44539   9.244   0.679   2.948 -0.5502  0.1901  0.1735
25006W        W44540  11.348  12.951   3.703  0.0369 -0.1635 -0.1834
25007W        W44541  16.372   9.583   0.811 -0.3410 -0.0726  0.2907
25008W        W44542  14.298  16.414   0.073  0.1105 -0.1226 -0.0122
25009W        W44543  11.614   5.854  11.835  0.1472  0.2391  0.1449
25010W        W44544   0.417   6.427  11.088  0.1259 -0.2585  0.1936
25011W        W44545   4.175   3.090  11.625  0.2997  0.0379 -0.1203
25012W        W44546   5.071  11.777  14.909 -0.0204  0.1551 -0.0132
25013W        W44547   8.012   4.841  12.044  0.0216 -0.0153  0.1440
25014W        W44548   1.490   8.276  15.832 -0.3852 -0.0706  0.0954
25015W        W44549   4.691  15.925   1.842 -0.0949  0.2427  0.2846
25016W        W44550  18.352   6.226   2.041  0.1425 -0.0270  0.3152
25017W        W44551  17.823  14.385   0.623  0.1341  0.2003  0.1589
25018W        W44552  17.434  17.730   0.393  0.0450  0.0201 -0.2917
25019W        W44553  16.105  16.813  15.189  0.2568  0.1638 -0.2640
25020W        W44554   5.095   0.494  13.003  0.2035 -0.1087 -0.2138
25021W        W44555  12.352   5.978   0.538 -0.2913 -0.0795 -0.1972
25022W        W44556   2.791   9.458   3.930  0.2194  0.0373 -0.3811
25023W        W44557  12.693   8.552   2.409 -0.0115 -0.0676  0.0385
25024W        W44558   3.737  14.104   2.409  0.0623 -0.0166  0.3150
25025W        W44559   9.045   9.125   2.104 -0.1263  0.1999  0.0725
25026W        W44560   6.855   8.112  13.552 -0.1478 -0.2847 -0.0478
25027W        W44561   7.357  11.939   2.042  0.1287 -0.1320  0.1316
25028W        W44562  16.594   6.668  13.493 -0.1235  0.3628 -0.0810
25029W        W44563   7.796   6.797   3.976 -0.1642  0.2995 -0.0567
25030W        W44564   3.390  15.546  14.539 -0.4831 -0.1943 -0.0361
25031W        W44565   6.668  17.999  13.089  0.3223  0.0102  0.1955
25032W        W44566   7.106   0.718  12.589 -0.0810  0.0247  0.0706
25033W        W44567   0.979  11.621  12.356  0.1349  0.0452 -0.3286
25034W        W44568  13.556   3.298   0.976 -0.2430 -0.1809  0.2125
25035W        W44569   9.192   2.936   1.689 -0.0561  0.3390  0.1101
25036W        W44570   7.660   0.233  12.258 -0.2341 -0.1343  0.5068
25037W        W44571  10.170  18.336  10.675  0.2353 -0.1201 -0.1533
25038W        W44572   9.112  16.933   2.843 -0.0576  0.1376  0.0105
25039W        W44573   5.370  10.518  12.237  0.2710  0.0730  0.2293
25040W        W44574   2.958  15.852   2.437 -0.1524  0.0196  0.1679
25041W        W44575  10.858  14.705  14.592 -0.1287 -0.1425  0.0061
25042W        W44576  18.088  17.607   3.077 -0.1111  0.0017  0.0956
25043W        W44577   6.002   7.369  12.887  0.0419  0.1168 -0.0998
25044W        W44578  14.636   6.799  15.134 -0.2413  0.3395 -0.0367
25045W        W44579   4.861  13.104  13.543 -0.1598 -0.2202  0.3472
25046W        W44580  17.476   4.138   9.694 -0.0140  0.3574  0.2670
25047W        W44581  15.311   6.746  11.435 -0.0755 -0.4025 -0.2478
25048W        W44582   3.983   3.449  15.724 -0.1372 -0.0939  0.0308
25049W        W44583   7.649   6.052  14.333 -0.1658  0.0737 -0.2060
25050W        W44584   9.554   4.467   0.575 -0.0895 -0.1398 -0.2887
25051W        W44585  18.119  10.680   1.590 -0.0315 -0.0632  0.0457
25052W        W44586  16.390  10.712   4.140 -0.0487  0.0649 -0.0575
25053W        W44587   9.705   2.718  15.618 -0.1521 -0.0093  0.1321
25054W        W44588  16.372   1.773  14.361 -0.1124  0.0238 -0.1838
25055W        W44589  18.124   9.878  11.204  0.0543  0.4409 -0.1043
25056W        W44590   4.291  14.928   1.266 -0.0805 -0.1151  0.0687
25057W        W44591  16.029  14.074   3.865  0.1337  0.1603 -0.0037
25058W        W44592  17.470   9.049  12.919  0.1994  0.2385  0.1992
25059W        W44593   7.371  17.888  15.224 -0.2093 -0.0722  0.1483
25060W        W44594   1.466  17.047  14.182 -0.2340 -0.0300 -0.1781
25061W        W44595   5.674  13.306   3.127  0.0749  0.0704 -0.0755
25062W        W44596  16.473  11.520   1.842 -0.2190 -0.0182 -0.0328
25063W        W44597  16.719  11.452   3.592  0.1268  0.0146  0.0255
25064W        W44598  10.256  17.754  14.269 -0.0095 -0.4013  0.0254
25065W        W44599   7.513   2.883   0.343  0.2658  0.0081 -0.1348
25066W        W44600  11.098   2.777  12.468  0.1018 -0.0714  0.1152
25067W        W44601  13.110   9.738  14.128 -0.0608  0.2062 -0.2593
25068W        W44602  16.496   6.004   1.191  0.1111 -0.3796 -0.0841
25069W        W44603  12.730  13.645  13.860 -0.0216  0.2409  0.1735
25070W        W44604  12.218   6.598  15.242  0.2668 -0.3935  0.3256
25071W        W44605   3.476   7.230   0.343 -0.0832 -0.2397 -0.2458
25072W        W44606  16.269   2.200   2.007  0.3205  0.1602  0.0478
25073W        W44607   2.066  15.955  15.074  0.0815 -0.0679  0.4010
25074W        W44608  12.752   3.850   5.550 -0.1234  0.0086  0.0038
25075W        W44609  17.703  14.919  14.076  0.1383  0.0673 -0.2708
25076W        W44610   4.318   5.453  14.827 -0.0589 -0.1970  0.1642
25077W        W44611   6.008  12.755   0.883  0.3240 -0.0048 -0.2051
25078W        W44612  16.761  11.788  11.245  0.3526  0.3085 -0.3110
25079W        W44613   6.504  13.507   4.749 -0.0028 -0.3054  0.0747
25080W        W44614  13.317  18.310  11.960 -0.0461 -0.2425 -0.0310
25081W        W44615  13.976   6.895  13.758 -0.3597  0.1005 -0.2044
25082W        W44616  18.386   9.735  15.611 -0.3039 -0.2764 -0.2347
25083W        W44617  11.673   2.162   0.263  0.1541 -0.2452  0.0224
25084W        W44618   2.052  14.910  14.408  0.1574 -0.1025  0.1272
25085W        W44619   3.232   6.172  13.539 -0.0897 -0.0168  0.0015
25086W        W44620  10.070  18.197   2.446  0.0809  0.0912  0.3306
25087W        W44621   8.020   8.284   1.718  0.1928 -0.2748  0.2630
25088W        W44622   6.896  15.426   0.203 -0.0964 -0.1110 -0.0762
25089W        W44623  17.012  13.012  12.895 -0.1821 -0.1752  0.0488
25090W        W44624  11.042  12.491   3.570 -0.1945 -0.1086  0.0553
25091W        W44625   0.641  16.490  15.791  0.0451 -0.0922  0.1995
25092W        W44626   3.880  10.587   2.895 -0.1572 -0.0308 -0.2082
25093W        W44627   9.776   4.015  14.689  0.0361  0.1576  0.0205
25094W        W44628   3.587   4.156  14.514  0.1622  0.0796  0.3090
25095W        W44629   1.720   3.818  10.481 -0.2197 -0.3004  0.3800
25096W        W44630   5.839   9.207  11.076 -0.1905  0.0465 -0.0177
25097W        W44631   1.409  18.216   2.227 -0.1808 -0.1323 -0.1292
25098W        W44632   8.888   4.193  14.766 -0.1819  0.1708  0.1970
25099W        W44633   3.549   0.263  11.737  0.3416  0.1784  0.0025
25100W        W44634  12.961   2.192  15.410 -0.0507  0.0691  0.2706
25101W        W44635  17.911  15.527  12.848  0.0462 -0.1604  0.1181
25102W        W44636   7.276   8.300  13.381 -0.0451 -0.2446 -0.2653
25103W        W44637  15.492   4.199  12.754 -0.1640  0.0964 -0.3070
25104W        W44638   1.238  14.251  11.232 -0.3934 -0.2880  0.0040
25105W        W44639   6.934  15.004   1.435  0.1195 -0.3478 -0.1441
25106W        W44640   2.127  12.979   1.072  0.1226  0.0470 -0.2137
25107W        W44641   7.401   8.707  13.935  0.1268 -0.1462 -0.0267
25108W        W44642  15.526   0.331   1.298  0.2285  0.0625 -0.2924
25109W        W44643   4.080   0.344   3.162 -0.0054 -0.2051 -0.0225
25110W        W44644   7.550   9.388   3.728 -0.1116  0.3530 -0.2816
25111W        W44645  11.550   9.081   3.978 -0.2289  0.0012  0.2332
25112W        W44646   9.825  11.432  15.366  0.0779  0.1190  0.0712
25113W        W44647   6.868   8.719   0.937  0.2421  0.0247 -0.3858
25114W        W44648   1.433   2.514   1.000 -0.0528 -0.0726 -0.0379
25115W        W44649   3.992   6.152  14.272 -0.0061 -0.2740 -0.1028
25116W        W44650   4.918   4.526  14.069 -0.1344 -0.2896 -0.0573
25117W        W44651   1.381   3.442  14.264 -0.2555 -0.0040 -0.0943
25118W        W44652   9.313  16.075  12.686  0.2435 -0.1303 -0.2029
25119W        W44653  10.949   3.660  13.238  0.0769 -0.2468 -0.4381
25120W        W44654   0.688   0.479   0.347 -0.1234 -0.1424  0.0237
25121W        W44655   7.435  10.623  11.699  0.0949  0.1761 -0.1845
25122W        W44656  15.816  12.157  12.002 -0.1164 -0.1350 -0.0390
25123W        W44657   2.099   1.061  11.665 -0.1913  0.0892  0.1002
25124W        W44658  15.827   8.092  11.693  0.2172 -0.0746  0.0888
25125W        W44659   0.943   7.297  12.045  0.0972  0.1221 -0.0352
25126W        W44660   0.905  16.166   2.835 -0.0326  0.0519  0.1020
25127W        W44661   8.513  13.666   4.691 -0.1089 -0.1550  0.1719
25128W        W44662   7.316  13.389   3.155 -0.2212 -0.0422  0.0260
25129W        W44663  10.779   9.859  14.980  0.1573 -0.0648  0.0296
25130W        W44664   7.366  11.453   3.087  0.3582  0.1668 -0.0443
25131W        W44665   1.667   0.445   3.969 -0.1903 -0.3193  0.2590
25132W        W44666   1.916   4.854  14.822  0.0439 -0.4381 -0.1272
25133W        W44667   7.724   0.950   4.834 -0.1936 -0.0495  0.0548
25134W        W44668  18.125   3.855   1.835  0.4369  0.1488  0.0654
25135W        W44669   9.745   5.508   4.229  0.1159  0.0918  0.2336
25136W        W44670  12.444   4.643  12.960  0.0891 -0.2777 -0.0494
25137W        W44671  15.982   0.889   0.854  0.1022  0.2984  0.0191
25138W        W44672  18.183  11.643   4.772  0.0618  0.0238  0.0371
25139W        W44673   5.951   3.600   0.967  0.0348  0.2044  0.0078
25140W        W44674   2.327  17.344  12.489  0.0071 -0.0841 -0.1187
25141W        W44675   1.515  10.747  13.612 -0.0749  0.1656  0.2991
25142W        W44676  10.732   6.141   3.512 -0.0599 -0.4755 -0.0294
25143W        W44677  14.320  10.118   0.971  0.1358 -0.0318  0.1973
25144W        W44678   2.909  11.382   1.187 -0.2206  0.0279 -0.0731
25145W        W44679  15.268   1.632  13.926  0.3945 -0.0445 -0.1434
25146W        W44680   5.667   9.379   2.418  0.1440 -0.0114  0.0906
25147W        W44681  12.014  12.325   0.551 -0.1352  0.1951 -0.1569
25148W        W44682   9.377   5.492   3.443  0.0501 -0.1142 -0.1034
25149W        W44683  10.496  17.602   0.436 -0.1334 -0.0690  0.2692
25150W        W44684  13.406   9.213   1.403 -0.0213 -0.2259  0.2070
25151W        W44685  12.454   0.459   2.449 -0.3159 -0.2035  0.0359
25152W        W44686   8.244  17.870   1.131  0.1832 -0.0369 -0.0650
25153W        W44687   5.270   6.743   1.048  0.0068  0.0803  0.1210
25154W        W44688   9.517  16.631  12.665  0.0176 -0.1619 -0.1437
25155W        W44689   2.087  11.081  12.684 -0.1213  0.1606 -0.2145
25156W        W44690   5.457   3.288  13.150 -0.1030 -0.0656  0.1055
25157W        W44691  10.559  11.501  13.820  0.2860 -0.0171 -0.0622
25158W        W44692  16.152   5.584   1.237  0.1458 -0.2645 -0.0770
25159W        W44693   7.617  16.577   3.868 -0.2138  0.0054  0.2196
25160W        W44694   2.130   0.949  12.605 -0.0419  0.2077 -0.1530
25161W        W44695  17.662  13.598  14.878 -0.0675  0.2970 -0.1092
25162W        W44696  16.028   9.015  13.008  0.0790  0.0863 -0.0092
25163W        W44697  10.698  17.264  12.195  0.1215 -0.2191 -0.0527
25164W        W44698  11.398   1.401  12.303  0.0392 -0.0338  0.1323
25165W        W44699  11.084   7.724   1.067  0.6037  0.2423 -0.2634
25166W        W44700  15.581   7.771  11.156  0.0446  0.1629 -0.2620
25167W        W44701   7.679  10.937   0.054  0.0340  0.0890 -0.1418
25168W        W44702   0.451   3.467   0.688  0.3070  0.0333 -0.1664
25169W        W44703  18.360   7.864  14.768  0.0128  0.0451  0.1149
25170W        W44704   8.920   2.389  14.196 -0.1879 -0.1824  0.2766
25171W        W44705  14.036  11.036   1.868  0.0787  0.0042 -0.3274
25172W        W44706   1.841   7.055   1.814 -0.0751  0.3019 -0.1687
25173W        W44707   8.063   8.980   4.181 -0.0674  0.0260  0.0160
25174W        W44708  17.832  11.189   2.352  0.3066 -0.0783 -0.0353
25175W        W44709   3.635   9.283   4.251  0.3890 -0.1829 -0.2620
25176W        W44710   8.368  16.274  14.586  0.0675  0.1220  0.1118
25177W        W44711   6.773  14.580   0.518  0.3140  0.2189  0.1751
25178W        W44712   8.223   2.534   4.191  0.1456  0.0240  0.0104
25179W        W44713   3.336  18.140   4.757 -0.1440  0.0022  0.2201
25180W        W44714   9.966   6.255   1.638 -0.0605  0.4439  0.3772
25181W        W44715   3.668   5.042   0.977  0.2806  0.2727  0.0951
25182W        W44716  10.413  18.337   4.917 -0.0632  0.0614  0.0361
25183W        W44717  10.695   4.056  14.897 -0.0532 -0.0636 -0.0079
25184W        W44718   5.551   1.315   5.619  0.4396  0.0852  0.0749
25185W        W44719   5.757  16.866   0.049  0.1494  0.1559  0.3853
25186W        W44720  15.114  11.722  11.415  0.1742 -0.2056  0.3311
25187W        W44721  16.322  14.766   1.771  0.2111  0.3274 -0.0498
25188W        W44722   9.686  18.213   1.508 -0.2769  0.3298 -0.1573
25189W        W44723  15.329   7.623   3.904  0.1710 -0.0462  0.1163
25190W        W44724   5.663  13.159   3.605 -0.3367  0.1092  0.1844
25191W        W44725   8.314   9.013   2.867 -0.1487  0.0437 -0.2829
25192W        W44726   5.753   2.871   2.976  0.2135  0.2703  0.1306
25193W        W44727  17.295  14.800   2.421  0.0243 -0.3630 -0.1356
25194W        W44728   7.922  17.693  13.452  0.3565  0.1928  0.2200
25195W        W44729  11.516   7.966   1.355  0.0225  0.0329  0.3507
25196W        W44730   8.828  16.239   4.398 -0.2021 -0.0856 -0.2170
25197W        W44731  15.392  11.644  10.489 -0.0615  0.0738  0.4115
25198W        W44732   6.937   7.839  14.064  0.1049 -0.0922  0.1062
25199W        W44733   2.207  15.508   0.999  0.2217  0.2673  0.0606
25200W        W44734  17.647  17.282   0.498  0.0096  0.1510  0.0475
25201W        W44735   2.644   8.627   4.760  0.0414  0.0688 -0.0769
25202W        W44736   4.605   4.736   1.079 -0.1873  0.0701 -0.0324
25203W        W44737   4.610   0.074   0.160 -0.2975  0.0338 -0.0962
25204W        W44738   0.078  10.129   4.190 -0.1166  0.1922  0.5791
25205W        W44739  11.326  14.059   1.817 -0.1514  0.0434 -0.1348
25206W        W44740  12.230   1.811  14.999  0.0444 -0.0063  0.1947
25207W        W44741   6.828   9.374  14.502  0.0350 -0.0630  0.0162
25208W        W44742  14.495  10.223  14.693 -0.3111  0.1395 -0.1869
25209W        W44743  12.257   9.838  13.104 -0.2376 -0.1298  0.4008
25210W        W44744   6.785  18.191   2.353  0.0173 -0.1687  0.0610
25211W        W44745   1.133  14.261  12.212 -0.1098  0.1307 -0.2758
25212W        W44746   6.140  11.727   2.491 -0.1087 -0.0804  0.0173
25213W        W44747   5.185  14.143   0.667 -0.0721 -0.2861  0.0569
25214W        W44748  17.899  12.664   2.736 -0.0872  0.2736 -0.0689
25215W        W44749  17.883   2.351  13.489 -0.1476 -0.1153 -0.0497
25216W        W44750   4.372   6.197  14.768 -0.2291 -0.2775  0.0645
25217W        W44751   6.812   5.544  14.743 -0.3301  0.2093 -0.1705
25218W        W44752   1.501  12.241   3.928  0.1687  0.0661 -0.2082
25219W        W44753   0.338   7.285  11.304 -0.2298  0.0412 -0.0338
25220W        W44754   8.633   7.442   2.490  0.1867 -0.2623 -0.1004
25221W        W44755  14.970  12.460  15.421 -0.1607 -0.3224  0.3272
25222W        W44756   1.701   4.695  15.769  0.1062 -0.1921  0.0283
25223W        W44757  11.356   1.078  14.214 -0.2598 -0.1437  0.2050
25224W        W44758   6.278   9.096   0.853 -0.1160 -0.3468  0.0404
25225W        W44759   7.167   2.276   1.557 -0.0727 -0.0065 -0.0924
25226W        W44760   6.881  14.814   2.270 -0.0317 -0.0289  0.1681
25227W        W44761  16.052  18.350  14.910  0.1165 -0.1787  0.0272
25228W        W44762  15.883  17.939  14.550 -0.2171 -0.0088  0.0460
25229W        W44763  13.149  12.198   1.947  0.2000 -0.3412 -0.2365
25230W        W44764   8.973   5.428  14.689 -0.1019 -0.1059  0.1326
25231W        W44765  10.004   9.737  14.328  0.1845  0.2626  0.0006
25232W        W44766  14.827  17.387   1.646  0.1090 -0.3694 -0.2860
25233W        W44767  14.544  17.256   4.243 -0.3332  0.1599  0.0965
25234W        W44768  16.832  11.903   0.391  0.1385 -0.2525  0.1614
25235W        W44769   5.796  18.310  15.292  0.2385  0.2530 -0.2538
25236W        W44770   5.524   8.379   3.103  0.1865 -0.2051 -0.0464
25237W        W44771   2.161   6.099   1.607  0.2934 -0.3446  0.3606
25238W        W44772   9.185   3.751   4.931 -0.3844 -0.0846  0.1559
25239W        W44773   1.290   6.876   3.065 -0.2457  0.0106  0.2305
25240W        W44774   4.071  11.542   1.842 -0.1983  0.0006  0.2233
25241W        W44775   9.355   9.476   3.119 -0.0950 -0.3239 -0.0961
25242W        W44776   8.995   2.770   0.112 -0.1459 -0.1025 -0.0786
25243W        W44777  11.068   9.933  14.505  0.2410 -0.1277 -0.0366
25244W        W44778   4.407   7.083  11.822  0.3088  0.2533  0.1000
25245W        W44779   5.249  18.286  13.460 -0.0814 -0.0783 -0.0604
25246W        W44780   5.004  12.488  14.502 -0.0164 -0.3126 -0.4180
25247W        W44781   2.698   2.137   3.038  0.3215 -0.3191 -0.0013
25248W        W44782  18.336   0.502  10.633 -0.1815  0.0524  0.0346
25249W        W44783   6.709  17.565  14.065  0.0865  0.0044 -0.0869
25250W        W44784  15.654  13.251  12.613  0.0649 -0.1496 -0.0414
25251W        W44785   5.086   4.106  14.980  0.0522  0.3308  0.2191
25252W        W44786  13.209   5.591  13.457 -0.0215  0.0668  0.0916
25253W        W44787  17.020  15.844   0.878 -0.4271  0.1024 -0.0716
25254W        W44788   2.553   6.181   3.205 -0.0379  0.0808 -0.0228
25255W        W44789   5.214  13.520   0.617  0.1807 -0.1901  0.2508
25256W        W44790   6.084   1.928   3.134 -0.0536  0.1041  0.0791
25257W        W44791  13.592  13.819  11.372 -0.0536  0.0032  0.2031
25258W        W44792  12.375   8.995  13.568  0.0212  0.3090  0.1032
25259W        W44793  12.784   7.953   2.608 -0.0280 -0.3270  0.2560
25260W        W44794  11.882  14.187   1.737 -0.0045 -0.0647 -0.5094
25261W        W44795  11.294  11.102  11.880  0.0198 -0.0103 -0.0527
25262W        W44796   4.718  17.007   1.253  0.2352 -0.2305 -0.3438
25263W        W44797   5.039  15.463  14.299  0.0131 -0.0871  0.1183
25264W        W44798  13.622   6.859  12.406  0.1005  0.0298 -0.0679
25265W        W44799   3.598  17.921  14.709  0.0836  0.1032  0.2084
25266W        W44800   7.998   2.137  15.558  0.0378 -0.1920 -0.0560
25267W        W44801   2.777   3.754   3.131  0.1140 -0.0752 -0.4172
25268W        W44802  11.688  10.806  10.190 -0.0879  0.2300 -0.0792
25269W        W44803   3.026  12.983   2.223  0.1118  0.2679  0.1307
25270W        W44804   0.006  16.443  14.475  0.2792  0.3230 -0.1404
25271W        W44805   1.296   5.954   2.040  0.0647  0.1353 -0.2757
25272W        W44806  14.957  12.093  12.965  0.0034  0.0133 -0.2550
25273W        W44807   3.772   6.432  15.558  0.1068 -0.2117  0.0923
25274W        W44808  15.239  16.111   0.551  0.4014 -0.2365 -0.3225
25275W        W44809   7.238   0.202  13.246  0.1481  0.0144 -0.3294
25276W        W44810  18.319  14.097  12.933 -0.1846  0.1605 -0.1699
25277W        W44811   8.417  10.204  14.798 -0.1849  0.0185 -0.2863
25278W        W44812  16.905  11.826  14.955  0.0444 -0.2956 -0.0234
25279W        W44813   5.328  10.265  15.271  0.2631  0.2228 -0.0320
25280W        W44814   2.181  16.198  12.780  0.1018 -0.0403  0.1596
25281W        W44815  16.368  11.684   3.932  0.0187  0.0733 -0.0561
25282W        W44816   0.320  17.589   1.935 -0.2234 -0.1162  0.0074
25283W        W44817   1.190   9.002   2.765  0.1627  0.0098  0.1777
25284W        W44818   1.956   5.406  10.858  0.0150  0.1592  0.1668
25285W        W44819   0.205  12.451  14.678 -0.0095  0.1073  0.0286
25286W        W44820  17.010   4.386  15.683  0.4400 -0.1035  0.2665
25287W        W44821   0.740   8.072  10.838 -0.0846  0.2170  0.4037
25288W        W44822   0.710   7.840  14.361  0.1975  0.1338  0.1187
25289W        W44823   3.498   4.279   1.434  0.0450  0.0962 -0.5422
25290W        W44824   4.863   5.456   4.512 -0.0139  0.1588  0.1028
25291W        W44825  10.546   7.041   1.538 -0.1973  0.0070  0.0795
25292W        W44826   3.999   8.193  14.621  0.1128  0.0155  0.0564
25293W        W44827   0.193   8.076   3.856 -0.0834 -0.1291 -0.0651
25294W        W44828  15.447  11.909   3.017  0.2606 -0.2649 -0.2582
25295W        W44829  16.133   2.363  10.409 -0.1547  0.0682 -0.0057
25296W        W44830   0.026   5.889   5.145  0.1070  0.0629  0.0487
25297W        W44831  14.812  12.099  11.726  0.2680  0.0449 -0.0539
25298W        W44832   8.196  17.446   0.046  0.0429  0.2208 -0.0697
25299W        W44833  12.343   7.336  12.513  0.2254  0.3905 -0.0144
25300W        W44834  11.386   4.149  14.979 -0.0885 -0.0961  0.0296
25301W        W44835  15.237  15.872   4.393  0.0352 -0.0044 -0.1227
25302W        W44836  17.466   3.690  11.521 -0.0969  0.1899 -0.4710
25303W        W44837  13.683  12.904   4.125  0.0634 -0.1154  0.0406
25304W        W44838   0.504   4.709   1.904 -0.1147 -0.0107 -0.2693
25305W        W44839  15.196  18.323  14.473  0.2257 -0.0289  0.1702
25306W        W44840  14.829   7.883   1.235  0.0734 -0.2213  0.0539
25307W        W44841   7.434   2.863   4.730  0.0531  0.0561  0.3211
25308W        W44842   1.160   4.579  15.685  0.0198 -0.0065  0.2776
25309W        W44843  16.366  11.250  13.254  0.0899  0.1721 -0.6088
25310W        W44844   1.102   3.307   3.934 -0.2154  0.3226 -0.0230
25311W        W44845  10.031   3.285   3.247  0.0376  0.0233  0.0159
25312W        W44846  17.345   1.471   3.686  0.2870 -0.2103 -0.0715
25313W        W44847   5.373   4.537  13.104 -0.1163 -0.1807  0.0951
25314W        W44848  16.617  12.549  13.795 -0.2650  0.0135 -0.2504
25315W        W44849  15.191  14.756  12.933  0.0498 -0.0465 -0.1994
25316W        W44850  11.440  12.394  15.836 -0.0765 -0.0750  0.0988
25317W        W44851   6.991   4.961  14.474  0.0112 -0.0273 -0.1005
25318W        W44852  11.669   2.004   4.915  0.2056  0.0827  0.0079
25319W        W44853  14.594   1.664   2.034 -0.2812  0.1180 -0.1060
25320W        W44854  13.032   8.665  12.968  0.1937 -0.0611  0.0848
25321W        W44855  15.802  13.609   4.180  0.0514  0.1140 -0.0007
25322W        W44856   6.521   6.481   1.573 -0.0002  0.0330  0.2427
25323W        W44857  12.009   5.709  14.684  0.0733 -0.1965  0.1344
25324W        W44858   9.360   9.743   4.234 -0.1648  0.0687 -0.2313
25325W        W44859  16.130   1.132  11.683  0.2118  0.1658 -0.1650
25326W        W44860  15.393   9.368   3.884 -0.3477  0.3130  0.2956
25327W        W44861  13.118  10.594   2.903 -0.0867  0.2313 -0.0022
25328W        W44862  10.648  11.781  14.791 -0.2808 -0.0149  0.1661
25329W        W44863   6.097  16.831  12.564 -0.1631 -0.0461  0.0850
25330W        W44864   3.884   8.642   0.545 -0.3642  0.2962  0.1624
25331W        W44865   1.252  11.996   1.840 -0.2090  0.0619  0.0920
25332W        W44866   9.406  18.168  14.232  0.0933  0.0361  0.1844
25333W        W44867  13.669   5.055   4.198 -0.1011  0.0881  0.1564
25334W        W44868  15.227   0.326   3.293  0.2317 -0.0762  0.1083
25335W        W44869   3.725  17.497  12.677 -0.2125  0.2308 -0.2329
25336W        W44870  10.692   6.428  11.549  0.3166  0.1319 -0.0778
25337W        W44871  17.647  15.524  11.932  0.0874  0.0068  0.1010
25338W        W44872   3.837   3.303   3.740 -0.1528 -0.1653 -0.0154
25339W        W44873  18.180   9.813   2.041 -0.1739 -0.4684 -0.0956
25340W        W44874  10.082   7.932   0.214  0.0762 -0.1870 -0.0631
25341W        W44875   4.146   5.143   1.853 -0.2835  0.4229  0.1512
25342W        W44876  15.906  13.553   0.781 -0.1146  0.3807 -0.4574
25343W        W44877   1.384   5.512  12.371 -0.2006 -0.0443 -0.0125
25344W        W44878   3.217   4.120   4.477  0.1119 -0.0277  0.0029
25345W        W44879   3.808   1.473  15.549 -0.0068  0.4256 -0.2674
25346W        W44880  11.665   7.150  12.009  0.2617 -0.1521  0.2172
25347W        W44881  15.276   3.203  12.990  0.0100 -0.1197 -0.0426
25348W        W44882  12.117   3.308   5.073  0.2757  0.3030  0.0483
25349W        W44883   5.323   5.638   0.452 -0.0234 -0.1601  0.2331
25350W        W44884  12.363  13.331  13.522 -0.1228 -0.3372  0.1526
25351W        W44885   3.850  15.766   4.246 -0.0328  0.2037 -0.1597
25352W        W44886  11.319   9.558   1.253  0.1595  0.0868 -0.2380
25353W        W44887  16.888   0.500   2.906 -0.0116  0.1601  0.0801
25354W        W44888  14.209  10.518  12.346  0.1302  0.0518  0.0427
25355W        W44889  12.575  13.653  14.896  0.1882 -0.1883  0.3601
25356W        W44890   2.279  13.782  13.629  0.0681 -0.2363 -0.3164
25357W        W44891   5.689  14.335   3.004  0.2463  0.2200  0.0086
25358W        W44892   3.700  12.373   4.564  0.0300 -0.0228 -0.2184
25359W        W44893   8.849   6.124  12.126 -0.1020  0.1594 -0.0477
25360W        W44894  17.755  17.064  13.565  0.1568 -0.1872 -0.0222
25361W        W44895   8.292   8.902   2.347 -0.0774 -0.0700 -0.2698
25362W        W44896  11.737  14.388  13.338 -0.0533  0.3048  0.0749
25363W        W44897   0.482  14.796  15.292 -0.1539 -0.1982  0.5085
25364W        W44898  15.932   5.486  14.989 -0.0693 -0.0414  0.1212
25365W        W44899  12.554  16.593   3.320  0.1368 -0.2469  0.0412
25366W        W44900  16.436  17.754  13.654 -0.0221  0.1101 -0.0225
25367W        W44901  13.356   9.072  12.894 -0.0342 -0.0108  0.2893
25368W        W44902  14.928   8.123  11.806  0.2671  0.2976 -0.2017
25369W        W44903   8.152  12.511  15.644 -0.0142  0.0378  0.1929
25370W        W44904   9.391   5.751   2.811 -0.0980 -0.2501 -0.1232
25371W        W44905  14.821   5.931  11.228  0.1722  0.1255  0.1001
25372W        W44906   3.427  12.595  15.362 -0.0869 -0.2769 -0.1364
25373W        W44907   4.420   3.124   5.906  0.1011  0.0224  0.1946
25374W        W44908   9.893  18.119   1.017  0.0294  0.1660  0.1956
25375W        W44909  14.724   0.455  12.549 -0.0430  0.0179 -0.1610
25376W        W44910  14.287  16.625  13.554  0.0044 -0.0600  0.1820
25377W        W44911  13.652   2.886   3.674 -0.0589  0.1517  0.1239
25378W        W44912  11.910  10.715   4.627 -0.2657 -0.2922 -0.1572
25379W        W44913   3.190  10.003   3.982 -0.0109  0.2159 -0.0842
25380W        W44914  13.560   1.699   3.554 -0.0860 -0.0512  0.2301
25381W        W44915  16.390  12.293   0.289 -0.0875  0.1681 -0.1767
25382W        W44916  17.310  14.983  13.104  0.2294  0.0146  0.0751
25383W        W44917  15.113  17.723  14.846 -0.0940  0.1626  0.0301
25384W        W44918   9.358   0.319  13.390  0.0220 -0.2418  0.0337
25385W        W44919  12.483  11.163   0.324  0.0604  0.3527 -0.1277
25386W        W44920  15.056  12.347  13.363 -0.3146 -0.1097 -0.1638
25387W        W44921   1.727  18.280  15.031 -0.0802  0.1416 -0.0813
25388W        W44922  12.158  10.788  11.952  0.0021  0.2765 -0.3548
25389W        W44923   4.062   3.501  13.040  0.1442  0.1004  0.1679
25390W        W44924   9.189   7.735  11.944 -0.3294  0.1296 -0.1360
25391W        W44925   2.612   5.315   0.937  0.0295  0.0626  0.1474
25392W        W44926   1.453   8.460   2.003 -0.1907 -0.0866 -0.1609
25393W        W44927  12.203  13.994   1.280  0.2297 -0.0404 -0.1521
25394W        W44928  16.552   8.867   0.094 -0.1301 -0.1505 -0.1081
25395W        W44929   1.187   8.607   2.478 -0.0284  0.1704 -0.0072
25396W        W44930  15.155  14.386  11.743 -0.0605  0.0124 -0.2426
25397W        W44931   0.076   8.759   1.353 -0.0088 -0.1325  0.0839
25398W        W44932  13.982   0.514   3.989  0.2245  0.3118 -0.0858
25399W        W44933   7.705   6.251   3.655  0.0324 -0.1570 -0.0393
25400W        W44934   2.684   4.597  15.393 -0.4567  0.0041  0.1059
25401W        W44935   8.697   9.814   0.039 -0.0484 -0.0996 -0.3414
25402W        W44936   0.564  11.256  11.742  0.1837  0.3718 -0.2357
25403W        W44937   7.563  13.420  15.421 -0.0129  0.0826  0.2868
25404W        W44938  10.153   1.377   4.497  0.0477 -0.0045 -0.0882
25405W        W44939   6.734   5.746  13.458 -0.4009  0.3067 -0.0954
25406W        W44940   3.125   1.619   2.324 -0.0753  0.2746  0.2362
25407W        W44941  12.774   4.998   0.573 -0.3225  0.3498  0.2260
25408W        W44942  15.447   9.893  15.623  0.2436  0.0073 -0.2278
25409W        W44943  17.422  14.948  14.488 -0.1890  0.0015  0.0187
25410W        W44944  11.890  10.657   1.851  0.1971 -0.1217  0.2788
25411W        W44945  17.835   1.124   0.617 -0.3298  0.1462 -0.0089
25412W        W44946   9.068   9.703   0.401 -0.1158 -0.5240 -0.0752
25413W        W44947   3.148   5.375  13.260 -0.1826  0.0531  0.0101
25414W        W44948  10.567   8.356   0.251 -0.0929  0.0788  0.0650
25415W        W44949  10.671  10.889   1.318 -0.0217  0.0391 -0.0304
25416W        W44950   4.163   6.485   0.043 -0.1291 -0.1908 -0.2757
25417W        W44951   7.624  12.435   5.673 -0.2827  0.0657  0.0036
25418W        W44952   1.908  13.090  14.203  0.0937  0.0330  0.2157
25419W        W44953  11.620   2.947  11.774  0.2022 -0.2125  0.1486
25420W        W44954   3.673   2.172   0.920 -0.0898  0.0106 -0.0203
25421W        W44955   7.780  10.909  13.308 -0.2828 -0.2103 -0.1592
25422W        W44956   5.194  17.632  11.673  0.1842 -0.1901 -0.2359
25423W        W44957  11.590   9.065   0.865  0.1042  0.2434 -0.0539
25424W        W44958   1.096   0.736  12.744  0.2943 -0.5612 -0.0815
25425W        W44959   5.971  13.905   1.813  0.2307  0.2555 -0.0071
25426W        W44960  17.708  17.735  13.122  0.3155  0.1948  0.2322
25427W        W44961  11.894  17.635   0.686 -0.0495  0.1959  0.0221
25428W        W44962  10.731  13.150   5.622  0.4808  0.0180  0.0135
25429W        W44963  16.826  10.786   1.292 -0.0546 -0.0796 -0.1148
25430W        W44964   9.209  13.652  11.782 -0.3244  0.2035  0.0571
25431W        W44965  17.234  18.136   3.397 -0.1487  0.3058 -0.1722
25432W        W44966   6.856   0.679   4.548  0.0023 -0.5283  0.4660
25433W        W44967   3.106  17.806   3.944 -0.5162 -0.0621  0.0585
25434W        W44968  13.610   5.926  13.419  0.3180  0.0215 -0.1530
25435W        W44969  17.348   2.252  14.485 -0.0569 -0.1363  0.1786
25436W        W44970  12.990  13.317  11.919 -0.1235 -0.1728 -0.2973
25437W        W44971   7.434   0.069   0.885 -0.0476 -0.0017  0.0067
25438W        W44972  14.123  15.252   4.166 -0.0764 -0.0193 -0.3015
25439W        W44973   4.479   2.363  11.776  0.1668  0.2310  0.0593
25440W        W44974   6.055  14.241  13.712  0.3454  0.0467  0.1954
25441W        W44975   0.098   0.833   2.346  0.1798  0.0001  0.0076
25442W        W44976  14.250  15.692   3.057  0.0765 -0.2288  0.4176
25443W        W44977  18.340   4.880   3.117 -0.1770 -0.0298  0.1152
25444W        W44978   2.581  18.197  13.431  0.0779  0.2635 -0.0198
25445W        W44979  10.549  17.689  13.391  0.0910 -0.3863 -0.3297
25446W        W44980  10.150   3.966   0.291  0.1689 -0.0733 -0.1414
25447W        W44981  14.857  11.287   3.054  0.2244 -0.1797 -0.1871
25448W        W44982   9.094   8.799   1.360 -0.2016 -0.0967 -0.0803
25449W        W44983  10.519  16.347   4.189  0.2425  0.0742 -0.0881
25450W        W44984   6.453   8.962  12.444  0.1507 -0.2957 -0.1105
25451W        W44985  14.222   9.963  15.563  0.0891 -0.1285 -0.1504
25452W        W44986   9.889   4.606  12.389 -0.2126  0.0866 -0.2537
25453W        W44987   9.618   4.509  14.166 -0.1142 -0.3389 -0.0795
25454W        W44988   2.143  11.268  11.360 -0.1851 -0.3771  0.0813
25455W        W44989  15.852   5.720  14.530  0.0089  0.0929 -0.0690
25456W        W44990   7.240   0.969  13.373  0.0339  0.2468 -0.0354
25457W        W44991  14.078   2.269   4.376  0.0802 -0.0649  0.1939
25458W        W44992   6.449   8.577  15.386  0.0828 -0.1575 -0.1769
25459W        W44993   2.876  16.018   3.140  0.0022 -0.1833  0.2616
25460W        W44994  12.820   3.899  14.740  0.1768  0.2095 -0.1429
25461W        W44995  13.119  18.310   2.064  0.0981 -0.0808 -0.0502
25462W        W44996  15.158   4.116  11.576 -0.1971  0.0133 -0.0030
25463W        W44997  10.741   8.786  12.320 -0.1794  0.0307  0.0253
25464W        W44998   4.887   3.800   0.710  0.0098 -0.1991 -0.0125
25465W        W44999   2.664  11.169  13.599 -0.1729  0.1113  0.1204
25466W        W45000   2.190  17.445  13.599  0.1318  0.0688  0.0394
25467W        W45001   4.207  10.882  15.093 -0.0715 -0.3465 -0.2609
25468W        W45002  13.318  10.981   1.751 -0.0246 -0.1274 -0.0223
25469W        W45003  14.399   6.617   4.001 -0.3167 -0.1621 -0.0961
25470W        W45004   4.939  13.336  15.457 -0.0917 -0.0497 -0.1829
25471W        W45005  15.711   1.440  15.192 -0.1017 -0.0735 -0.2077
25472W        W45006  10.938  14.607   2.115  0.2493 -0.0979  0.2242
25473W        W45007   7.796   9.642   3.269 -0.1615 -0.2581 -0.2146
25474W        W45008   6.158   5.580   0.035 -0.2142 -0.1121 -0.0073
25475W        W45009  13.123  11.826   2.251  0.0226  0.2945  0.1395
25476W        W45010   9.475  11.968  12.479 -0.3400 -0.1594  0.0635
25477W        W45011   7.648  16.349  13.937 -0.2302  0.0213  0.0939
25478W        W45012   4.222   2.921   1.747 -0.1502 -0.0642 -0.3552
25479W        W45013   4.574   0.050   0.863 -0.3226 -0.5088  0.3988
25480W        W45014   3.574   1.340  12.533  0.0860  0.2649  0.0966
25481W        W45015  15.707  16.240  11.471 -0.2530  0.2198 -0.1206
25482W        W45016  17.887   2.487   0.726 -0.1329  0.1058  0.2758
25483W        W45017  11.567   6.863  11.512 -0.3830  0.1819 -0.0691
25484W        W45018   0.413   3.763   2.906  0.1019 -0.0209 -0.1648
25485W        W45019   7.642  18.121  15.665  0.0044 -0.0565  0.0812
25486W        W45020  14.704  17.606   1.169  0.1470 -0.1331 -0.1447
25487W        W45021  11.957  11.391   4.525  0.3204  0.0553  0.0653
25488W        W45022   5.209  14.063   3.154  0.1450  0.0472 -0.1940
25489W        W45023   3.771   9.627  13.855 -0.1542  0.0588 -0.4536
25490W        W45024   2.449   8.215   2.195  0.3096 -0.0857  0.1099
25491W        W45025   3.241  10.945   2.026 -0.1274 -0.0054 -0.0875
25492W        W45026   6.386  16.025  14.238  0.0450  0.0944  0.0753
25493W        W45027   8.487   7.091   2.218 -0.2738  0.3749  0.1744
25494W        W45028   6.650  16.390   4.347  0.0825  0.1269  0.0781
25495W        W45029   2.811   8.727   3.828 -0.1191 -0.0543  0.0247
25496W        W45030  13.820   7.882  15.329  0.1167 -0.4151  0.0586
25497W        W45031   5.779   6.926   3.976  0.2417 -0.0975 -0.2891
25498W        W45032  13.293   1.739  11.528  0.0818 -0.0903  0.0595
25499W        W45033  10.812  10.610  13.885  0.3217 -0.2992  0.1508
25500W        W45034  12.409  13.606   1.526  0.1012  0.1736  0.2345
25501W        W45035  12.761  11.500   2.187 -0.0816 -0.3374  0.3251
25502W        W45036  12.834   8.248  13.135 -0.0531  0.1538 -0.0203
25503W        W45037   9.142  10.925   0.894  0.0901 -0.1150 -0.3481
25504W        W45038  12.633   7.007  12.216 -0.1151 -0.1204  0.0468
25505W        W45039   5.266  13.095   3.301  0.1746  0.1265 -0.0656
25506W        W45040   1.276   3.323   2.634 -0.3475 -0.2363 -0.0563
25507W        W45041  15.692   1.130  13.648  0.0601 -0.2845 -0.3058
25508W        W45042  15.151   3.553  12.144  0.0753 -0.2248 -0.2423
25509W        W45043  17.672  15.231  15.601 -0.1923  0.0431 -0.1950
25510W        W45044  11.072  18.181   2.590 -0.0562  0.0643 -0.2573
25511W        W45045  17.935   7.284  11.495  0.0985  0.1746  0.1316
25512W        W45046   4.576  16.156   3.659  0.1485 -0.0480  0.2740
25513W        W45047   6.386  18.373   1.710  0.0282 -0.0827  0.0539
25514W        W45048  16.219   5.801   3.687 -0.1975 -0.2018  0.0448
25515W        W45049  14.056  14.929   4.814 -0.3608  0.0568  0.2092
25516W        W45050   4.984   3.330  13.437 -0.0990 -0.2033  0.0389
25517W        W45051  15.661   5.073  14.162 -0.0248 -0.0499  0.4527
25518W        W45052  14.442   9.428  15.032 -0.2473  0.0097 -0.1306
25519W        W45053   3.551  12.003  14.533 -0.1914 -0.4456  0.1415
25520W        W45054   0.332   8.565   3.735 -0.0303 -0.3336 -0.1802
25521W        W45055  10.482   3.205   4.288 -0.0603  0.3776  0.0699
25522W        W45056   1.739  13.102   1.405  0.0311 -0.0192  0.0206
25523W        W45057  16.859   3.100  15.377 -0.1602 -0.0153  0.0192
25524W        W45058  16.812   9.446   0.598 -0.3221 -0.0742 -0.1440
25525W        W45059   5.411  16.035  12.304  0.0519 -0.3073 -0.0632
25526W        W45060  14.863  10.326  12.873  0.0818  0.1903  0.1852
25527W        W45061   7.375  10.919   3.666  0.1443 -0.1875  0.0195
25528W        W45062   4.947   2.059  11.359  0.3598 -0.1045 -0.1182
25529W        W45063   8.462   7.096   2.808  0.0154 -0.0552  0.0089
25530W        W45064  13.934  14.365  13.535  0.0483 -0.1577 -0.0285
25531W        W45065   4.113  11.269  15.558  0.1055 -0.0773 -0.1455
25532W        W45066   0.877   1.585   3.915  0.1970  0.0854 -0.0629
25533W        W45067  15.709   6.537   0.859 -0.1049  0.1971 -0.0881
25534W        W45068   8.848  17.370  15.276 -0.1374 -0.0139 -0.0866
25535W        W45069   0.279   1.046   1.124 -0.0349  0.0101 -0.0416
25536W        W45070   2.512   2.915   4.669  0.2954  0.2037  0.1650
25537W        W45071   0.075   1.098  15.611  0.1007 -0.0259 -0.3231
25538W        W45072  14.592  12.303  13.264 -0.3448  0.1830  0.1464
25539W        W45073  13.276   1.861   3.068  0.0681  0.2452  0.1937
25540W        W45074   7.064  16.391  12.924  0.3607 -0.0844 -0.0136
25541W        W45075   8.623  15.576   1.939  0.2643  0.1897 -0.1734
25542W        W45076   9.574   9.677   3.513 -0.2240 -0.1925 -0.2962
25543W        W45077  11.216   3.373  14.682 -0.0318  0.0321  0.1491
25544W        W45078   3.369   2.418  14.814 -0.2311  0.0060  0.2317
25545W        W45079  14.694   8.610  15.580  0.1399 -0.2545 -0.2590
25546W        W45080   8.744   0.206   2.487 -0.5084  0.0463  0.0867
25547W        W45081   9.477   7.387   4.698  0.1691 -0.1544 -0.1586
25548W        W45082  12.970   8.079   3.508 -0.2391 -0.0536 -0.1185
25549W        W45083   9.531   4.956   4.207  0.0861 -0.0665 -0.0013
25550W        W45084   6.036  15.503   3.235 -0.1405  0.2088 -0.2129
25551W        W45085   8.678   8.942   0.597  0.2598  0.2073  0.1320
25552W        W45086  16.867   1.861   0.296  0.2739 -0.0139  0.0267
25553W        W45087  12.782   8.471  14.157  0.0330 -0.0511 -0.0968
25554W        W45088  13.191   5.285   4.033  0.1616  0.2314 -0.1688
25555W        W45089   0.663   8.554  10.749 -0.1200 -0.0220  0.2848
25556W        W45090   9.133   8.613   2.500  0.0525 -0.3345 -0.0500
25557W        W45091   1.245   8.671  12.050 -0.0083  0.4799  0.1327
25558W        W45092   0.540  12.369   3.842 -0.0513  0.0365 -0.3403
25559W        W45093   9.963   2.331   1.719 -0.2230  0.2496  0.1049
25560W        W45094   7.845   3.853   3.609 -0.2756 -0.1234  0.1285
25561W        W45095   8.229  14.368   4.507  0.2139 -0.2459  0.0437
25562W        W45096   1.444   6.752  15.068 -0.0556 -0.1734 -0.0617
25563W        W45097  14.934   8.321  13.478  0.0414 -0.0291 -0.1409
25564W        W45098   9.550  13.541  11.408  0.0748 -0.1792  0.0924
25565W        W45099  16.210   9.740  10.568 -0.1853  0.0302 -0.0286
25566W        W45100   8.069   9.431   0.321  0.1789  0.2114 -0.1055
25567W        W45101   9.449  11.648  13.783  0.2434  0.2901 -0.0154
25568W        W45102   5.235   0.388   3.359 -0.4843 -0.0870  0.1704
25569W        W45103  16.895  12.869   2.859  0.4123  0.2467  0.1326
25570W        W45104   3.096   3.594   0.165 -0.0630  0.0164  0.0535
25571W        W45105  12.834   2.451  13.950 -0.0652 -0.0614  0.0981
25572W        W45106  15.339   0.174   4.250 -0.4783  0.0291  0.1136
25573W        W45107   1.488   1.548   0.865 -0.2056 -0.0261 -0.1958
25574W        W45108  13.320  17.614  13.098  0.2800  0.1218 -0.1396
25575W        W45109  11.867  15.138  13.780 -0.1457  0.2521  0.1021
25576W        W45110  16.385   7.856   0.131  0.3656  0.2590 -0.0842
25577W        W45111  11.617   9.300  13.323 -0.2200 -0.1632 -0.1851
25578W        W45112  15.688  17.424   1.991 -0.0430  0.2191 -0.3274
25579W        W45113   8.599   4.083   1.362 -0.1712  0.0384 -0.0180
25580W        W45114   8.505   7.289  15.647  0.0621 -0.0080  0.1591
25581W        W45115   6.217  11.636  13.201 -0.0835  0.0474 -0.2065
25582W        W45116   7.618  14.321   2.738 -0.0269  0.1921 -0.1209
25583W        W45117  12.575  16.942  14.327 -0.1218 -0.1964  0.0405
25584W        W45118   9.651  13.644  12.508  0.0379 -0.2512 -0.0739
25585W        W45119   9.615   7.423  12.670 -0.1547  0.0361  0.0394
25586W        W45120   0.886   1.337  11.608 -0.3374 -0.2846  0.0964
25587W        W45121   0.478  11.471  14.556  0.1495 -0.1698  0.1105
25588W        W45122   8.715   1.552  12.555 -0.0241  0.1225 -0.1526
25589W        W45123   6.024   6.463  15.298 -0.0733  0.2307 -0.1167
25590W        W45124  11.720   5.222   0.446 -0.1333  0.2851 -0.2069
25591W        W45125  18.316  14.603   0.664 -0.1040 -0.2135  0.2880
25592W        W45126   0.032   1.461  12.808  0.0368 -0.0746  0.0967
25593W        W45127   7.044  17.948  12.143 -0.0329  0.2139  0.2637
25594W        W45128   9.801  14.947   1.537 -0.0576 -0.0807 -0.0974
25595W        W45129  15.968  13.187  15.679 -0.0366  0.0972 -0.0554
25596W        W45130   9.715   5.863   2.323 -0.2072  0.0957  0.2702
25597W        W45131   5.708  11.229   0.710  0.0386  0.1037  0.0336
25598W        W45132  17.527   4.657  14.035  0.2685  0.0214 -0.0149
25599W        W45133   5.368  12.262  13.321 -0.1949  0.3497 -0.2027
25600W        W45134   1.924  13.170  12.597 -0.0245  0.0113 -0.2392
25601W        W45135   2.436   4.251  10.384 -0.0327  0.0447 -0.0561
25602W        W45136  14.498  16.291  15.005 -0.0042  0.0851 -0.0593
25603W        W45137   6.007  15.644  13.165 -0.2684  0.3864  0.1480
25604W        W45138  10.057   0.627   6.054  0.1076  0.0204 -0.0807
25605W        W45139   1.991  12.992  11.081  0.2758 -0.1714 -0.0698
25606W        W45140  16.196   9.684   2.256  0.1066 -0.1724 -0.0568
25607W        W45141  13.477  13.992  14.200  0.0017 -0.0921 -0.0272
25608W        W45142  11.762   3.304  15.538  0.1184 -0.0634 -0.1667
25609W        W45143   6.148  16.291   0.567 -0.0359 -0.1761 -0.1405
25610W        W45144   5.550  15.759   2.213  0.1154 -0.0233  0.1357
25611W        W45145  14.401   5.016   2.871  0.1807  0.2189 -0.1813
25612W        W45146  12.674   3.282   2.800 -0.2374  0.1367  0.5575
25613W        W45147  13.846  11.514  15.444 -0.0938  0.2073  0.0508
25614W        W45148   7.034  16.525   4.084  0.0275  0.1181 -0.1275
25615W        W45149  10.282   8.167   2.650  0.1611  0.0162  0.1176
25616W        W45150  12.082  17.333   3.359 -0.0717 -0.1497  0.0060
25617W        W45151   1.635   6.246   1.490  0.0844  0.1238 -0.1437
25618W        W45152   4.170  14.140  12.993 -0.2312 -0.2441  0.0008
25619W        W45153   6.021   2.085  12.178 -0.0539  0.1858 -0.0294
25620W        W45154   6.661  14.473  14.493  0.1438 -0.1503 -0.0314
25621W        W45155  15.967   2.819  13.603 -0.0731 -0.2374  0.2056
25622W        W45156   7.318   9.443   1.453  0.0160  0.1177 -0.0251
25623W        W45157   8.090  17.029   1.504  0.3010 -0.0755 -0.2249
25624W        W45158   2.624  10.530  14.659  0.2717 -0.0279  0.0260
25625W        W45159  13.407  12.898   3.694  0.0372 -0.0530 -0.0517
25626W        W45160  14.261   2.360   3.788 -0.1002 -0.1473  0.2541
25627W        W45161   7.343  16.727   1.426 -0.0241 -0.2201 -0.0655
25628W        W45162   2.623   4.040   1.200 -0.1311  0.0096  0.0936
25629W        W45163   6.854   4.526  15.193 -0.2130  0.0662 -0.1388
25630W        W45164  18.204   1.170  13.185  0.1055  0.5381  0.2401
25631W        W45165   7.636   5.243  15.709  0.1135  0.2372 -0.3637
25632W        W45166  11.881  16.142  14.913 -0.0161 -0.3972 -0.2453
25633W        W45167  10.176   2.708  13.701  0.2009 -0.0051 -0.1059
25634W        W45168  15.887   1.954  13.106  0.2129  0.2304  0.0420
25635W        W45169   8.419   5.169  12.352  0.2052 -0.0957 -0.0407
25636W        W45170   1.824   5.892  15.140  0.1624 -0.1194 -0.2170
25637W        W45171   1.532  17.136   1.514  0.0367 -0.1065  0.0648
25638W        W45172  11.781  16.512  11.840  0.0419  0.0160 -0.0251
25639W        W45173   8.176   3.673   2.397 -0.0439  0.3579  0.0714
25640W        W45174  12.300   7.536  14.050 -0.1032  0.0330  0.3187
25641W        W45175  17.807  15.547   1.240 -0.0920 -0.0598 -0.0890
25642W        W45176  16.078   7.288  12.985 -0.0013  0.2682 -0.1296
25643W        W45177   0.514   7.047   1.592 -0.4124 -0.1964 -0.1367
25644W        W45178  17.460  11.321  12.930  0.1221  0.0048  0.0162
25645W        W45179   5.816   0.437  14.677  0.0271 -0.2311 -0.1497
25646W        W45180   9.305   3.811  14.623  0.0121  0.0866 -0.0419
25647W        W45181   1.012  15.875  13.200  0.0984  0.0392 -0.1606
25648W        W45182  15.659  16.646   3.473  0.0601  0.0954 -0.1924
25649W        W45183   3.203   5.305  11.439  0.0486  0.1408  0.1415
25650W        W45184   8.217  11.239   2.496  0.0089 -0.4880  0.1201
25651W        W45185  16.680   6.183   3.683  0.0348  0.0029  0.1293
25652W        W45186   6.042   8.684  12.150  0.1373  0.1549 -0.2673
25653W        W45187   4.729  15.530   0.579 -0.1199 -0.3723  0.1780
25654W        W45188   5.194   7.904   4.694  0.1166 -0.2267  0.1575
25655W        W45189   6.111  13.245   3.925 -0.4248  0.0355  0.2316
25656W        W45190  13.531   9.916   3.897  0.4035 -0.1296 -0.1107
25657W        W45191  14.569   7.913   3.032  0.1995  0.1094 -0.0701
25658W        W45192   7.519  16.276  15.607  0.0701  0.0096 -0.3927
25659W        W45193   9.592  16.452   3.778 -0.0467  0.0760  0.0041
25660W        W45194  13.695   9.769  12.298  0.1308 -0.0256  0.3300
25661W        W45195   3.953   4.528  14.308  0.0627 -0.1618  0.0709
25662W        W45196  15.040   8.828  12.137  0.1091  0.0344  0.0003
25663W        W45197   0.829   7.939   2.254  0.2087 -0.0407 -0.2628
25664W        W45198  14.636  14.353   1.071 -0.0805  0.0864 -0.1567
25665W        W45199  12.078  16.989   1.244 -0.1131  0.2220  0.0466
25666W        W45200   7.175   0.045   0.237 -0.2072  0.0613 -0.2530
25667W        W45201   7.360   1.972  12.987  0.1826  0.2002  0.0998
25668W        W45202  14.958  14.688   1.076  0.0717  0.0678 -0.1891
25669W        W45203  10.348  13.223   2.625  0.1911  0.2588  0.1217
25670W        W45204   4.630   6.658  15.621 -0.1863  0.2913 -0.0585
25671W        W45205   2.603  14.277  15.061 -0.0124 -0.2661  0.0336
25672W        W45206   8.228  16.410   3.805  0.2443  0.1918  0.1649
25673W        W45207   3.561  12.911   2.762  0.1827  0.0099 -0.0978
25674W        W45208   1.074   4.653  11.761  0.1556 -0.1044  0.0913
25675W        W45209   9.491   1.814   4.762 -0.2686 -0.1402 -0.3298
25676W        W45210   5.359  15.531  13.527 -0.1413 -0.0829  0.2682
25677W        W45211  11.030  13.091   2.773  0.0021  0.2991 -0.2143
25678W        W45212   4.776  14.422   2.506  0.2287  0.1078 -0.0041
25679W        W45213   2.769   6.611  11.286 -0.0549  0.0624 -0.0121
25680W        W45214   8.600   1.596   3.349 -0.1988  0.0162 -0.3112
25681W        W45215   3.181  12.371   1.318 -0.0249  0.3349  0.1585
25682W        W45216   8.244   4.764   3.854  0.0152 -0.0085 -0.0762
25683W        W45217  14.907  17.527  14.436 -0.1519  0.2067  0.1668
25684W        W45218   9.019  16.435   2.467  0.0823  0.0873 -0.3181
25685W        W45219   1.630   8.123   1.710  0.0545 -0.1358  0.0887
25686W        W45220   9.657   6.504  11.641 -0.2153  0.0262  0.2080
25687W        W45221   6.779   2.001   1.916 -0.1765  0.0733  0.0679
25688W        W45222   4.095  14.949  14.479  0.3480 -0.2011  0.1374
25689W        W45223  12.633  16.805   2.594  0.1643 -0.2778  0.0708
25690W        W45224  18.071  13.154   3.352 -0.0439  0.0753  0.1090
25691W        W45225   7.697   8.532  14.822  0.1692  0.0926 -0.3176
25692W        W45226   9.954   8.540  12.132 -0.3236  0.1792 -0.1685
25693W        W45227   8.728  12.886  14.615  0.1431 -0.0168 -0.3473
25694W        W45228   2.480  11.109   4.235  0.1600 -0.0030 -0.2101
25695W        W45229   6.816   5.033   4.489  0.1100  0.1044  0.0865
25696W        W45230  10.114  13.763  11.645 -0.2444 -0.0168 -0.2528
25697W        W45231  12.063  13.960  10.670 -0.1485  0.0129 -0.0613
25698W        W45232  14.563   5.298   3.827 -0.1583  0.3015 -0.1000
25699W        W45233   2.668   5.268  11.524 -0.4646 -0.0963 -0.1094
25700W        W45234  11.185   8.316   1.658  0.0306 -0.0778 -0.2618
25701W        W45235  14.443   7.213   2.399 -0.0742 -0.0897  0.2563
25702W        W45236  17.037   8.161   1.836 -0.1254 -0.3888  0.1668
25703W        W45237  17.787  11.766   1.182 -0.0056 -0.1308  0.4092
25704W        W45238   0.681  11.900   0.478 -0.0636  0.4052 -0.1582
25705W        W45239   4.828  17.098   0.369  0.1870  0.2888  0.2658
25706W        W45240  11.731   6.177  14.614  0.0587 -0.3433 -0.0879
25707W        W45241   5.400  11.225  15.660  0.1409 -0.3673  0.2187
25708W        W45242  16.960  10.013  12.013  0.3180  0.1825 -0.0957
25709W        W45243   5.477   5.627   3.884  0.0225 -0.1100  0.0186
25710W        W45244  10.718   1.072  13.942 -0.0772  0.0474  0.4836
25711W        W45245   9.407   3.266   0.762  0.2309 -0.1975  0.1223
25712W        W45246  15.512   6.085  12.414 -0.0853 -0.3203  0.0075
25713W        W45247  17.722  17.782   2.310  0.0592 -0.0076 -0.0544
25714W        W45248   3.860   0.248  13.067 -0.0098  0.2479  0.1540
25715W        W45249  17.233  16.552   0.264 -0.1669 -0.0191 -0.2998
25716W        W45250  16.452   7.641   1.330  0.1453  0.0172 -0.0490
25717W        W45251   5.919   3.934   2.482  0.2484 -0.1920  0.1564
25718W        W45252  11.689  11.967   3.450 -0.0495 -0.2704  0.0400
25719W        W45253  12.406  16.470   2.307  0.0314  0.3015  0.3515
25720W        W45254  16.842  11.892   4.294  0.0063  0.1662 -0.1737
25721W        W45255   2.650   7.267   2.331  0.0740 -0.1551 -0.2821
25722W        W45256   4.026   5.617   0.409 -0.2368  0.1926 -0.0042
25723W        W45257  17.217  10.612   0.375  0.0135 -0.0446 -0.1647
25724W        W45258   4.644  16.765   1.735  0.0447  0.2758 -0.0057
25725W        W45259   0.185   6.271  12.120 -0.0365 -0.0447 -0.4113
25726W        W45260   0.772  12.508   0.523 -0.1472  0.0438 -0.0108
25727W        W45261   7.243  15.637  12.004 -0.1120 -0.0865 -0.0623
25728W        W45262   6.879  18.165   3.929  0.0870  0.1372  0.0057
25729W        W45263   6.779   8.653  15.819 -0.0693 -0.0037 -0.2388
25730W        W45264   8.554   1.516  11.966 -0.2056  0.0151  0.0021
25731W        W45265   1.196   0.041   4.354  0.1141  0.0315  0.1234
25732W        W45266  15.187   3.435   1.465 -0.1937 -0.0163  0.1596
25733W        W45267   5.301   2.302  11.945  0.0208 -0.1052  0.0290
25734W        W45268   1.777  17.351  11.494  0.0006  0.0490 -0.1738
25735W        W45269  18.217  18.207   1.094  0.1876 -0.0182  0.0019
25736W        W45270  15.854  12.367  10.665  0.0957  0.1698  0.1296
25737W        W45271  12.220  10.998  14.131 -0.1089  0.1193 -0.0543
25738W        W45272  14.147   2.015  11.393  0.1643  0.2350  0.0645
25739W        W45273   3.950   6.582   3.605  0.1969  0.0835 -0.0250
25740W        W45274   8.503  17.687   2.651  0.2158  0.5623 -0.0624
25741W        W45275  14.720  15.938   1.354 -0.2211  0.0089 -0.1416
25742W        W45276  15.792   7.998  15.655  0.0541  0.4336 -0.2077
25743W        W45277  16.943  10.528  13.659  0.2328  0.2894  0.2891
25744W        W45278   0.862  10.165  13.436 -0.0346 -0.1923 -0.0558
25745W        W45279  12.762   4.937   2.261  0.0101 -0.2074  0.0931
25746W        W45280   2.005  12.788  15.042  0.0276 -0.3262 -0.2601
25747W        W45281   4.284  14.525   3.028 -0.0323  0.1210 -0.1270
25748W        W45282  15.017   5.257  15.403  0.2185 -0.1478  0.0094
25749W        W45283   9.325  16.485   0.078 -0.0364  0.1566  0.0224
25750W        W45284  17.870   4.289   2.101  0.2010  0.0466 -0.3268
25751W        W45285   5.190   0.966  15.308  0.1202 -0.0354 -0.0256
25752W        W45286  17.671  14.341   3.369 -0.0867 -0.1255 -0.3650
25753W        W45287   0.795  16.764  13.420 -0.0758 -0.2400  0.0805
25754W        W45288  15.964   5.039  13.732  0.1225  0.1036  0.1108
25755W        W45289   8.235  15.884   3.760 -0.0983 -0.0211 -0.3730
25756W        W45290   0.954  11.838   4.357  0.0308  0.1792 -0.1780
25757W        W45291  15.158  12.572  10.541  0.1287  0.1386  0.1784
25758W        W45292   8.093   3.430  11.553  0.0401  0.1415  0.1835
25759W        W45293  14.913   6.741  11.751  0.2417  0.0185 -0.1634
25760W        W45294   6.943   9.801   1.679 -0.0597 -0.1337  0.2028
25761W        W45295  12.231   5.085  13.637  0.2805 -0.1613 -0.2658
25762W        W45296  12.772  13.145  13.809 -0.0838  0.1308 -0.2199
25763W        W45297  10.865  17.645   3.641 -0.1468  0.1127 -0.2274
25764W        W45298  14.376  15.245  15.286  0.3286 -0.0030  0.0135
25765W        W45299   3.368   0.809   0.389 -0.1033  0.1898  0.0666
25766W        W45300  18.178   1.596   3.375  0.2177 -0.1377  0.4007
25767W        W45301   1.187  11.953  12.984 -0.0162 -0.1935  0.1445
25768W        W45302   7.118   5.831   2.518 -0.1747  0.1408  0.1310
25769W        W45303   7.027  11.423  13.003  0.2629  0.1691 -0.0263
25770W        W45304   2.609   7.503   1.856  0.0278  0.1159 -0.1352
25771W        W45305  18.004  16.757  12.036  0.0077 -0.0310  0.2258
25772W        W45306  15.374   8.534  11.859  0.2246  0.1369 -0.2739
25773W        W45307  16.193  13.960   0.961 -0.0385  0.0284 -0.2705
25774W        W45308  16.190   1.596  13.002  0.2343 -0.0724  0.0660
25775W        W45309   5.919  11.734  11.761  0.0770  0.3441  0.1568
25776W        W45310  10.919   7.777   0.088 -0.1107 -0.2025 -0.2419
25777W        W45311   6.476   7.490  12.884  0.0682 -0.2871  0.1348
25778W        W45312   7.788   1.041   1.574 -0.0127  0.0519  0.0373
25779W        W45313   6.366  14.099   2.103  0.2449 -0.2979 -0.1692
25780W        W45314   8.892   7.902   2.691 -0.1063  0.0200 -0.3502
25781W        W45315  16.333   2.721  12.134  0.2166  0.0497 -0.0963
25782W        W45316  17.833  15.574   2.792  0.1189  0.2286  0.1320
25783W        W45317   4.490   4.844   4.525 -0.1163  0.3502  0.1817
25784W        W45318  10.004   3.546  12.174 -0.0685  0.0254 -0.1083
25785W        W45319  12.576  14.708  12.945  0.2314  0.2692 -0.4402
25786W        W45320   5.022   7.917   3.118 -0.2673  0.1506 -0.3521
25787W        W45321   7.559  10.322   1.174  0.1399 -0.3712  0.2445
25788W        W45322   6.200  14.193   4.120  0.0036  0.0809 -0.0171
25789W        W45323   5.096   7.861  14.891 -0.1453  0.2744  0.0060
25790W        W45324   7.328   1.228   1.844  0.3359  0.1671  0.2292
25791W        W45325  14.558   1.602   3.137 -0.0967 -0.2039  0.3374
25792W        W45326   8.493  10.548  13.208 -0.0231  0.2557  0.0747
25793W        W45327  17.876   4.751   3.093  0.1852  0.0057 -0.0588
25794W        W45328   2.043   0.786  15.344  0.0658  0.2032 -0.1952
25795W        W45329  12.927  18.341   1.158  0.3310  0.0437  0.0287
25796W        W45330  10.093  12.634  15.573 -0.2929 -0.1880 -0.1299
25797W        W45331  12.401  16.966   2.989  0.0536  0.3174  0.2022
25798W        W45332   9.810   5.808  15.186 -0.0853  0.1199 -0.1447
25799W        W45333  15.490   8.895  14.273 -0.1389 -0.0213 -0.1327
25800W        W45334  13.861   2.216   2.000 -0.0322 -0.2992 -0.1530
25801W        W45335   2.115  12.310  11.398 -0.1394  0.1124  0.0932
25802W        W45336  10.209   6.291   2.599 -0.1060 -0.1688  0.0902
25803W        W45337  13.533  12.396  12.063  0.1348 -0.0194 -0.1954
25804W        W45338  15.210   9.355  10.691 -0.3558  0.0894  0.3352
25805W        W45339   3.766  10.159   1.875 -0.0546 -0.0612  0.0988
25806W        W45340  11.331   5.092  14.433  0.1072 -0.2088 -0.0137
25807W        W45341  14.351   8.538   3.658 -0.0727 -0.2658  0.0358
25808W        W45342  16.733  11.928   3.717 -0.0463 -0.0311  0.1179
25809W        W45343  10.268  17.034  14.634 -0.0656 -0.1478 -0.0492
25810W        W45344  10.635   7.439   1.928  0.1356 -0.1992  0.1404
25811W        W45345   4.274  14.169   1.231  0.1121  0.0395  0.1097
25812W        W45346   5.076  15.698   0.939  0.2748 -0.0016 -0.0837
25813W        W45347   0.653  17.915  15.805 -0.1180 -0.0790 -0.1922
25814W        W45348   0.019   9.974   1.600  0.1950 -0.1901 -0.0264
25815W        W45349  14.382  12.978   3.746  0.0816 -0.0731  0.3392
25816W        W45350  10.006   0.384   0.924  0.1591 -0.1498  0.3205
25817W        W45351  16.265   9.903  13.773  0.2560  0.1980  0.2107
25818W        W45352   4.443   8.629  12.570  0.2553  0.1013  0.1541
25819W        W45353  15.424  13.217   1.969 -0.3816 -0.1702  0.1540
25820W        W45354  13.096   6.553  15.263  0.1129  0.3270 -0.1923
25821W        W45355   0.873   2.664   3.366 -0.0021  0.0499 -0.0782
25822W        W45356   1.332  15.543   4.810 -0.0760 -0.1939  0.1826
25823W        W45357  12.214   8.311  12.370 -0.0729 -0.1632  0.1122
25824W        W45358   6.751   2.517   2.143 -0.0559  0.0298 -0.1061
25825W        W45359  16.311   9.004  12.559 -0.0442  0.2511 -0.2081
25826W        W45360   1.337   7.242   0.286 -0.0968 -0.2756  0.1510
25827W        W45361  18.017   9.040   1.348  0.1121  0.1705 -0.2209
25828W        W45362   3.455   0.112   3.214 -0.1698  0.2375 -0.1640
25829W        W45363   3.923   2.484  14.827 -0.3285  0.1286  0.1485
25830W        W45364  12.177  14.737  13.685  0.1343  0.0159 -0.1236
25831W        W45365  17.854   6.147   0.138 -0.0469  0.2003  0.3831
25832W        W45366   5.352  12.705   2.933  0.0406  0.1975  0.1582
25833W        W45367  11.646  15.642  10.444  0.0253  0.0908 -0.1243
25834W        W45368   2.474  12.273   3.747  0.3860 -0.0277  0.0417
25835W        W45369  17.532   9.541  15.545 -0.0343 -0.1022  0.0905
25836W        W45370   1.498  16.803  11.445 -0.4711 -0.1564 -0.0461
25837W        W45371  16.889  16.044   1.336  0.0474 -0.1602 -0.1914
25838W        W45372  17.196   6.799  15.113 -0.0615 -0.0053  0.0610
25839W        W45373  15.247   9.267  11.222  0.0753  0.0645 -0.0276
25840W        W45374   5.467  14.346  12.674  0.1127  0.0639 -0.2673
25841W        W45375  10.415   9.689  14.618  0.1439  0.0583 -0.1983
25842W        W45376   1.676  12.613  11.337 -0.0797  0.0158 -0.0802
25843W        W45377   0.972   5.812  12.597  0.2660 -0.0927  0.1225
25844W        W45378   5.183  15.591  12.613 -0.3618  0.2976  0.0885
25845W        W45379  14.022   2.232  13.123 -0.0194 -0.1698 -0.1464
25846W        W45380   8.648   5.141   4.540 -0.3100 -0.1495 -0.3031
25847W        W45381  13.852   3.790   1.636  0.3967 -0.1577 -0.2689
25848W        W45382   1.801  13.854   5.661  0.3005  0.0534 -0.2490
25849W        W45383  15.378   4.052  14.972 -0.2458 -0.0669 -0.2930
25850W        W45384   6.854   9.154  13.437 -0.2444 -0.2866  0.2995
25851W        W45385   3.070   5.681   2.082  0.1753 -0.1816  0.2059
25852W        W45386  14.984   0.699   1.360  0.2609  0.1489 -0.3005
25853W        W45387  13.634  11.687  12.813 -0.2223 -0.4152  0.2737
25854W        W45388  15.986   0.996   3.605 -0.2097 -0.1642 -0.2012
25855W        W45389  13.587  17.644  13.640  0.0061  0.0845 -0.1857
25856W        W45390   9.312  13.020  12.535 -0.0738  0.1331  0.0940
25857W        W45391   5.641   3.513  15.106 -0.0246 -0.0760  0.1889
25858W        W45392   4.631  14.616  12.711  0.0085  0.0429  0.2316
25859W        W45393   9.711   7.036   1.117 -0.1982 -0.2750  0.1372
25860W        W45394   6.923  11.163   1.066  0.1113 -0.1592 -0.0314
25861W        W45395   2.318  10.050  11.342  0.1614 -0.0739 -0.3005
25862W        W45396  18.297   3.650  14.433  0.1369  0.1376 -0.1594
25863W        W45397   4.012  15.019  13.346  0.0177 -0.4023  0.0898
25864W        W45398  16.090   2.760  13.076 -0.0386  0.1241  0.3991
25865W        W45399   9.987   1.595   2.303  0.1449  0.2064 -0.2071
25866W        W45400  10.943   3.071   1.045 -0.1846  0.0209  0.1211
25867W        W45401   5.155  13.226  12.619 -0.1605  0.2111 -0.1709
25868W        W45402  10.206   8.934  11.945  0.2635 -0.1487  0.0210
25869W        W45403   7.920   5.459   2.627  0.1401 -0.0422 -0.6061
25870W        W45404  17.316   4.066   3.252 -0.0637  0.2125  0.0366
25871W        W45405   0.488   1.362  13.047 -0.3640 -0.0644  0.1000
25872W        W45406   7.141   3.435  11.190 -0.1926 -0.1349  0.0213
25873W        W45407   4.411   6.312  15.313  0.0955 -0.0231 -0.2460
25874W        W45408   0.249   6.856  13.307  0.3076 -0.0472 -0.0813
25875W        W45409   6.341   1.157  14.719  0.0295  0.2292  0.0030
25876W        W45410  15.118   7.713  11.356  0.1537 -0.0382 -0.1614
25877W        W45411  12.981   1.490  14.730  0.1001  0.5648  0.0960
25878W        W45412  16.547   8.528  15.143  0.0583 -0.1700  0.2138
25879W        W45413   8.226   0.866  13.378 -0.1411  0.2058 -0.2587
25880W        W45414  11.026   8.685   2.713 -0.1119  0.3703 -0.1701
25881W        W45415  13.504   7.876   5.449  0.0233  0.1533 -0.0904
25882W        W45416  13.073   0.883  13.119 -0.0817  0.1045 -0.0954
25883W        W45417   0.188  15.296   4.751 -0.3283  0.1181  0.1464
25884W        W45418   5.868   1.210   3.702 -0.1493 -0.1063  0.0587
25885W        W45419  13.127  18.172   1.547 -0.1800 -0.2118  0.0637
25886W        W45420   4.022  16.173   3.853  0.0117 -0.0096  0.0425
25887W        W45421  16.126  18.386   1.899 -0.0377 -0.1861  0.2200
25888W        W45422   6.195   7.064  11.433 -0.2182  0.0045  0.0220
25889W        W45423   4.803  15.834  14.669  0.1041 -0.1646 -0.1381
25890W        W45424   2.988  14.964  13.052  0.2910  0.2323 -0.4142
25891W        W45425  10.425   8.650  13.723 -0.1363  0.0486  0.1998
25892W        W45426   4.056  11.036   1.747  0.0941  0.0772 -0.0789
25893W        W45427  10.449   1.251   0.030 -0.0089 -0.0364 -0.0950
25894W        W45428  14.644  12.572  14.443 -0.2696  0.1738 -0.0622
25895W        W45429  14.123  12.535  15.612  0.2008  0.2098 -0.0467
25896W        W45430  16.476   8.120  12.801  0.4083 -0.0668  0.0712
25897W        W45431  17.340  18.089   2.404  0.1269  0.3568  0.0166
25898W        W45432  11.357   3.539  12.160 -0.1486  0.1863 -0.0936
25899W        W45433   3.108   8.043  14.723  0.2622 -0.3200  0.0902
25900W        W45434  15.527   4.815   2.882  0.1243  0.1478  0.1503
25901W        W45435  15.103   2.976  12.510  0.0999 -0.1307 -0.1103
25902W        W45436  10.974  12.283   0.391 -0.1755 -0.1338 -0.0210
25903W        W45437   1.937  10.833  13.236  0.3942 -0.0498 -0.0933
25904W        W45438   2.344  14.058   4.228 -0.1929 -0.1108 -0.0194
25905W        W45439   9.495  18.347  15.226  0.2085 -0.1710  0.1335
25906W        W45440  17.340  12.058  12.316  0.0834 -0.0274 -0.0268
25907W        W45441  11.704  17.511  15.286 -0.2597 -0.0499  0.2088
25908W        W45442  14.916   8.897   1.042 -0.0760  0.1358  0.3010
25909W        W45443  10.474   8.431  12.074 -0.2279  0.2159  0.0047
25910W        W45444   2.175  12.531   4.601 -0.0424 -0.0404 -0.4275
25911W        W45445  11.352   8.238   4.536 -0.2341  0.1060 -0.1319
25912W        W45446   9.862   5.990   2.780  0.0354  0.0441  0.1232
25913W        W45447   1.717   8.814  14.200 -0.2357  0.0515  0.1493
25914W        W45448  14.092  10.374  11.809 -0.1141  0.2376  0.1277
25915W        W45449  11.962  10.386  14.869 -0.0376 -0.2391  0.1085
25916W        W45450  11.960  16.332  14.314  0.0275 -0.2394  0.1409
25917W        W45451   5.529   6.766   2.505  0.1960  0.0152 -0.0446
25918W        W45452   4.027   9.719   1.818 -0.0130  0.0771  0.4251
25919W        W45453   1.571   2.978   2.881 -0.0642  0.3058  0.1829
25920W        W45454  12.683   7.504  10.343 -0.1122  0.1218  0.1182
25921W        W45455  17.469  18.085   1.472 -0.1072 -0.2107 -0.0121
25922W        W45456  10.628   8.971  13.389 -0.0767  0.0749 -0.0045
25923W        W45457  14.395   4.803   1.612  0.1647 -0.0434  0.1528
25924W        W45458  13.696  13.925   4.061  0.0575 -0.1267 -0.0043
25925W        W45459   3.299  12.180   0.831 -0.2668 -0.0151  0.1931
25926W        W45460  12.976  17.585   0.349  0.1732  0.1727 -0.2173
25927W        W45461  16.337   1.108  12.851  0.1318 -0.1045  0.2031
25928W        W45462   7.045   0.130  14.233  0.0774  0.0951  0.0187
25929W        W45463  10.199   1.595  13.275  0.1658 -0.0066  0.1799
25930W        W45464   9.849  14.225   2.833 -0.1708  0.0613  0.0613
25931W        W45465   5.664   4.767   2.536 -0.1699 -0.2997 -0.0469
25932W        W45466  10.810  16.978  14.041  0.1432 -0.0637 -0.1850
25933W        W45467   2.087   8.266   2.608  0.1024 -0.2961  0.1924
25934W        W45468   6.455   3.963  11.828  0.1366  0.2118  0.3254
25935W        W45469   0.468  14.762  11.958  0.1793  0.1220 -0.1552
25936W        W45470   1.370  16.357   3.140  0.1726 -0.1587  0.2025
25937W        W45471   8.644   8.419   1.237 -0.2756  0.0730  0.0201
25938W        W45472   2.972   2.549   2.206 -0.1685  0.0190  0.4374
25939W        W45473   3.789  14.250   4.372 -0.1516  0.0764  0.0091
25940W        W45474  15.028  17.055   1.379  0.1746  0.0340  0.2086
25941W        W45475   8.226   6.134  13.608 -0.1333 -0.1104  0.0943
25942W        W45476   0.729  15.938   3.969 -0.3051 -0.1162  0.0688
25943W        W45477   4.674  14.617   1.516  0.1018  0.0866 -0.1348
25944W        W45478  12.464   0.949  13.922 -0.0913 -0.1810 -0.2982
25945W        W45479   9.906  14.162   4.561 -0.0975 -0.0160 -0.2348
25946W        W45480   3.669   1.121   3.422  0.2119 -0.1986 -0.2304
25947W        W45481   9.659   1.173  12.519 -0.1897  0.0156  0.1089
25948W        W45482   7.407   9.128  11.784 -0.1941  0.0026  0.1831
25949W        W45483  12.826   9.318   5.010  0.0197 -0.1247 -0.0298
25950W        W45484  14.387   4.046  12.709  0.1134  0.0124 -0.2215
25951W        W45485   8.693   7.640  11.886 -0.0338  0.0416 -0.0492
25952W        W45486   0.545  16.224   0.366 -0.0908  0.0618 -0.0116
25953W        W45487   1.707   9.991  11.258 -0.0039 -0.1728 -0.1657
25954W        W45488   6.524  16.433   2.455  0.2057  0.1686  0.0389
25955W        W45489  11.425  10.469   2.118 -0.1122  0.2755  0.0093
25956W        W45490   9.868  12.763   4.233 -0.0205 -0.0278  0.0478
25957W        W45491  12.795   2.325   4.594  0.2063  0.0729  0.1734
25958W        W45492  16.640   4.828  14.036 -0.0510  0.0945  0.2240
25959W        W45493  14.614   4.728  11.266  0.0177  0.2382  0.2892
25960W        W45494   2.856  18.184  14.904  0.3281 -0.4692  0.1419
25961W        W45495  15.220   1.630   3.027 -0.2255 -0.0770  0.1651
25962W        W45496  12.712  12.325  12.639 -0.0766 -0.1069  0.1470
25963W        W45497  12.158  14.746   5.343  0.4633  0.2147 -0.0243
25964W        W45498  17.785   4.236   3.921  0.2088  0.1842  0.0766
25965W        W45499   1.527   8.186  15.349  0.0558 -0.3186 -0.0342
25966W        W45500   7.511   9.775   4.369 -0.0908  0.3328  0.1393
25967W        W45501  12.223   4.285  13.606  0.3401 -0.1197  0.0788
25968W        W45502   2.943  16.031  14.551 -0.0983  0.0439  0.2905
25969W        W45503   8.719   4.640  11.736  0.2846 -0.1890 -0.0471
25970W        W45504  17.004   5.412  13.120 -0.2555  0.1922 -0.2738
25971W        W45505  16.240  11.965  15.373  0.1786 -0.0719  0.2291
25972W        W45506   7.987   7.235  11.942  0.0004 -0.1674 -0.2996
25973W        W45507  15.864   2.296  14.200 -0.1371  0.2460  0.1366
25974W        W45508   7.897   0.152   2.561 -0.0321 -0.0953 -0.1731
25975W        W45509  12.469  16.176  12.699  0.1463 -0.0642 -0.3344
25976W        W45510   6.415   6.841  13.488  0.1757 -0.0732 -0.0818
25977W        W45511   6.704  11.115   0.108  0.0827 -0.4050 -0.1834
25978W        W45512  14.261   6.246   2.733  0.0130  0.1132 -0.2569
25979W        W45513  12.778   7.759   1.250  0.2805 -0.0474  0.2663
25980W        W45514   6.920   2.271   2.620 -0.1580  0.2526  0.0440
25981W        W45515   8.922  12.275  14.549 -0.2296 -0.0195 -0.4547
25982W        W45516   5.420   6.250   3.943 -0.0777  0.0524  0.1311
25983W        W45517   1.806   3.141  12.700  0.3073 -0.0400 -0.0057
25984W        W45518  13.184   3.509  13.142  0.1817 -0.2034 -0.2375
25985W        W45519   7.173  16.143  12.051 -0.1792  0.0810  0.1382
25986W        W45520   4.089   4.355   3.767 -0.0950 -0.0187 -0.0786
25987W        W45521   0.786  16.959   2.588 -0.0034  0.2265  0.1564
25988W        W45522   3.835  12.602  15.021 -0.1009 -0.0586  0.1095
25989W        W45523   0.231   5.683  12.126  0.0461  0.0705 -0.0723
25990W        W45524  11.147  17.461  14.305 -0.1686 -0.3032  0.0042
25991W        W45525   4.282  13.631  13.299 -0.0989 -0.2703 -0.0832
25992W        W45526   0.472  11.315   3.126 -0.0571 -0.2940 -0.3451
25993W        W45527   5.044  14.164  15.120 -0.2952 -0.0456  0.1076
25994W        W45528  16.874  15.438  13.096  0.0652 -0.1850 -0.1853
25995W        W45529  11.479   8.518   2.828  0.0520  0.0025 -0.2292
25996W        W45530   0.000   6.541  13.702 -0.0017  0.0798 -0.3413
25997W        W45531  13.621  14.247  14.610  0.1440 -0.1588  0.0825
25998W        W45532   6.096  10.741  15.113  0.1302  0.0506 -0.1047
25999W        W45533   4.016  13.634   1.150 -0.0170 -0.2652  0.1265
26000W        W45534  17.581   8.653  15.627  0.1848 -0.1649  0.1430
26001W        W45535   2.965  13.250  15.676  0.1696  0.0632 -0.0106
26002W        W45536   5.634  10.760  14.301 -0.0885  0.0358  0.1974
26003W        W45537  17.181  11.313  13.802 -0.2659 -0.1000 -0.1922
26004W        W45538  13.464   3.411   3.406 -0.2593 -0.2049 -0.0543
26005W        W45539  10.570   4.387   3.092  0.1377  0.1287 -0.1251
26006W        W45540   6.692   5.349  15.712  0.0439  0.1863  0.1635
26007W        W45541   4.947  15.901   1.415 -0.1140  0.0873 -0.0749
26008W        W45542   7.043  18.138  13.371  0.0679  0.1530  0.0197
26009W        W45543  11.153  13.822  15.544  0.2041  0.0013 -0.1668
26010W        W45544   2.521   3.198   0.910  0.1170  0.0519 -0.1257
26011W        W45545   2.816  12.346  14.011 -0.1540  0.1252  0.0884
26012W        W45546   9.962  18.023  13.823  0.2561 -0.0576 -0.2053
26013W        W45547  16.084   4.684  15.486  0.1231 -0.0593  0.1684
26014W        W45548   4.196   0.718  12.285  0.0486 -0.3333  0.0372
26015W        W45549   7.467   3.295   2.853  0.1442  0.1672 -0.6105
26016W        W45550  17.152   0.750  15.389  0.0183 -0.2359  0.1154
26017W        W45551  10.079  14.972   2.996 -0.0668 -0.1160  0.1035
26018W        W45552  16.534  18.177   0.375 -0.1157 -0.0312 -0.0473
26019W        W45553   6.093   1.664   3.559  0.0577 -0.0692 -0.1119
26020W        W45554  12.577   4.059   2.346 -0.2450 -0.1168 -0.2428
26021W        W45555   5.093  15.225   4.178 -0.0568 -0.1429  0.2532
26022W        W45556  17.904   7.490   3.486 -0.0411 -0.1425 -0.0034
26023W        W45557   7.177  15.215   2.377  0.3757  0.2722  0.3759
26024W        W45558  10.425  13.368  11.693 -0.2175 -0.2066 -0.1098
26025W        W45559   5.019   4.930   4.652 -0.0854  0.4291  0.2883
26026W        W45560   9.663   8.178   0.701 -0.0306  0.0800 -0.3487
26027W        W45561  12.667   9.762   0.980 -0.4033  0.1926  0.1394
26028W        W45562  18.051  12.630  12.256  0.3460  0.2234 -0.1043
26029W        W45563   9.613  16.441  15.162  0.1201  0.0850  0.1048
26030W        W45564  10.334  14.781   4.342  0.1047  0.1152 -0.0218
26031W        W45565   2.707   6.207  15.302  0.0560 -0.1317 -0.0811
26032W        W45566  12.697   5.107  13.309 -0.1392 -0.1572  0.2376
26033W        W45567  12.958  18.336   2.990  0.0143 -0.0254  0.3796
26034W        W45568   7.862   0.946   3.414  0.1120  0.0258  0.2590
26035W        W45569   0.387  15.673   0.458  0.1107 -0.1238 -0.0555
26036W        W45570  18.314   5.087   2.573 -0.0520  0.1143 -0.3938
26037W        W45571  12.283  11.958   2.163  0.1245  0.3763 -0.0555
26038W        W45572   7.876  11.858   0.082  0.1002  0.2821  0.2021
26039W        W45573   1.626   3.119  13.994 -0.1769  0.3152  0.2037
26040W        W45574   5.717  14.828  13.608 -0.1291 -0.2706 -0.4273
26041W        W45575   6.292  11.435  15.738  0.0658 -0.1094 -0.1664
26042W        W45576  13.215   7.771  12.333  0.1981 -0.2243  0.2024
26043W        W45577   5.093   5.118  11.199  0.1514  0.1078 -0.1818
26044W        W45578  12.226   2.300  13.873 -0.0141 -0.4655 -0.2446
26045W        W45579   3.133   2.957   1.875  0.0688  0.1031  0.2411
26046W        W45580  11.944  17.494  14.810 -0.1857 -0.1895 -0.0221
26047W        W45581  10.091   9.377   2.117  0.3064  0.1053  0.1360
26048W        W45582   6.982   8.323  14.204 -0.4309 -0.3057  0.0327
26049W        W45583  13.168   2.117  12.411  0.0833  0.0918 -0.1676
26050W        W45584  13.348  15.746  11.805  0.3970 -0.0585  0.0065
26051W        W45585   8.361  11.397   3.691 -0.1027 -0.0456 -0.1974
26052W        W45586   3.193   4.811  12.270 -0.0434 -0.1757  0.0223
26053W        W45587  12.790   2.886  13.635  0.0035 -0.1804 -0.0036
26054W        W45588   0.934  12.898   1.543  0.2018  0.5548  0.0427
26055W        W45589  18.235   5.708  13.464 -0.0849  0.1496 -0.1252
26056W        W45590   8.863  11.101   1.993 -0.0401  0.4920  0.0274
26057W        W45591   9.067  18.008  14.798 -0.0230  0.0357 -0.0652
26058W        W45592  10.473  15.709  12.258  0.0315 -0.1164  0.0154
26059W        W45593   9.185  11.872   3.291  0.4097 -0.1836  0.1643
26060W        W45594   5.726   6.360  14.764  0.0235  0.1300  0.0031
26061W        W45595  15.932   3.545  15.782 -0.1405 -0.0086 -0.2552
26062W        W45596   7.189  17.803   2.352 -0.0146 -0.0985 -0.0700
26063W        W45597   7.172   0.063  10.422 -0.2705 -0.0545 -0.1004
26064W        W45598   5.499   6.631   4.269 -0.2479  0.3349 -0.2111
26065W        W45599   5.857   2.860  12.265  0.0876 -0.0893 -0.1910
26066W        W45600  14.339  10.427  14.276 -0.1112 -0.1242 -0.0188
26067W        W45601   0.607   2.445  15.217 -0.0893  0.0343  0.2395
26068W        W45602   5.810   8.830  11.702  0.4059  0.1916 -0.0262
26069W        W45603  14.444   5.772   1.564  0.0353 -0.0136 -0.0623
26070W        W45604   4.089  15.866  13.393 -0.1582 -0.3016  0.1818
26071W        W45605  17.580  18.103  12.446 -0.2455 -0.3108 -0.2783
26072W        W45606  12.371   6.491  13.128 -0.0609  0.0898 -0.0834
26073W        W45607  13.222   9.260  11.634  0.2249 -0.2882  0.0639
26074W        W45608   2.079   7.050  12.811  0.0339  0.2502 -0.1321
26075W        W45609   9.317  11.596  15.396  0.2273  0.1661 -0.0568
26076W        W45610   1.747  12.279  11.733 -0.1640 -0.0362 -0.1173
26077W        W45611   9.389   6.507   1.044 -0.0992 -0.0352 -0.1478
26078W        W45612  13.766   3.849   3.409 -0.0249 -0.1012 -0.2000
26079W        W45613   9.344  15.771   3.079 -0.1401  0.3436  0.1394
26080W        W45614   1.638  13.605  15.077 -0.1056 -0.4509  0.1483
26081W        W45615   9.873  10.022   4.280  0.0161 -0.1298 -0.0346
26082W        W45616  13.772   7.284  15.156 -0.3271 -0.2755  0.1646
26083W        W45617  16.286   1.649   1.217  0.2624  0.1144  0.3144
26084W        W45618   4.099  10.118   3.031 -0.1280  0.0773  0.1929
26085W        W45619  16.771   0.794  13.162  0.1045  0.2336 -0.2820
26086W        W45620   0.195  13.073  15.431 -0.0100  0.3412  0.1596
26087W        W45621   6.252   1.249  12.589  0.0183  0.1481  0.3699
26088W        W45622  17.629  14.427  13.957 -0.1091  0.1051  0.4012
26089W        W45623   7.800  13.633   3.540  0.2729 -0.1895  0.1591
26090W        W45624   1.681  17.790   2.339  0.3786  0.0538 -0.0664
26091W        W45625   6.276   7.122  14.780  0.0612  0.1923 -0.2317
26092W        W45626   4.231  15.941  14.452 -0.3623 -0.0384  0.2316
26093W        W45627  10.775  15.497  15.220 -0.0494  0.4727  0.1138
26094W        W45628   9.954   9.692  13.170 -0.2447 -0.0994 -0.3838
26095W        W45629  14.545  15.737  13.714  0.0222  0.2314 -0.3098
26096W        W45630  15.752   3.704  14.912 -0.0948  0.0168 -0.2561
26097W        W45631   8.617  16.730  14.131  0.0060 -0.2069 -0.2167
26098W        W45632   4.659  12.064   0.447 -0.0882 -0.1020  0.0203
26099W        W45633   9.178   6.680  12.863  0.2048  0.0646 -0.3543
26100W        W45634  15.780   0.371  14.163  0.2914 -0.1993  0.1208
26101W        W45635   3.879  14.520  11.234 -0.0240 -0.1227 -0.0913
26102W        W45636   9.940  14.248   5.880 -0.1051  0.0622 -0.0236
26103W        W45637   1.763   1.893  15.281 -0.2115 -0.2089  0.0542
26104W        W45638  18.272   4.868   4.509  0.1148 -0.0225 -0.1095
26105W        W45639   2.774  11.973  14.414 -0.2088  0.0624 -0.0644
26106W        W45640  10.607  10.076   3.532 -0.1381 -0.6154 -0.2553
26107W        W45641  12.211   7.498  13.358 -0.0283  0.2367 -0.0207
26108W        W45642   9.388   2.007   4.162  0.2216 -0.1073  0.0256
26109W        W45643   6.824   7.982   1.163  0.3066 -0.0682  0.2722
26110W        W45644   5.515   1.361  13.780 -0.0181 -0.1840 -0.1261
26111W        W45645  14.704   1.548  14.278 -0.0599  0.1448  0.1372
26112W        W45646   0.748  15.919  13.612  0.3987 -0.1773 -0.1337
26113W        W45647  11.659  18.060   1.917 -0.0636  0.2015 -0.2424
26114W        W45648   9.122   1.441   3.449  0.0282 -0.2004 -0.0331
26115W        W45649  17.844  10.438   2.951  0.0407  0.0798 -0.6624
26116W        W45650   3.503  10.603  13.493  0.1045  0.1516  0.3396
26117W        W45651  13.193  12.816  11.997  0.0208 -0.3939  0.2354
26118W        W45652  17.481  14.344   4.388 -0.2445 -0.0860 -0.2340
26119W        W45653  13.713   6.663   2.648  0.1761  0.0880  0.0529
26120W        W45654  11.399   0.844   2.778 -0.0220  0.0791 -0.2190
26121W        W45655   6.187  14.816   0.843  0.0205  0.2610  0.1817
26122W        W45656   9.499  16.801   4.557  0.1825 -0.1247 -0.2654
26123W        W45657   4.108   1.086   3.839 -0.0817  0.0667  0.1795
26124W        W45658  16.517   2.780   2.169 -0.1642  0.2535 -0.2165
26125W        W45659  13.541   1.339  13.019 -0.1449 -0.0419  0.0967
26126W        W45660   0.175   1.114   4.198 -0.0202  0.1481 -0.2338
26127W        W45661  10.579  10.046  14.295 -0.4210 -0.2937 -0.0957
26128W        W45662  13.499   5.572   3.853  0.0661 -0.2342 -0.0213
26129W        W45663  17.853   8.485  13.916 -0.2894  0.3287 -0.2173
26130W        W45664   9.144  15.661  11.617  0.1240  0.2012 -0.0132
26131W        W45665  17.101   9.970   2.419 -0.1446 -0.2194 -0.0233
26132W        W45666   0.249   7.586   5.251  0.0096 -0.1083  0.1673
26133W        W45667   9.462  16.708   5.041 -0.1358 -0.0349  0.2637
26134W        W45668   0.474  16.499   1.768  0.0653  0.3683  0.0096
26135W        W45669  13.240   4.998   3.136  0.0610 -0.0699 -0.0520
26136W        W45670  13.999  15.411   1.085  0.1952 -0.1349 -0.1671
26137W        W45671   8.144   3.166  12.255  0.0070  0.1576 -0.1636
26138W        W45672  16.586   6.469  14.031  0.2328  0.1063 -0.0681
26139W        W45673  16.488   4.955   3.870 -0.0469 -0.1786  0.0817
26140W        W45674   2.676  12.103  13.655  0.1832  0.1477  0.3502
26141W        W45675  17.613  12.262  14.874 -0.2874 -0.0257  0.1496
26142W        W45676   2.833   3.131  15.723 -0.2456  0.0870  0.0641
26143W        W45677   9.214  16.954  15.402 -0.1973 -0.2929  0.0556
26144W        W45678  12.929   3.601   1.567 -0.1586 -0.1754  0.1541
26145W        W45679  17.859  15.356   0.741  0.1263 -0.3822 -0.1438
26146W        W45680  13.770   8.742   0.023 -0.2986  0.1764 -0.1215
26147W        W45681  15.498   8.599  12.863  0.1825  0.3313  0.2866
26148W        W45682  15.211   2.030   0.439  0.1041 -0.1121  0.0132
26149W        W45683   0.466   1.449  11.897 -0.1007  0.0979  0.0922
26150W        W45684  11.216  15.693  12.472  0.2677  0.3058 -0.0629
26151W        W45685   9.668   4.985   3.314 -0.2823 -0.2987  0.1990
26152W        W45686   8.324   6.308  15.728  0.0731  0.1475 -0.0036
26153W        W45687   6.627   5.646   2.757 -0.0655 -0.1337  0.2926
26154W        W45688  10.075  11.073  15.641 -0.1741  0.1293  0.1343
26155W        W45689   3.605   7.645   3.360 -0.1414 -0.0826  0.2852
26156W        W45690  10.236  11.856  12.472  0.0383  0.0066 -0.0336
26157W        W45691   8.113   6.202   5.379  0.0200  0.2549 -0.0176
26158W        W45692  16.265  14.129  15.593 -0.1182 -0.1559  0.0849
26159W        W45693   7.970   2.570  14.038  0.1438 -0.0510  0.2036
26160W        W45694   2.773  17.444   1.916 -0.0396 -0.1074 -0.1592
26161W        W45695  14.560  16.193  12.287 -0.0324  0.0232 -0.3505
26162W        W45696   9.090   8.272   4.672  0.1410 -0.0902 -0.2284
26163W        W45697  12.090   9.523  11.608  0.0418 -0.4272 -0.1149
26164W        W45698   9.793  11.542   0.068  0.1020 -0.1090 -0.2428
26165W        W45699  11.093   3.923  15.589 -0.0911 -0.0976  0.3493
26166W        W45700   1.720   8.752  11.871  0.0251 -0.0071  0.0228
26167W        W45701  14.610   5.453   0.320  0.1339  0.0411  0.0381
26168W        W45702   0.140  15.180   3.014 -0.3671  0.2287 -0.0389
26169W        W45703  16.434   4.220  10.505  0.3745  0.2070  0.0622
26170W        W45704   2.676  16.470   1.353 -0.0061  0.0843  0.0064
26171W        W45705  12.725   6.794   2.140  0.1187  0.0380  0.0297
26172W        W45706   1.581  17.073   0.794  0.0100  0.0723  0.1232
26173W        W45707  13.401   0.474  14.344 -0.1809 -0.2073  0.0937
26174W        W45708  11.759  15.172  14.832  0.1318 -0.0991 -0.0085
26175W        W45709   0.205  12.181  13.927  0.0136 -0.2153  0.3262
26176W        W45710   1.625  15.028   4.535 -0.0986  0.2423  0.0732
26177W        W45711  17.909   2.847  14.805 -0.0189  0.0311  0.0109
26178W        W45712   7.607  15.744  15.612 -0.0024 -0.4202  0.3114
26179W        W45713   4.244  16.750   0.480  0.0666  0.0201  0.1365
26180W        W45714   7.993  16.626  12.054 -0.2285  0.0123 -0.1515
26181W        W45715  18.124   2.264   1.147 -0.4543 -0.1692  0.1679
26182W        W45716   9.652   9.982  11.160 -0.1369  0.2372 -0.1141
26183W        W45717   8.787   1.328   0.708  0.0296  0.0954  0.0333
26184W        W45718  16.894   7.655   2.152  0.2053 -0.1178  0.1027
26185W        W45719   5.482  17.103   3.704 -0.4435 -0.0650 -0.1449
26186W        W45720   5.207  10.309   1.697 -0.1186 -0.1656  0.0054
26187W        W45721  11.134   9.118   4.307 -0.3624  0.1122  0.1578
26188W        W45722  14.490   7.865  14.056 -0.0464 -0.0449 -0.1422
26189W        W45723   3.332  13.692  14.484 -0.2560 -0.2992 -0.0556
26190W        W45724   6.158   5.030   3.251 -0.3350 -0.2207  0.0684
26191W        W45725   1.919   1.790   1.497 -0.0428 -0.1644  0.0897
26192W        W45726  13.751   5.891  11.587  0.2908  0.0720  0.0702
26193W        W45727  15.521   6.605   2.911 -0.1221 -0.2263  0.3358
26194W        W45728   9.633  16.816   1.639 -0.1408 -0.0633 -0.0325
26195W        W45729   2.341  15.424   3.199  0.0088 -0.3318  0.1604
26196W        W45730  13.202  11.576   3.040  0.2256  0.0087  0.3117
26197W        W45731   2.361   0.943  14.045  0.2196  0.1675 -0.0434
26198W        W45732   9.936   7.011  13.072  0.1343 -0.1976 -0.3377
26199W        W45733  14.049   1.978   0.768  0.1555 -0.3828  0.0496
26200W        W45734  15.011   5.335  14.901  0.1271 -0.0901  0.1121
26201W        W45735  10.446   7.052  13.059 -0.1156  0.1255 -0.3948
26202W        W45736  13.865  18.071   3.546 -0.3590  0.1096 -0.0123
26203W        W45737  12.185  16.758   5.119 -0.0257  0.1097 -0.1232
26204W        W45738  15.771   4.682  11.905  0.0141  0.0323  0.0388
26205W        W45739  14.414   3.182   4.270 -0.2759 -0.0559 -0.0282
26206W        W45740  11.193   7.169   4.867  0.1423 -0.1063  0.0302
26207W        W45741  10.764  11.065  13.651  0.0064 -0.0192  0.1380
26208W        W45742  15.688  13.675   3.227 -0.0002 -0.2990  0.0016
26209W        W45743  11.449   5.283   4.559 -0.3343 -0.1795  0.1034
26210W        W45744   6.211   0.099   0.201 -0.1318 -0.1219  0.1100
26211W        W45745  15.656   6.710   1.969  0.1348  0.2041 -0.1676
26212W        W45746  18.221  12.029   3.341 -0.2092 -0.3178 -0.0273
26213W        W45747  13.973   0.761  12.776  0.3475  0.4017  0.2197
26214W        W45748  13.605   7.001  10.893 -0.1639  0.2403 -0.2635
26215W        W45749   6.621  10.814  15.195 -0.0424 -0.0403  0.2675
26216W        W45750  16.129   1.922  13.526  0.4916 -0.3014 -0.0965
26217W        W45751   0.865   1.425   4.635  0.0308  0.2006  0.1271
26218W        W45752   8.354   8.273   3.136  0.0411  0.0393 -0.2843
26219W        W45753  10.452   8.799   3.667 -0.2101 -0.0371  0.1685
26220W        W45754  16.833   1.164   1.443  0.3636 -0.1582  0.0409
26221W        W45755   6.795  17.193  12.715  0.1144  0.0980  0.1752
26222W        W45756   0.913  18.015   0.513 -0.0283  0.2306 -0.1509
26223W        W45757   6.690  14.628   4.546  0.0562 -0.0587 -0.0079
26224W        W45758  10.365  14.132  13.970 -0.1366 -0.1413  0.0077
26225W        W45759   4.527   2.162  12.670  0.0244  0.0501  0.0729
26226W        W45760   8.266   3.679   4.491  0.1198  0.2381 -0.1803
26227W        W45761  13.634  17.728  15.606 -0.1481 -0.0495 -0.0239
26228W        W45762   3.781   2.098  13.218  0.0050  0.1098  0.1974
26229W        W45763   2.793  14.808   3.691  0.2311 -0.0110  0.2901
26230W        W45764  14.119  12.006   2.346  0.3364 -0.1419  0.2946
26231W        W45765  11.873  17.720   4.351  0.3682  0.0301  0.0614
26232W        W45766   4.021  11.509  14.125 -0.0787  0.0307 -0.1304
26233W        W45767   9.351  13.814  15.368 -0.2045 -0.1893  0.1204
26234W        W45768  17.176   4.945  14.780  0.1917 -0.2594 -0.1258
26235W        W45769  11.742   1.080  14.606  0.1185 -0.5457 -0.0756
26236W        W45770   6.938   1.704  12.120  0.0227 -0.0636  0.1085
26237W        W45771   6.139   8.463  15.755 -0.0097 -0.0394 -0.1221
26238W        W45772  16.042   4.161   2.209  0.1285  0.2059  0.0956
26239W        W45773   1.261   7.315  13.863  0.1625 -0.0503 -0.0596
26240W        W45774  10.596   1.300   0.581 -0.0226 -0.4172  0.2060
26241W        W45775  12.313   7.158  14.373  0.3816 -0.2974  0.0149
26242W        W45776  13.626   4.895  13.294  0.1110  0.2239 -0.1304
26243W        W45777   7.141   8.247   0.854  0.0474 -0.1698 -0.1774
26244W        W45778  13.653  13.075   1.108 -0.1016  0.0238 -0.0045
26245W        W45779   0.463   1.888  14.169  0.1672 -0.0761  0.0515
26246W        W45780   0.450  16.949   0.184 -0.1789 -0.0162 -0.2137
26247W        W45781   5.572   8.588   2.140 -0.1312  0.3185  0.0788
26248W        W45782   7.416   5.434   2.688  0.1638  0.0404  0.0339
26249W        W45783  14.390  10.157  12.659  0.0568  0.2613 -0.1604
26250W        W45784   9.080  12.906  15.525 -0.1873 -0.2644  0.1274
26251W        W45785  17.859   6.844  13.334 -0.5240  0.0410  0.0720
26252W        W45786  16.510  16.183   3.001 -0.2072 -0.1146 -0.0031
26253W        W45787  18.155  17.504  13.023 -0.0789  0.0055  0.0240
26254W        W45788   5.924   2.308   2.091 -0.1177  0.1643 -0.1810
26255W        W45789  11.910   6.927   1.868 -0.0048 -0.0599  0.1746
26256W        W45790  14.292  13.011  13.744 -0.0910 -0.2521 -0.0566
26257W        W45791   0.877  16.120   1.701 -0.0187 -0.0519  0.3783
26258W        W45792   8.378  15.388   0.546 -0.2136  0.5171 -0.0693
26259W        W45793   6.718   2.630  12.399  0.1629  0.2697 -0.3216
26260W        W45794  11.481  13.807  12.144  0.0377 -0.1617  0.2266
26261W        W45795   9.893   5.187  14.403 -0.2275 -0.1608 -0.3463
26262W        W45796  16.715   1.331  13.061  0.2107 -0.0362 -0.1160
26263W        W45797   4.366   9.614   4.199 -0.1471 -0.1035 -0.0109
26264W        W45798   7.559   6.548  14.289 -0.0512  0.1086 -0.2741
26265W        W45799   9.252  16.125  11.764  0.0343 -0.0193  0.0109
26266W        W45800   4.142  12.847  14.699  0.0431 -0.1073 -0.1094
26267W        W45801   1.353   3.823  12.557  0.2597 -0.1960  0.0979
26268W        W45802   4.082   1.290   2.588  0.1140 -0.2496  0.2221
26269W        W45803   6.583  16.775   4.028  0.0115  0.0363 -0.0331
26270W        W45804   2.000   4.386   2.131  0.2287 -0.1350 -0.0544
26271W        W45805  17.498   9.278   1.265  0.2712  0.0396 -0.2797
26272W        W45806   2.573  17.704  13.716 -0.1412  0.2561  0.0329
26273W        W45807   5.302   6.004  14.842  0.0941 -0.0284  0.0331
26274W        W45808  17.162   3.107  12.304 -0.0986 -0.1269  0.3128
26275W        W45809   2.362   8.188  11.292 -0.1745 -0.3582 -0.0121
26276W        W45810   5.579  17.397  12.142 -0.1766 -0.0042 -0.0379
26277W        W45811  12.604   6.471   2.491  0.2802 -0.1299  0.1488
26278W        W45812   6.078  17.546   4.239 -0.0780 -0.1238  0.0250
26279W        W45813   6.140   0.731  15.421  0.1834 -0.0398  0.0004
26280W        W45814  14.824   3.926  11.067  0.0113  0.3332  0.0183
26281W        W45815   6.610   9.250  15.766 -0.2521  0.0482 -0.0196
26282W        W45816   9.250   1.052   2.571  0.2231  0.2799  0.0264
26283W        W45817   2.493  18.018  15.257 -0.2898  0.1801  0.3458
26284W        W45818   4.402  16.809  15.744  0.2444 -0.0775  0.0980
26285W        W45819  14.084  11.627  13.528  0.3198  0.1303 -0.1402
26286W        W45820  17.946   3.435  12.761 -0.2176  0.0314  0.1366
26287W        W45821   0.411  16.790  14.528 -0.2205  0.1604 -0.2531
26288W        W45822   1.209  15.610   3.854  0.0932  0.0497 -0.1481
26289W        W45823   1.199  12.848  12.385  0.2096  0.1698  0.2189
26290W        W45824   1.552  15.885   3.632 -0.0168 -0.0773 -0.3124
26291W        W45825   1.753   7.179   1.283 -0.1782 -0.1223  0.1952
26292W        W45826  11.310  18.257  13.775 -0.2007 -0.1004 -0.1740
26293W        W45827  11.821  16.222   0.845 -0.0363 -0.2910  0.0027
26294W        W45828   7.851   5.636  14.625 -0.0378 -0.0353 -0.3022
26295W        W45829  16.312   8.174   2.519 -0.2274 -0.3011  0.0797
26296W        W45830   2.159  14.112   2.753  0.1173 -0.0134 -0.1396
26297W        W45831   8.724  11.651   4.621  0.1577  0.0109  0.1273
26298W        W45832   5.738  11.910   4.641  0.0008 -0.0830 -0.1526
26299W        W45833   2.674  18.315  11.559  0.1022  0.2946  0.1805
26300W        W45834  17.361  15.325   0.578  0.1124  0.1525  0.0464
26301W        W45835   1.440   7.594  13.032  0.0472  0.0555 -0.1235
26302W        W45836   8.614   3.717  11.616  0.1751 -0.2330  0.1166
26303W        W45837   4.069   2.614  12.686  0.0549  0.0014  0.1927
26304W        W45838  10.421   9.694   1.328 -0.2356  0.0358  0.0296
26305W        W45839  14.241  17.626  13.412  0.1021 -0.0601  0.0401
26306W        W45840  17.904   5.567   5.125  0.1186  0.0698 -0.1576
26307W        W45841   3.999   3.001  12.168  0.4346  0.0298 -0.1895
26308W        W45842   8.400   9.121   3.675 -0.0656 -0.1871 -0.2269
26309W        W45843   0.405  16.752  11.714 -0.1582 -0.3526 -0.2078
26310W        W45844   8.422  10.776  14.710 -0.0557  0.2752  0.0896
26311W        W45845  14.712  13.371  12.450  0.1116 -0.0606 -0.0323
26312W        W45846   9.132  11.782   2.669 -0.2232 -0.1083 -0.1226
26313W        W45847  17.984   6.540  15.572  0.0072 -0.2789  0.1060
26314W        W45848   4.060  15.399   0.047 -0.2859 -0.0542 -0.0521
26315W        W45849   3.821   9.776  11.189  0.0204  0.2787  0.2951
26316W        W45850   7.870   7.983  14.356  0.1535  0.0020  0.2001
26317W        W45851   6.188   0.792   1.433 -0.1372 -0.1445  0.2087
26318W        W45852   2.336  18.023   2.524 -0.1936 -0.1328 -0.2359
26319W        W45853   0.961   3.097  12.372  0.0084 -0.1038  0.1712
26320W        W45854   8.118   4.570   4.689  0.1494 -0.0984  0.0365
26321W        W45855  17.437   9.346   0.782  0.0993 -0.0817 -0.1399
26322W        W45856   0.372   4.758  13.099  0.2046  0.0505 -0.0918
26323W        W45857   6.384  12.710  11.937  0.3435 -0.0517  0.2017
26324W        W45858  14.419  17.345  13.822  0.2583 -0.2559  0.1388
26325W        W45859   9.426  14.763   3.643  0.0659 -0.1513 -0.1686
26326W        W45860  13.577   2.622  13.176  0.3091  0.2281  0.2601
26327W        W45861   3.198  12.686   0.772  0.0366  0.1145 -0.2944
26328W        W45862   5.633   2.716   2.135 -0.1660  0.2554  0.3018
26329W        W45863  14.676  12.825  13.964  0.3094 -0.0147 -0.1360
26330W        W45864  15.069  12.019  15.578 -0.0129 -0.2611 -0.1226
26331W        W45865  17.515  15.904   3.041 -0.5214 -0.0200  0.1814
26332W        W45866   1.844   3.004  14.444 -0.0778  0.1757  0.0638
26333W        W45867   1.298   0.319  13.393 -0.2316  0.0876  0.1549
26334W        W45868   9.009   6.348  15.829  0.2002  0.0912 -0.1312
26335W        W45869  11.775   1.837  11.659 -0.2556  0.3037  0.0154
26336W        W45870  10.680  17.909   0.081  0.0834  0.0303  0.0189
26337W        W45871  14.797   0.438   1.874  0.0541 -0.0002 -0.2766
26338W        W45872   9.521  12.404  12.954  0.0475  0.0937 -0.1838
26339W        W45873  14.434  10.474   2.541  0.0512  0.2415 -0.0781
26340W        W45874  18.312  17.007  13.014 -0.0075  0.1277 -0.0071
26341W        W45875   1.427   4.060  13.026 -0.2014  0.1403 -0.0028
26342W        W45876  13.282  10.582   5.216  0.3767 -0.3540  0.2212
26343W        W45877   5.756   7.673  14.165 -0.4050  0.0829  0.1175
26344W        W45878  17.968  17.426   0.860  0.1212  0.0809 -0.1847
26345W        W45879   2.207   4.544   2.575 -0.0498  0.0382 -0.0873
26346W        W45880   1.432   4.562  12.069 -0.2489  0.2920 -0.0023
26347W        W45881  16.855   2.222  11.217  0.1351  0.0147  0.0709
26348W        W45882  16.842   0.190  13.790  0.0185  0.1582  0.1549
26349W        W45883  12.674   2.691   1.596  0.0219 -0.0171  0.0647
26350W        W45884  10.638  17.572   1.872 -0.1406  0.0380  0.0237
26351W        W45885   4.469  17.665   1.962  0.0983  0.0700 -0.0227
26352W        W45886  10.647  10.509  15.235 -0.0577 -0.0103  0.1841
26353W        W45887  11.044  11.044   3.976 -0.1695  0.2880 -0.1534
26354W        W45888   4.092  16.724   4.084 -0.4968  0.1643  0.1060
26355W        W45889  10.727  12.421   4.789 -0.2524  0.3952  0.2503
26356W        W45890  10.082  13.448   1.196  0.2621  0.1699  0.1771
26357W        W45891   8.280   3.552  13.092  0.0380  0.5194  0.0236
26358W        W45892   8.960   0.662  12.003  0.0213  0.1024  0.1059
26359W        W45893   2.503   8.123  13.394 -0.1399 -0.1751 -0.0667
26360W        W45894  15.860  17.191  15.418 -0.0426 -0.0422  0.1136
26361W        W45895   0.578   8.623  11.937  0.0746  0.1451 -0.1414
26362W        W45896  18.300   6.499   0.191 -0.0593 -0.2170  0.1571
26363W        W45897   2.150   6.241   0.217  0.3192 -0.1515  0.0223
26364W        W45898  14.049   8.343  15.377  0.1161  0.2765 -0.2714
26365W        W45899   9.361  17.680  13.228 -0.1893  0.0708  0.1590
26366W        W45900  11.805   9.413   1.138 -0.1729 -0.1864  0.1406
26367W        W45901   9.442   1.066   4.277  0.1508 -0.0846  0.1912
26368W        W45902   4.877  14.866  13.683  0.0231  0.1031  0.1893
26369W        W45903   3.901  13.344   2.473 -0.1108  0.0923 -0.0528
26370W        W45904  13.859   7.522  14.243  0.0097 -0.3338 -0.2875
26371W        W45905  13.855  15.491  11.972  0.0720 -0.2961 -0.1246
26372W        W45906  11.547   5.610  12.861 -0.0036 -0.1156 -0.2028
26373W        W45907   5.683   0.345   2.004  0.0438 -0.0693 -0.3352
26374W        W45908   2.266  10.882  13.611  0.0267  0.0814  0.2904
26375W        W45909  16.158   2.980  12.512  0.0984  0.3014 -0.0972
26376W        W45910   5.743  18.347   1.615  0.1143  0.1120  0.3157
26377W        W45911   2.292   3.511  14.700  0.2626 -0.3066 -0.0416
26378W        W45912   0.504  14.568   1.456  0.1768 -0.1656  0.1262
26379W        W45913  10.242  17.162  15.152  0.2307  0.0790 -0.1328
26380W        W45914  11.152  14.752   2.961 -0.3040  0.0220  0.1112
26381W        W45915  17.671   9.709   3.326 -0.1940 -0.0530 -0.1078
26382W        W45916   6.486   8.174  12.911  0.0099  0.1657 -0.1865
26383W        W45917  14.759  17.109   2.122 -0.0096 -0.1455  0.0749
26384W        W45918   1.008  17.088   0.587 -0.0278 -0.2228 -0.1574
26385W        W45919   6.975   9.694   3.035 -0.2225 -0.0326  0.0398
26386W        W45920  13.600   0.852   5.139 -0.1237 -0.1725  0.0855
26387W        W45921  10.911  10.097  15.415  0.0331 -0.0963 -0.1015
26388W        W45922   2.556   0.386   3.008  0.0558  0.0873 -0.2692
26389W        W45923   8.752   3.546   2.766 -0.0979  0.2103  0.0107
26390W        W45924   5.508  14.897  15.109 -0.0796  0.0179  0.1818
26391W        W45925  12.348  18.164  11.807 -0.0009  0.0623 -0.1325
26392W        W45926   4.969   4.687  12.202  0.1544  0.1878  0.0101
26393W        W45927  13.682   8.305   1.232  0.0475  0.0483 -0.3728
26394W        W45928   2.655  13.283   4.436  0.1191 -0.1948 -0.0932
26395W        W45929   6.468  18.160   0.913 -0.1302  0.0183 -0.4679
26396W        W45930  17.503   3.433   4.023 -0.1836  0.2176  0.0521
26397W        W45931   1.065   3.213  15.428  0.0085  0.0610 -0.0404
26398W        W45932   8.664   0.217  14.056 -0.2810 -0.1609  0.0109
26399W        W45933  10.472   0.014  15.697  0.2974  0.0961 -0.0520
26400W        W45934   5.809  13.659  15.271 -0.0529 -0.0480 -0.1485
26401W        W45935   2.698   0.158  13.961 -0.0562  0.0560 -0.1179
26402W        W45936  16.719   5.400   3.189  0.2361 -0.0230 -0.1928
26403W        W45937  13.779   4.205   1.310  0.0406 -0.0111 -0.2125
26404W        W45938   7.161   9.650  14.134  0.1355 -0.2593 -0.1850
26405W        W45939  18.321   4.802  13.851  0.2433  0.2536 -0.0107
26406W        W45940   0.134  18.241  12.233  0.1646 -0.1052  0.0925
26407W        W45941   2.114   1.733   3.315 -0.1037 -0.1492 -0.0248
26408W        W45942  17.676   9.215  12.315 -0.1712 -0.1031 -0.0047
26409W        W45943   8.843  15.869   3.130 -0.0812 -0.1589  0.1839
26410W        W45944  12.530  13.962  15.308 -0.2385  0.1324  0.1087
26411W        W45945  14.287   5.988  11.699 -0.2628 -0.1574  0.2678
26412W        W45946  12.704   0.259  15.740  0.0738 -0.0195 -0.3282
26413W        W45947   2.952   6.463  12.201 -0.2509 -0.3272  0.1556
26414W        W45948   3.251   2.779  15.601 -0.1655 -0.0815 -0.1453
26415W        W45949   1.788   3.315   1.335 -0.2145  0.4105 -0.0339
26416W        W45950  10.132   2.974  15.756  0.0699  0.0734  0.0507
26417W        W45951   3.039  17.393   3.550 -0.1937 -0.0545 -0.0856
26418W        W45952  16.431   2.415   0.767  0.1471  0.0424  0.1251
26419W        W45953  16.588   6.002   2.484  0.1010 -0.1093  0.1148
26420W        W45954  14.380   8.190   1.350 -0.1524  0.0627 -0.1175
26421W        W45955   1.925   6.308  12.162  0.0070 -0.0864 -0.0001
26422W        W45956   0.492  10.481  14.692 -0.0849  0.2788  0.1851
26423W        W45957   9.782   0.208  11.399  0.0197  0.0283  0.0528
26424W        W45958   3.789  10.606  15.423 -0.1207  0.2555  0.0953
26425W        W45959   9.254  10.858  14.389 -0.1331  0.0163  0.2976
26426W        W45960  11.067   7.851  14.004  0.0646 -0.0991 -0.0624
26427W        W45961  15.050  18.067   0.338 -0.2255 -0.0906  0.1765
26428W        W45962   7.846  12.912   3.248 -0.3557 -0.0484 -0.5448
26429W        W45963   2.209  18.235   0.757  0.0693  0.1872  0.6281
26430W        W45964   3.850   0.739   0.317  0.0796  0.2529  0.1333
26431W        W45965  11.167  10.637  15.374 -0.2463 -0.0916  0.0996
26432W        W45966  14.574  16.415   4.608 -0.1192 -0.0408 -0.1548
26433W        W45967  10.348   9.939  12.417  0.0289  0.1916 -0.3589
26434W        W45968  17.085   3.199   5.584 -0.0364  0.2005  0.2219
26435W        W45969   1.392   4.117   3.936 -0.0023 -0.0310 -0.2285
26436W        W45970   0.835   5.598  13.626 -0.1959  0.0872 -0.0986
26437W        W45971   8.385   3.532  11.184 -0.1726  0.0554 -0.2496
26438W        W45972   2.728   5.226  14.278  0.3323  0.0213 -0.1439
26439W        W45973   6.670  16.269  14.691  0.2346 -0.2361 -0.0547
26440W        W45974  15.808   1.187  11.316  0.0342  0.1215 -0.0012
26441W        W45975   5.645  16.719   0.564 -0.3755 -0.1530 -0.0229
26442W        W45976  13.890   9.367   3.185 -0.0776 -0.0102 -0.1091
26443W        W45977  12.262   8.808   3.591  0.2133 -0.0632 -0.0004
26444W        W45978   8.531  10.291   4.054  0.0145  0.0940 -0.0859
26445W        W45979   4.165  11.902   0.527 -0.2268 -0.1999 -0.2070
26446W        W45980  12.352  14.894   2.200  0.1438 -0.1513 -0.3390
26447W        W45981  17.101   6.904  12.564 -0.0677 -0.2989  0.3922
26448W        W45982  17.633   5.019   0.083 -0.1119  0.1414  0.3416
26449W        W45983   4.602  10.682   1.847 -0.0860 -0.0849 -0.0235
26450W        W45984   8.165   0.506   5.123  0.2059  0.1317 -0.4228
26451W        W45985  17.958  10.829   1.011  0.0472 -0.2688 -0.0899
26452W        W45986  15.455   5.628   0.383  0.3513 -0.2857 -0.0884
26453W        W45987  13.818  10.965   4.424 -0.0563 -0.1015  0.2393
26454W        W45988  15.205   3.120  11.945 -0.2682  0.0638 -0.3399
26455W        W45989  13.710  12.361  11.277  0.2367 -0.3312  0.3278
26456W        W45990  11.007  16.695   2.468 -0.0598  0.1687  0.0098
26457W        W45991   7.960  12.057   4.513 -0.1407 -0.2030  0.1965
26458W        W45992  16.635   0.432  12.218 -0.2825  0.0043  0.0072
26459W        W45993   3.326   4.769  13.141 -0.0704  0.0017 -0.1424
26460W        W45994   1.199  12.494   1.710 -0.0919  0.0316 -0.1462
26461W        W45995   8.429  17.987   0.137  0.0046 -0.0652  0.0426
26462W        W45996   6.540   1.766   3.302  0.1925 -0.0633 -0.1839
26463W        W45997   2.010   5.824  15.773 -0.1421  0.1626  0.1301
26464W        W45998  15.471   6.677  11.892 -0.0437 -0.1012 -0.0376
26465W        W45999   9.977  12.123   5.190  0.1190  0.0700 -0.0102
26466W        W46000  16.477  15.867  12.555 -0.0733  0.0981 -0.1090
26467W        W46001  10.537  14.271   4.298 -0.0058  0.3078  0.0972
26468W        W46002   9.026  18.224   0.703  0.2879 -0.1904  0.2172
26469W        W46003   3.828   7.279   1.875 -0.0938 -0.4076  0.1639
26470W        W46004  15.603   6.690   0.366 -0.0129 -0.0732  0.0305
26471W        W46005  16.059   3.536  15.262 -0.0879  0.0558 -0.1842
26472W        W46006  14.613   4.166   0.523 -0.0452  0.0503 -0.1817
26473W        W46007   2.877   6.241   1.350 -0.0380 -0.1927 -0.1039
26474W        W46008   7.467   1.867  14.014 -0.0161 -0.0723  0.4036
26475W        W46009   7.369  13.899   4.987 -0.2908  0.1921 -0.1441
26476W        W46010   2.903   4.199  13.445 -0.3715  0.2324 -0.2109
26477W        W46011  13.555   1.556   0.088  0.0531 -0.0793 -0.0681
26478W        W46012  12.688   1.027  11.671  0.0916 -0.0371 -0.3131
26479W        W46013   8.101   9.504   3.733 -0.2219  0.0745  0.6436
26480W        W46014  15.983   9.743  12.014  0.1413  0.2318  0.3444
26481W        W46015   0.770   8.966   1.011 -0.0447  0.1842 -0.0368
26482W        W46016   3.446  11.669   2.958 -0.2876  0.0689  0.0923
26483W        W46017   8.998  18.089  12.406 -0.3112 -0.2218  0.0246
26484W        W46018   5.404  10.442  14.628  0.1744 -0.3339  0.0437
26485W        W46019  16.657  13.442   0.161  0.2478  0.0860  0.2211
26486W        W46020   2.207  14.264  12.952 -0.0698 -0.2251  0.1920
26487W        W46021  10.107   4.242  14.353 -0.1664 -0.1059  0.2290
26488W        W46022  15.618  11.990   1.679 -0.0164  0.2208 -0.1611
26489W        W46023   3.346   0.472  12.314 -0.3664 -0.1692  0.3522
26490W        W46024  11.711  12.201  13.693  0.3271  0.1834 -0.1933
26491W        W46025   0.150  15.332  13.132 -0.2069  0.0704  0.2071
26492W        W46026   6.493  11.218  13.468  0.0231 -0.0782 -0.0878
26493W        W46027   9.381   7.305  14.144  0.0733  0.2028 -0.1100
26494W        W46028   3.371   4.590   0.181 -0.2374  0.1239  0.0163
26495W        W46029   6.541   4.454  12.176  0.0306 -0.0463  0.1725
26496W        W46030  12.984   7.201  11.898 -0.1248 -0.2057  0.2803
26497W        W46031   6.643  15.807   1.050 -0.1445  0.0071  0.0181
26498W        W46032   0.410  16.004   1.499 -0.2694 -0.1273 -0.0078
26499W        W46033  18.022  12.448   4.291 -0.1914  0.0516 -0.0417
26500W        W46034   8.660  12.575   4.684  0.0133  0.1727 -0.0693
26501W        W46035   3.989   8.823  12.361 -0.1485 -0.5126 -0.0032
26502W        W46036   8.366   3.107  15.510  0.0005  0.0452 -0.1047
26503W        W46037   7.538   6.672  11.343 -0.0592 -0.0932  0.4326
26504W        W46038   0.292  10.744   0.216 -0.0079  0.3245 -0.2567
26505W        W46039   9.636   9.502   1.280 -0.1556  0.0447 -0.4245
26506W        W46040   1.165   3.283   0.788 -0.4294  0.0876 -0.1382
26507W        W46041   7.228  11.073   1.452 -0.2152  0.0252 -0.0504
26508W        W46042   4.178   2.558  15.299  0.1174 -0.0155  0.2055
26509W        W46043  17.087  16.434  12.905  0.2349  0.1663 -0.1115
26510W        W46044   5.701   5.287   2.986  0.2168  0.0064  0.2968
26511W        W46045  17.018   3.504  11.036 -0.1018  0.0033 -0.1774
26512W        W46046   8.899  14.694  12.007  0.0439  0.0386 -0.1489
26513W        W46047  13.513  15.543  15.010 -0.0586  0.1242 -0.2361
26514W        W46048   5.618  12.905  13.950 -0.2210  0.2737 -0.0964
26515W        W46049  12.979  12.113  13.818 -0.0376  0.1949  0.1097
26516W        W46050   0.949   1.230   3.499 -0.1072  0.0090 -0.2776
26517W        W46051  16.096   4.600  13.396 -0.0488 -0.2058  0.1934
26518W        W46052   5.239  15.117  14.716 -0.0632 -0.2016 -0.0795
26519W        W46053  16.679  17.467   4.604  0.0035  0.1044 -0.1499
26520W        W46054  15.868   1.689   0.330  0.1249 -0.0653  0.3331
26521W        W46055  14.231  16.044   4.435 -0.1225 -0.1016 -0.2334
26522W        W46056  17.547   6.565   3.996 -0.0971  0.0956  0.4375
26523W        W46057   6.627   5.150   2.785 -0.1033  0.2285 -0.0788
26524W        W46058   6.285   9.086  15.302  0.3769  0.2387 -0.4233
26525W        W46059  15.366   8.473  12.381 -0.0274 -0.0327 -0.0556
26526W        W46060   2.155  12.102  15.692  0.2438  0.0063  0.0017
26527W        W46061   3.137   8.947   0.936 -0.0174 -0.0637  0.1676
26528W        W46062  12.854   4.637   1.105  0.0753 -0.2470  0.1377
26529W        W46063   2.591  11.026  13.051 -0.1324 -0.1533  0.0969
26530W        W46064  17.606   1.993   3.284 -0.1593 -0.0292  0.2722
26531W        W46065  16.475  18.386  13.024  0.2362  0.0831 -0.2189
26532W        W46066  18.088   1.224   2.546 -0.1794 -0.0589 -0.0376
26533W        W46067  15.857  10.488   2.277 -0.2293 -0.0625 -0.1216
26534W        W46068   6.104   5.988  13.274 -0.0342 -0.4501  0.0619
26535W        W46069   2.384  12.331   2.464  0.4271  0.0791 -0.2231
26536W        W46070   0.203   4.313   0.936  0.0225  0.0314 -0.0358
26537W        W46071  10.454   8.785   2.109 -0.0470  0.1300 -0.1811
26538W        W46072   9.374  15.588  12.963  0.0270 -0.2609  0.0887
26539W        W46073   6.668  10.662  12.837  0.1875  0.2990  0.1063
26540W        W46074   6.245  15.824   0.710 -0.1106  0.1474  0.0587
26541W        W46075   6.276   2.027   4.299 -0.0690  0.0063  0.0546
26542W        W46076   4.515   1.245   4.824  0.1150 -0.2169 -0.0881
26543W        W46077   6.887   7.627   3.299  0.1616 -0.0386 -0.0366
26544W        W46078  16.720  10.624   2.350  0.2279 -0.2135  0.1610
26545W        W46079   1.702   6.224   3.426  0.3837  0.1612  0.3281
26546W        W46080  12.312  10.661   0.158  0.0505  0.5803 -0.0332
26547W        W46081   2.423   6.099  12.869  0.0068 -0.0141  0.0010
26548W        W46082   0.886   1.248  15.183  0.2445 -0.1829 -0.0975
26549W        W46083   7.622  18.192   0.368  0.2423  0.1912  0.0611
26550W        W46084   0.406  17.041  12.262 -0.1481 -0.1762  0.0235
26551W        W46085  17.334  13.388   1.232  0.2102  0.1225 -0.4440
26552W        W46086   6.286   5.821  12.037  0.0992 -0.0347  0.0499
26553W        W46087  14.893   5.786   4.055  0.0774 -0.0540  0.2085
26554W        W46088   3.443  10.944  12.526 -0.1760  0.2371 -0.2364
26555W        W46089   5.687   9.198  15.251 -0.0847 -0.1581  0.0320
26556W        W46090   3.535   7.377   1.453  0.0561 -0.0407 -0.2291
26557W        W46091   2.055   3.091  14.907 -0.0875 -0.1300 -0.1854
26558W        W46092  15.762  16.241   3.242  0.1682  0.1166 -0.1583
26559W        W46093  12.111   1.318  14.945 -0.1045 -0.1722  0.1916
26560W        W46094  16.641  10.651   2.948 -0.2042 -0.0874  0.1434
26561W        W46095   0.468  10.739   3.500 -0.1548 -0.2772 -0.1126
26562W        W46096   7.835   7.757   4.216 -0.2706  0.0180  0.0842
26563W        W46097   7.752  15.926   0.605 -0.0975 -0.0819 -0.0292
26564W        W46098   5.428   4.497  15.175 -0.5133 -0.4050 -0.1041
26565W        W46099   8.313  15.888   0.589  0.0382  0.2752  0.3530
26566W        W46100  10.144  11.207   0.884 -0.1440  0.1542 -0.0653
26567W        W46101  10.613  10.613  12.446  0.0611  0.0903 -0.1772
26568W        W46102   1.002  16.327  13.398 -0.3247  0.1092 -0.1680
26569W        W46103   7.144  16.416  15.344 -0.0202  0.1048  0.0072
26570W        W46104   6.082   6.674   5.809 -0.2383 -0.0355  0.2465
26571W        W46105   7.753   2.690   4.337 -0.1542  0.0694  0.0260
26572W        W46106   0.796  17.362   1.282 -0.1732 -0.0244  0.1412
26573W        W46107  16.613  15.211  11.946 -0.1379  0.0047  0.1762
26574W        W46108  17.497   4.304  13.680  0.0504  0.1223 -0.0536
26575W        W46109   0.513  15.741  13.026  0.0391  0.1247 -0.0897
26576W        W46110   7.290  14.335   4.052 -0.1445  0.1837 -0.1905
26577W        W46111   1.432   3.163   1.751  0.1883  0.3672 -0.1755
26578W        W46112  12.205  12.686   2.826  0.0476  0.0114  0.1480
26579W        W46113   4.813   4.226   3.225  0.1910  0.0897 -0.2603
26580W        W46114   8.681   5.889  12.969 -0.2974 -0.1946 -0.0245
26581W        W46115  15.563   5.539   1.231 -0.0556  0.1736 -0.2400
26582W        W46116  11.219   4.981   1.334 -0.1041  0.0260  0.0600
26583W        W46117   9.170   5.726  13.895  0.0051 -0.2690 -0.0482
26584W        W46118  13.043  16.393  13.546 -0.0541 -0.0563 -0.2706
26585W        W46119  11.033   4.535   4.300 -0.4822  0.1136 -0.0337
26586W        W46120   5.433  14.269   4.425  0.2338  0.1563 -0.2032
26587W        W46121  14.889  11.345   2.547  0.3197 -0.1001 -0.0553
26588W        W46122   7.084  17.817   4.382  0.0032 -0.1019  0.1855
26589W        W46123   3.850   6.607  10.336  0.1307 -0.0873 -0.3077
26590W        W46124   9.630  15.178   2.387  0.1804  0.2381 -0.0592
26591W        W46125  12.487  14.720   0.667 -0.0924 -0.2312  0.0886
26592W        W46126  17.686   4.972  14.990  0.2441 -0.1626 -0.1322
26593W        W46127  13.587   4.582   4.529  0.0597  0.0007 -0.3405
26594W        W46128   0.154  17.753   2.992 -0.1459 -0.0896 -0.1877
26595W        W46129   8.638  16.226  14.145 -0.2330 -0.1400 -0.2486
26596W        W46130   5.674   2.299  14.324 -0.2767  0.1622  0.0835
26597W        W46131   5.909   4.553  14.880 -0.0223  0.1175 -0.2980
26598W        W46132  11.290  13.454   0.021 -0.5344  0.2933 -0.0894
26599W        W46133   7.800   5.088   1.250 -0.1564  0.0481 -0.2173
26600W        W46134   4.998  14.217   4.112  0.1115 -0.2787 -0.2743
26601W        W46135   9.431  16.126  14.406  0.2638  0.1385  0.0902
26602W        W46136  16.973   3.597   4.041  0.0406 -0.2971  0.0517
26603W        W46137  14.691  10.234   3.937  0.1569  0.1161 -0.0013
26604W        W46138   0.930  14.862   1.453  0.1710  0.0879  0.1220
26605W        W46139  11.327   2.563   4.080 -0.1120 -0.1045 -0.1123
26606W        W46140  16.320  13.731  11.200 -0.2662  0.0561  0.0634
26607W        W46141  15.646   8.958   1.733  0.1532  0.1063 -0.2576
26608W        W46142  16.681   9.161  11.281  0.1849 -0.0445 -0.3740
26609W        W46143  13.185   3.091  12.355 -0.0448  0.4479  0.0088
26610W        W46144  11.938   3.037  15.073 -0.1311 -0.0449  0.1150
26611W        W46145  10.793  17.032  12.650  0.0031  0.0715 -0.4434
26612W        W46146   6.910   4.753   1.888 -0.0445  0.2503  0.1037
26613W        W46147  10.502  17.083   0.815  0.1750  0.0421 -0.2523
26614W        W46148   4.491  15.066   0.749 -0.0805 -0.0257 -0.0323
26615W        W46149   5.431   8.319  12.872  0.0294  0.0287 -0.0091
26616W        W46150   2.930   5.651   1.216  0.2245  0.0969 -0.1678
26617W        W46151   8.528   2.343   3.800 -0.3521  0.0828  0.0051
26618W        W46152  18.251  12.839   0.506  0.0553  0.1180  0.2278
26619W        W46153  14.523   5.405  13.092  0.2884 -0.3393 -0.2675
26620W        W46154  18.067  17.135   3.011  0.1814  0.1162  0.0769
26621W        W46155   6.287   6.315  11.796  0.0516  0.0003  0.1058
26622W        W46156   1.041   4.088   1.510 -0.1181  0.1610 -0.0147
26623W        W46157   1.182   1.149  13.622 -0.1142 -0.0272 -0.1364
26624W        W46158   6.446  15.519   4.266 -0.0425  0.2796  0.2256
26625W        W46159   9.932   2.546  14.100 -0.0827 -0.1254  0.2303
26626W        W46160   2.612   5.286  15.069  0.0771 -0.0862  0.1734
26627W        W46161  16.674   9.270  13.398  0.3092 -0.1649  0.2136
26628W        W46162   3.768  10.094  12.365  0.1381 -0.1577  0.0955
26629W        W46163   4.800   3.947   2.362  0.0274  0.0557 -0.0072
26630W        W46164   5.095   0.774  15.803 -0.0875 -0.0628  0.3075
26631W        W46165   3.888   5.239   2.295 -0.1548 -0.0781  0.0494
26632W        W46166   6.782  17.222   4.195 -0.0269 -0.0268  0.1722
26633W        W46167  17.088  13.267   3.091 -0.2846 -0.2137 -0.1032
26634W        W46168   4.027   7.701   2.924  0.4226 -0.0528 -0.1261
26635W        W46169  11.283  13.238   3.213  0.0631  0.1469 -0.1190
26636W        W46170  10.661  17.971   5.185 -0.2158 -0.2870  0.0931
26637W        W46171  15.530  12.504  11.011  0.0845  0.0490 -0.1769
26638W        W46172  13.047  10.958   1.195 -0.0885 -0.0769  0.0850
26639W        W46173  11.479  16.355  14.279 -0.1136  0.1490 -0.2905
26640W        W46174  11.882   9.083  12.395  0.2872 -0.0779  0.0415
26641W        W46175   2.830  11.063   0.318  0.0842 -0.3224 -0.0034
26642W        W46176  14.556  15.042   4.101 -0.2209 -0.0608  0.0584
26643W        W46177   6.205  11.848  14.542 -0.0609 -0.3035 -0.2403
26644W        W46178  17.591   1.621   4.217  0.0659 -0.0090  0.0232
26645W        W46179  17.066   2.285  10.232  0.0158  0.0282  0.1301
26646W        W46180   2.254   6.588   3.915  0.0338  0.0269  0.1142
26647W        W46181   3.596   2.064   1.734  0.1244  0.1965 -0.0584
26648W        W46182  15.237  15.819  12.960  0.0926  0.1591  0.0310
26649W        W46183  16.120  12.653  14.054 -0.0408 -0.1344 -0.1087
26650W        W46184  13.787  13.806  12.737 -0.1069  0.0089  0.0540
26651W        W46185   4.825   5.287  11.626  0.0726  0.1379  0.1094
26652W        W46186   9.671   8.434  12.545 -0.0516  0.1654 -0.2567
26653W        W46187  11.254  10.788  15.814 -0.3760  0.4421 -0.2855
26654W        W46188   0.518  15.969  10.673 -0.0219 -0.0712 -0.1111
26655W        W46189  10.031   1.867  15.674  0.2178  0.3658  0.0205
26656W        W46190  14.578   2.420   2.751 -0.0114  0.1213 -0.1472
26657W        W46191  12.151   7.662  14.595  0.1357 -0.0980  0.3160
26658W        W46192  12.676   8.127   2.083 -0.3570  0.1421  0.2609
26659W        W46193  11.660   3.271   1.696  0.0057  0.0436 -0.0131
26660W        W46194   4.486  10.285  11.058  0.0201 -0.0984  0.1599
26661W        W46195   5.304   2.680   2.682 -0.0918  0.0626  0.0026
26662W        W46196  12.943   3.759   0.694  0.0372 -0.3824  0.1344
26663W        W46197   4.855   2.433  12.198 -0.0144 -0.0750 -0.2576
26664W        W46198   4.002  16.518  15.036 -0.1681 -0.0023 -0.0073
26665W        W46199  14.869   3.809  14.777 -0.1651 -0.0166 -0.0192
26666W        W46200   9.895   9.591  13.784  0.0074 -0.1817  0.1153
26667W        W46201  15.439   0.004  14.078 -0.0767  0.0896 -0.1126
26668W        W46202  13.143   9.720  15.091  0.1849 -0.1270  0.2673
26669W        W46203  12.708   9.735   4.359  0.0169  0.2458 -0.1875
26670W        W46204   3.543  16.773   0.406  0.0831  0.1056  0.3623
26671W        W46205   4.005   7.228  12.915 -0.0972  0.2247  0.1342
26672W        W46206  14.846   7.943  13.179  0.1591 -0.3190 -0.1937
26673W        W46207   5.409   7.459  13.815  0.2958  0.1968  0.3543
26674W        W46208  14.978  15.775  11.608  0.1663  0.2142  0.0809
26675W        W46209  10.849  12.280  13.391 -0.0672 -0.1050 -0.1205
26676W        W46210   3.858   9.185   3.404 -0.0631  0.1205  0.2336
26677W        W46211   1.190   6.977  12.485 -0.1423  0.2648 -0.0249
26678W        W46212  15.687   6.183   2.822  0.0830  0.2190 -0.2413
26679W        W46213  17.515   5.241  13.226  0.0068  0.1257 -0.1915
26680W        W46214  17.359  13.927   3.389 -0.1392 -0.1425  0.2245
26681W        W46215   8.081  14.247  11.763 -0.1217  0.2503 -0.1800
26682W        W46216  10.736   6.009   2.996 -0.1125 -0.1315 -0.0179
26683W        W46217   0.089  15.192  13.641  0.3162  0.1434 -0.2745
26684W        W46218   9.157   3.104  11.754  0.0722  0.1130 -0.1381
26685W        W46219   5.999  15.366   0.048 -0.0215  0.1533 -0.3108
26686W        W46220   5.007  16.322  14.707 -0.2222 -0.0019 -0.3513
26687W        W46221   2.794  10.007  11.123  0.2112 -0.1371  0.0416
26688W        W46222   5.318  13.840   4.011  0.0582  0.0416  0.2425
26689W        W46223  11.536   1.253   1.842  0.0212 -0.2358  0.1075
26690W        W46224  16.951   2.095   3.055  0.3480 -0.1412 -0.0624
26691W        W46225  15.086   4.727   1.637  0.1253 -0.1150  0.2102
26692W        W46226   9.580  11.488  12.493 -0.0829 -0.0887  0.0134
26693W        W46227   3.169   2.502   0.310  0.2200  0.1799 -0.1559
26694W        W46228  11.043  18.123   4.546  0.0966  0.0413  0.0103
26695W        W46229   4.114  15.771   3.492  0.2308  0.2193 -0.2089
26696W        W46230  17.928   5.801  11.480 -0.5519  0.0023 -0.0995
26697W        W46231   9.187   0.320  14.282  0.1808 -0.3326 -0.1649
26698W        W46232  18.237  11.461   0.285  0.3463  0.2013 -0.0218
26699W        W46233   6.876   6.652  11.970 -0.0826 -0.0383  0.1510
26700W        W46234  15.828   8.374   2.504 -0.0879 -0.1786  0.0967
26701W        W46235   6.509   2.131  12.033  0.1293  0.0245  0.1248
26702W        W46236   9.706   2.763  12.729 -0.0728 -0.1366 -0.3889
26703W        W46237  12.725  16.526  15.439  0.1696 -0.1507 -0.2251
26704W        W46238   1.387   9.241   3.167  0.2672 -0.1218 -0.1569
26705W        W46239   6.255   2.303  14.438  0.0790 -0.4371 -0.0115
26706W        W46240   4.195  18.179   1.099 -0.1927  0.1758  0.2827
26707W        W46241   9.027   6.812   0.318 -0.2290 -0.3079  0.1386
26708W        W46242   7.535   5.311   1.663  0.3027  0.2000 -0.3015
26709W        W46243   5.754  11.729  14.361 -0.3492  0.0644  0.0326
26710W        W46244  12.619  14.947  13.471 -0.0817 -0.0533  0.2844
26711W        W46245  10.017  13.864   3.857 -0.2302 -0.1946 -0.0541
26712W        W46246   7.254   0.317   1.725 -0.1178  0.1284  0.0319
26713W        W46247   6.009  17.353   0.975 -0.1048  0.3880 -0.2280
26714W        W46248   8.699  16.501   1.929  0.3140 -0.1222 -0.2841
26715W        W46249   3.177   0.855  12.057  0.1073  0.2370  0.0963
26716W        W46250   8.487  16.515  12.556  0.4198 -0.1913 -0.1167
26717W        W46251  15.158  13.041  11.935 -0.0708  0.2229 -0.0774
26718W        W46252  14.969   5.485   3.630  0.2739 -0.2167 -0.0178
26719W        W46253  17.985  11.040   1.873  0.2220 -0.3724 -0.3118
26720W        W46254   2.598  10.047  13.186  0.2760  0.2176 -0.0172
26721W        W46255  13.791   5.611   2.805  0.1001 -0.2243 -0.3755
26722W        W46256   1.674   8.819  14.690  0.0695 -0.0591 -0.1991
26723W        W46257   3.899   8.458  12.010  0.2305  0.1922  0.1179
26724W        W46258  14.614   8.822   2.786 -0.2056 -0.0141 -0.2729
26725W        W46259   3.008  11.217   4.071 -0.2970  0.1914  0.1625
26726W        W46260   6.510  16.587   0.949 -0.3887  0.2968 -0.1245
26727W        W46261   7.501   7.199   4.006  0.0575  0.2474 -0.2306
26728W        W46262   4.298   7.283  12.533  0.1477 -0.1130  0.1143
26729W        W46263   4.400  17.271  15.558  0.1812 -0.2082 -0.2683
26730W        W46264   8.860   4.177  11.482 -0.1456 -0.0969 -0.1110
26731W        W46265   3.359   3.815   1.837 -0.0571 -0.0542  0.0711
26732W        W46266   8.802  13.396   1.340  0.1231 -0.2244  0.0315
26733W        W46267   7.434  14.681   3.628  0.0157  0.1186 -0.3653
26734W        W46268   1.330   2.687   4.507 -0.1509  0.0765  0.1268
26735W        W46269   6.474  14.590   2.033  0.0153 -0.0683  0.2598
26736W        W46270   0.556  13.353   3.859  0.0931  0.0231  0.1564
26737W        W46271   2.464   5.329  10.761  0.0619 -0.1356 -0.1760
26738W        W46272  18.290  12.475   3.062 -0.1300  0.1155  0.0999
26739W        W46273  15.026  11.835  13.929 -0.3221  0.1176 -0.0743
26740W        W46274   6.026  14.887   1.946 -0.0859  0.3232 -0.1247
26741W        W46275   1.318  13.833   3.084 -0.1872 -0.1521 -0.3076
26742W        W46276  17.460   7.769  14.160 -0.3085  0.0135  0.2675
26743W        W46277   8.692  15.197   3.264 -0.4830 -0.0632 -0.0296
26744W        W46278   2.867  12.866  14.249  0.3118  0.0740  0.0667
26745W        W46279   8.791  13.377  11.823  0.0763  0.0418  0.2515
26746W        W46280   0.106   3.435   3.179  0.1403  0.0638 -0.0469
26747W        W46281   7.843   6.186  12.920 -0.2580  0.2499 -0.0573
26748W        W46282  10.071   3.062  12.003 -0.1926  0.0805 -0.3157
26749W        W46283   5.134  13.550   3.043 -0.0908 -0.1616  0.1333
26750W        W46284   8.083   6.616  12.860  0.0981 -0.0771 -0.0357
26751W        W46285   1.960   3.421   3.192 -0.1568 -0.0947 -0.2233
26752W        W46286  15.273  14.142   0.445  0.0859 -0.0697  0.0372
26753W        W46287   0.844  17.162  13.093 -0.1970  0.0015  0.1276
26754W        W46288   1.293  16.918  13.386  0.2762 -0.1426  0.0754
26755W        W46289   1.646  17.797   3.774  0.0065  0.0083 -0.0609
26756W        W46290   5.405   3.705   1.725 -0.0632 -0.0587 -0.0850
26757W        W46291   5.210  17.837   2.363  0.0368 -0.0182  0.1362
26758W        W46292   8.861   5.481  13.534 -0.0343 -0.1226 -0.2165
26759W        W46293  16.577   7.150  13.211 -0.0392  0.0609 -0.1357
26760W        W46294  17.328   7.975  12.393 -0.0885 -0.0352 -0.2064
26761W        W46295   3.596   5.677   4.035 -0.2437  0.1429  0.2129
26762W        W46296  17.802  13.930   3.688 -0.0698  0.1563 -0.0732
26763W        W46297   5.675   0.059  12.556 -0.1878 -0.0303  0.1809
26764W        W46298   0.876  13.246   4.255 -0.0052 -0.0385  0.1473
26765W        W46299  11.027   2.960  14.025 -0.0245  0.0499 -0.1188
26766W        W46300  13.590   4.149  15.689 -0.2318 -0.0971 -0.0492
26767W        W46301   3.256  13.141   4.318 -0.1900  0.2170 -0.2802
26768W        W46302   2.530  15.916   0.112  0.0020 -0.2277 -0.0028
26769W        W46303   3.782   0.063   3.625 -0.1377  0.3509  0.0925
26770W        W46304  10.304   1.349  15.102  0.1276 -0.0107 -0.2043
26771W        W46305   0.370   0.794  12.184 -0.0246  0.1122  0.1122
26772W        W46306  13.886   9.070  12.809  0.0214  0.1277  0.1564
26773W        W46307   7.592  15.404  11.581 -0.3495 -0.0120 -0.0415
26774W        W46308   1.977  15.766  11.501  0.3425  0.0667  0.1915
26775W        W46309   9.853   3.363   2.047 -0.1991 -0.0495 -0.1374
26776W        W46310  11.720   9.237  13.892 -0.1520 -0.6437  0.0063
26777W        W46311  11.040  12.198  15.263  0.0711 -0.0679  0.2065
26778W        W46312   0.160   9.916   3.040  0.0659  0.2443  0.4968
26779W        W46313  16.998   5.753  15.083 -0.1249  0.0769 -0.0033
26780W        W46314  17.587   1.183  15.334  0.1824  0.0709 -0.0318
26781W        W46315  15.857  12.370   1.456  0.0737 -0.2983  0.3424
26782W        W46316   0.118  17.281  15.307  0.1890  0.3694 -0.2955
26783W        W46317   6.279   5.401  12.333 -0.0229  0.0223  0.1266
26784W        W46318   2.577  11.242   1.623  0.3680  0.0715  0.1873
26785W        W46319   2.357  14.268   1.746  0.0464 -0.2029 -0.4402
26786W        W46320   3.458   3.130  15.201 -0.2997 -0.4090 -0.0101
26787W        W46321   2.013  15.469   4.263  0.0996 -0.1603 -0.1919
26788W        W46322  14.781   9.811  14.675 -0.0564 -0.0605  0.0773
26789W        W46323  15.775  11.993   1.176  0.2051 -0.0241  0.0968
26790W        W46324  11.177  12.566   2.859  0.3300 -0.1084 -0.0555
26791W        W46325  12.409   5.641   4.761 -0.0280 -0.0495 -0.2556
26792W        W46326   7.014   8.193   0.059 -0.0645  0.0151 -0.1109
26793W        W46327   5.027   7.441   4.460 -0.1467 -0.0936  0.0073
26794W        W46328  10.156  12.223  15.383 -0.1961  0.0352  0.0968
26795W        W46329   2.300   1.198   1.270  0.1922  0.2420  0.1820
26796W        W46330   6.553   3.723  13.840  0.1732  0.1115 -0.4617
26797W        W46331   0.331   1.942  11.903 -0.1497 -0.0368  0.0245
26798W        W46332   5.052  11.733   0.444  0.1614  0.0277 -0.1791
26799W        W46333   3.087  17.900  14.533  0.0033  0.2585 -0.2614
26800W        W46334  17.321  13.317   4.686 -0.1549 -0.2999 -0.0399
26801W        W46335   9.515   8.479   3.271 -0.6230  0.0267 -0.1023
26802W        W46336  13.376   1.828   2.537 -0.0078 -0.0079 -0.1443
26803W        W46337  16.952  10.650   4.186 -0.1570 -0.0685  0.0045
26804W        W46338  11.852  17.941  14.484  0.0957 -0.1517 -0.1997
26805W        W46339  12.431   7.678   2.125 -0.1368 -0.1422 -0.2443
26806W        W46340  12.853  15.823  15.764  0.4131  0.0428  0.3732
26807W        W46341  14.714   6.591   1.041  0.1425 -0.2161  0.1133
26808W        W46342  17.276   7.620   1.866  0.3957 -0.1950  0.0826
26809W        W46343  17.677   2.072   0.878 -0.1747 -0.1620  0.2521
26810W        W46344  15.041  16.413  14.936  0.0727  0.1885  0.0096
26811W        W46345   7.946   9.342   1.124  0.0128 -0.0153  0.0119
26812W        W46346  16.348  18.105  15.779 -0.0603  0.0590  0.0278
26813W        W46347  15.667  11.317  15.483 -0.1118 -0.0212 -0.0897
26814W        W46348  10.012   4.132  12.407  0.0434 -0.1875  0.0161
26815W        W46349  10.399  12.730   4.960 -0.0712 -0.0577  0.0492
26816W        W46350  16.227  14.922  12.680  0.1090 -0.2787  0.1033
26817W        W46351   5.463   6.184   4.472  0.0491 -0.0375  0.2114
26818W        W46352   1.554  15.376   1.836 -0.0211  0.0922  0.1643
26819W        W46353  16.671  11.983   2.676  0.0910 -0.1611 -0.0275
26820W        W46354  15.099  11.492   4.514  0.2262 -0.1958  0.0834
26821W        W46355  15.472  14.807   1.875 -0.2365  0.1913 -0.2343
26822W        W46356   3.936   6.378   5.640 -0.0071 -0.0729  0.0047
26823W        W46357   7.399  14.570  15.021 -0.1448 -0.1418 -0.0360
26824W        W46358  12.043   9.699   3.111  0.0124 -0.1816 -0.2591
26825W        W46359   8.475   2.108   4.586 -0.0373  0.2317  0.2029
26826W        W46360  17.832   5.297  12.838 -0.0064 -0.0942  0.2423
26827W        W46361   8.926   0.844   1.988  0.0025  0.2654 -0.1970
26828W        W46362   6.367  11.507  11.938 -0.0848  0.3040  0.2146
26829W        W46363  11.979   1.773   1.810  0.0999  0.0724 -0.0186
26830W        W46364  17.922   4.432  14.112 -0.1873 -0.1135 -0.2241
26831W        W46365  11.412   9.519   3.062  0.1271 -0.2999 -0.1328
26832W        W46366   8.775   3.519  12.861  0.0447  0.0578  0.1922
26833W        W46367  11.990  14.276  13.809  0.0972 -0.1782  0.0321
26834W        W46368   0.492   5.875  11.779 -0.2416  0.0883  0.2244
26835W        W46369   6.448   6.712  15.425 -0.1309 -0.4022 -0.0585
26836W        W46370   8.453   2.699  12.908 -0.2927  0.0487 -0.1237
26837W        W46371  14.470   3.131   0.663 -0.0070  0.0120 -0.1737
26838W        W46372   6.660  18.215  15.763 -0.0937 -0.1200 -0.0782
26839W        W46373   7.938  14.149  12.802  0.1688  0.0312  0.1200
26840W        W46374   9.170   4.577  11.406  0.0671  0.1779 -0.0617
26841W        W46375  10.171   6.997  12.600  0.0672  0.0062  0.0056
26842W        W46376   1.547   6.610  13.267 -0.1067  0.0721  0.2226
26843W        W46377  10.464  16.624  10.672  0.1328  0.1439 -0.1230
26844W        W46378   9.091   5.333   4.822 -0.1959 -0.0891  0.2853
26845W        W46379   9.908   2.635  10.649 -0.3875 -0.3072  0.1174
26846W        W46380  15.469   5.939   1.635  0.0634  0.3889  0.1444
26847W        W46381   5.790   1.193   2.220  0.1212 -0.1169  0.0258
26848W        W46382  14.501   4.743   3.830 -0.2136 -0.1559  0.1336
26849W        W46383   1.839  10.921  13.936 -0.3473 -0.0476 -0.1043
26850W        W46384   4.077  17.134  12.665 -0.0454 -0.0744 -0.3795
26851W        W46385   9.575  17.771   1.619 -0.1728 -0.0029 -0.2539
26852W        W46386   7.391  18.301  11.984 -0.1829 -0.0089  0.0585
26853W        W46387  18.322  16.050   1.757  0.2137 -0.0168 -0.0927
26854W        W46388   8.449  11.975  11.531  0.0065  0.2766 -0.3462
26855W        W46389   0.287  17.261  14.771 -0.4168  0.1968 -0.0149
26856W        W46390  13.206  18.193   2.547  0.0962  0.0868 -0.0240
26857W        W46391  17.778  13.413   1.904  0.1851  0.0300 -0.2981
26858W        W46392  17.160  10.857  15.755 -0.2989 -0.1022  0.1598
26859W        W46393   2.700  17.580  15.511  0.1022 -0.0326 -0.2008
26860W        W46394   9.820  13.063  15.000  0.5752  0.3763 -0.0492
26861W        W46395   6.387   6.956   1.860 -0.2346  0.2338  0.0418
26862W        W46396  15.960  14.773   0.771 -0.0785 -0.0148 -0.0828
26863W        W46397  16.648   3.172   0.476 -0.2609  0.0185  0.2265
26864W        W46398   2.837  10.348   3.465 -0.1354  0.1325  0.2803
26865W        W46399  14.181  17.960   4.693 -0.0935 -0.1497  0.0605
26866W        W46400   6.084   0.227  11.066  0.2551  0.1294 -0.1312
26867W        W46401   7.707   9.824   1.122  0.0443  0.2783  0.0950
26868W        W46402   2.453   8.282   1.231  0.2422  0.0693  0.0499
26869W        W46403  12.223  15.986  14.571  0.0312  0.2171  0.0142
26870W        W46404   8.109   4.983  15.546 -0.5749  0.0847 -0.0126
26871W        W46405   4.909   5.009   3.633  0.1144  0.0466  0.1421
26872W        W46406  10.450  14.573  14.861 -0.0053 -0.1446 -0.2393
26873W        W46407  10.727  15.534  14.143 -0.1821 -0.0172 -0.0931
26874W        W46408   7.286  17.198  15.719  0.3003  0.1119 -0.0342
26875W        W46409   1.335   4.340  12.563 -0.2940  0.1939 -0.1105
26876W        W46410  15.122   0.348  12.040  0.0294  0.1078  0.0391
26877W        W46411   0.517  16.002  15.727 -0.2171  0.0616 -0.3698
26878W        W46412   9.046   7.202   0.814  0.0019 -0.0665  0.3266
26879W        W46413   0.093  17.193  14.312 -0.0495  0.0244 -0.0965
26880W        W46414  17.194  10.180   0.669 -0.0801  0.2835 -0.1329
26881W        W46415  13.169  14.420   3.532  0.2954 -0.1155  0.2276
26882W        W46416  16.967  17.151   0.859 -0.2318  0.0696  0.1284
26883W        W46417   6.030   7.890   3.491  0.0076 -0.2023 -0.0763
26884W        W46418   9.352   6.286  11.924 -0.0421  0.0330  0.1139
26885W        W46419  13.537  17.015  11.411  0.2419 -0.0479  0.1567
26886W        W46420   3.717  15.147   1.265  0.1299 -0.0310 -0.2077
26887W        W46421  13.987  17.189  14.170  0.0622  0.2540  0.0149
26888W        W46422   8.569  12.549  15.013 -0.1461 -0.0255 -0.0410
26889W        W46423  15.514  15.810   0.262 -0.3773 -0.1684 -0.0806
26890W        W46424   2.360   0.703   1.197  0.0494  0.3206 -0.0995
26891W        W46425  10.681   6.518   4.301 -0.0736 -0.2157 -0.0923
26892W        W46426   3.814  16.843  14.459 -0.1098  0.0820 -0.1218
26893W        W46427  10.511   4.170  14.009 -0.1393 -0.2232  0.0978
26894W        W46428  16.521   8.954   2.944  0.1410 -0.1375  0.3285
26895W        W46429   6.956  18.131   1.055  0.0885  0.1065  0.0733
26896W        W46430  17.321   3.042   2.269 -0.0410 -0.1578 -0.1684
26897W        W46431  14.460  17.233   0.935  0.1582  0.2273 -0.0335
26898W        W46432  14.582  12.525  15.114 -0.0272 -0.2016  0.0992
26899W        W46433   5.133  11.270  12.848 -0.1076 -0.0965 -0.3636
26900W        W46434  17.637   9.285  13.561 -0.1313  0.1173  0.0347
26901W        W46435  13.635   7.357   1.585  0.2857 -0.2928 -0.0296
26902W        W46436  16.954  15.542   1.313 -0.0792  0.1207  0.1674
26903W        W46437  15.116  12.826  10.973 -0.0744  0.1023  0.2140
26904W        W46438  11.793   3.159  12.938 -0.0769  0.0805 -0.0447
26905W        W46439   2.911  17.756  13.332  0.2067  0.0872 -0.2004
26906W        W46440  12.360   3.023  13.207  0.4479  0.1240  0.0649
26907W        W46441  17.360  15.598   2.611  0.2892  0.1390 -0.3769
26908W        W46442   4.038   7.080  11.488  0.2184  0.0805  0.2131
26909W        W46443   5.336  14.475  14.347  0.1402  0.1089  0.0500
26910W        W46444   6.330  18.325  11.941  0.0953  0.2713  0.1063
26911W        W46445   2.204   9.067   5.506 -0.3028 -0.1246  0.1325
26912W        W46446   9.379  16.378  12.282 -0.0344  0.0744 -0.0005
26913W        W46447  17.278  12.802   3.786 -0.3297  0.1231  0.1093
26914W        W46448  18.344   3.488  13.047  0.2261  0.1036  0.0603
26915W        W46449   9.292  15.590   0.284 -0.0024  0.0014  0.3789
26916W        W46450  12.623  17.306  12.481 -0.1936  0.3331  0.0601
26917W        W46451   0.184  15.098   1.206  0.3449  0.2606  0.2203
26918W        W46452  17.296   2.047  11.846 -0.1806  0.1807 -0.0267
26919W        W46453   8.402  13.344   1.023  0.0579  0.0519  0.0251
26920W        W46454   5.557   0.196   2.971  0.1554  0.2107  0.1776
26921W        W46455  15.323   7.974  14.748 -0.2399 -0.2143 -0.2873
26922W        W46456  16.917   4.418  11.547 -0.0607  0.4738  0.0702
26923W        W46457   0.405  17.116  13.342  0.2222 -0.0135 -0.2243
26924W        W46458  16.874   6.367   0.958  0.0405  0.0525 -0.2043
26925W        W46459   2.261  11.090  12.200 -0.1104  0.0348  0.0782
26926W        W46460  12.131   5.731  12.292  0.2986 -0.2826 -0.0773
26927W        W46461   7.006  17.858   1.883  0.1260  0.0430  0.0338
26928W        W46462   5.013   0.073   1.538 -0.2677 -0.4122  0.0638
26929W        W46463   4.802   5.145   1.429 -0.1645  0.1334 -0.0935
26930W        W46464  15.217  12.819   0.346 -0.2277 -0.2077  0.1328
26931W        W46465  15.502  10.940  11.123  0.1444 -0.2430  0.1892
26932W        W46466  12.590  16.214  11.493 -0.2390  0.1792  0.0354
26933W        W46467   1.407  10.673  11.933  0.0251 -0.0621  0.4878
26934W        W46468   0.887   2.382   1.827 -0.0160  0.2855  0.1249
26935W        W46469  10.430  15.096   2.053 -0.1026 -0.1901 -0.0441
26936W        W46470  12.701   4.209  13.681  0.0103  0.0176 -0.2079
26937W        W46471   7.091  13.380   2.684  0.2342  0.0418  0.0107
26938W        W46472   2.244  13.178   2.500  0.1598  0.1211 -0.1205
26939W        W46473  12.922   4.112  14.301 -0.2169  0.3998  0.1147
26940W        W46474  10.502   2.582   1.207  0.0501 -0.1973  0.2179
26941W        W46475   7.105  16.077  11.509  0.0799  0.0446 -0.2357
26942W        W46476   3.227   4.436  14.862  0.1158 -0.1035 -0.2068
26943W        W46477   0.286   6.678   1.999  0.2270 -0.0885  0.0135
26944W        W46478   0.801   2.844   1.935 -0.2104 -0.0868 -0.0849
26945W        W46479   6.653   4.571   0.236  0.3500  0.4624  0.2766
26946W        W46480   7.820   2.007  12.443  0.2751 -0.0910  0.1741
26947W        W46481  10.379  12.462   1.328 -0.1336  0.0971  0.3345
26948W        W46482  10.912  13.026  14.461  0.0302 -0.3568 -0.1018
26949W        W46483   3.619  12.257   3.939  0.1042  0.1516  0.1146
26950W        W46484  10.921  12.323  14.787  0.1374 -0.0179 -0.0387
26951W        W46485   4.944   6.954  11.852  0.2033 -0.4563 -0.1133
26952W        W46486   9.633  13.494  15.068  0.0911 -0.0097 -0.0805
26953W        W46487   3.015   4.002   2.735 -0.1777  0.2868 -0.1682
26954W        W46488  18.354   2.113  14.702  0.1526 -0.3216 -0.0962
26955W        W46489   8.820  10.527   3.455 -0.1566 -0.0539  0.0316
26956W        W46490   8.833  13.122  12.616  0.0393 -0.1282 -0.2647
26957W        W46491  13.814  13.645   4.691 -0.1805  0.0523 -0.1463
26958W        W46492   9.559  10.538   4.169 -0.0291 -0.1984 -0.0026
26959W        W46493  15.564  11.908  15.648 -0.2210  0.0559  0.2277
26960W        W46494  17.360   7.296  13.678  0.2437 -0.0285 -0.1718
26961W        W46495   5.657  16.417   4.243 -0.0680  0.1358 -0.1552
26962W        W46496  17.795   9.529   2.098 -0.0594 -0.1310 -0.0758
26963W        W46497   2.833   6.217  13.093  0.2379 -0.1645 -0.0618
26964W        W46498  18.368   5.052  11.966  0.0018 -0.1492 -0.1318
26965W        W46499   7.105   8.440  15.447  0.3088 -0.2177 -0.1292
26966W        W46500   7.302  16.908  13.092  0.3688 -0.1359 -0.1500
26967W        W46501   5.953  18.195  15.754  0.0619  0.0787 -0.2064
26968W        W46502   7.169  14.216   3.169 -0.2099 -0.1268 -0.0705
26969W        W46503   6.826  14.038  12.450 -0.0933 -0.1758  0.0640
26970W        W46504   6.104  10.506   1.669 -0.1844 -0.3119 -0.1737
26971W        W46505   1.919  12.382  15.391 -0.0381  0.1398 -0.0488
26972W        W46506   6.546  16.050  11.453  0.0077 -0.1326  0.1532
26973W        W46507  11.482   9.882   0.917  0.3184  0.0874 -0.0364
26974W        W46508  17.352   5.278   1.719  0.2003 -0.1991 -0.2729
26975W        W46509  17.960   2.066   0.426  0.1196 -0.0812 -0.0926
26976W        W46510  17.292   6.921   2.548  0.1548 -0.0508 -0.2190
26977W        W46511   6.289   6.808   1.276  0.2798 -0.2633 -0.2361
26978W        W46512  15.246  16.232   3.109  0.2498 -0.0760  0.1161
26979W        W46513   6.769  12.423  14.225  0.2339  0.2039  0.1443
26980W        W46514  13.117  13.173   1.492  0.0481  0.0132  0.1877
26981W        W46515  11.440  13.063  14.229 -0.3792  0.1364  0.4769
26982W        W46516   0.240  10.298  13.439 -0.0058 -0.0718  0.4453
26983W        W46517   9.824   4.232   3.611 -0.1535 -0.1317  0.0875
26984W        W46518   8.997  10.683   2.265 -0.0844  0.1097  0.0751
26985W        W46519   8.275   2.000   4.086  0.1668  0.0780 -0.1388
26986W        W46520  14.526  17.241  14.362 -0.3282 -0.0399  0.0726
26987W        W46521  15.682  12.743   2.627 -0.0758  0.0930  0.3077
26988W        W46522   2.597   6.460  14.433 -0.1451 -0.1988 -0.0633
26989W        W46523   1.117   6.471  12.364  0.0021 -0.2239  0.0504
26990W        W46524   2.353   3.142  14.358 -0.1847 -0.0227 -0.3058
26991W        W46525  17.524   4.237  12.425  0.2177  0.1848  0.1157
26992W        W46526   1.854   5.313   4.529 -0.4307  0.0332 -0.2535
26993W        W46527  17.122   4.983  14.140  0.0544  0.0982  0.0114
26994W        W46528  11.386  10.546   4.186  0.0826 -0.0209 -0.1820
26995W        W46529  10.080   4.813  13.992  0.1485  0.2345  0.0561
26996W        W46530   7.986   0.648  13.025  0.0090 -0.2660 -0.2931
26997W        W46531   6.382  15.855   3.028 -0.0556 -0.2122 -0.1095
26998W        W46532  12.707   5.523   2.651  0.0520  0.4664 -0.3194
26999W        W46533   2.668  18.104   0.519  0.1225  0.1619  0.0269
27000W        W46534  16.127   6.872  11.961 -0.0735 -0.0174 -0.1236
27001W        W46535  10.592  16.309  12.788 -0.1887  0.2158 -0.0227
27002W        W46536  12.762  14.476   3.892  0.0178 -0.1444 -0.1813
27003W        W46537   0.850   1.868   2.106 -0.1638  0.2080 -0.0031
27004W        W46538  15.768  12.473  11.512  0.2251  0.1277  0.3321
27005W        W46539   2.329   6.630   0.946  0.1768  0.3592 -0.0769
27006W        W46540  18.178  15.590  12.359  0.2480  0.0068 -0.1522
27007W        W46541  13.560  10.231   2.292  0.3026 -0.1497 -0.2947
27008W        W46542   5.376   2.269  11.437 -0.1492  0.0082  0.2471
27009W        W46543   0.896   0.463   2.594 -0.0036  0.0544  0.0280
27010W        W46544   4.152   4.402  15.594 -0.0294  0.0416  0.0597
27011W        W46545  14.617   6.777   2.285 -0.2886 -0.0088 -0.2748
27012W        W46546  17.330   5.166   3.924 -0.0632  0.1118  0.0019
27013W        W46547  13.309   8.477  14.167  0.0667 -0.2996  0.3563
27014W        W46548   0.664  10.519  15.794  0.3552 -0.2280  0.2523
27015W        W46549   5.955  12.216  11.651 -0.0055 -0.0763 -0.3306
27016W        W46550  14.318  18.000   3.782  0.4782 -0.4044  0.0430
27017W        W46551  16.984   0.462   0.999 -0.0350 -0.0179 -0.0855
27018W        W46552   4.646  15.032   2.063  0.1331  0.3291  0.1609
27019W        W46553   2.734  18.248  14.369 -0.0925 -0.2480 -0.0293
27020W        W46554   4.974  15.831  13.278 -0.0643  0.2282  0.0053
27021W        W46555   8.705   5.889  15.668  0.1916  0.4838 -0.1172
27022W        W46556  16.485  10.487   0.695  0.1219 -0.0056  0.2698
27023W        W46557  11.410  12.655  15.430  0.2357 -0.1211 -0.0502
27024W        W46558   9.904   2.731   1.313  0.0349  0.0960 -0.0429
27025W        W46559  14.994   7.568   0.049  0.0147 -0.1009  0.1327
27026W        W46560   1.938   0.344   1.282 -0.1019 -0.0988  0.0340
27027W        W46561  12.191   0.385   3.401  0.1518  0.0559  0.1896
27028W        W46562   7.724   3.715   2.708 -0.1923  0.0293 -0.1786
27029W        W46563   5.770   7.381   5.570  0.2806  0.0497  0.2132
27030W        W46564   8.913  16.207  12.395  0.0296 -0.0418  0.3168
27031W        W46565   2.239   2.039  14.228  0.1027  0.2509 -0.2915
27032W        W46566  11.137   0.851   2.333  0.1243  0.3769 -0.1534
27033W        W46567   6.015   6.636   2.765 -0.0435 -0.1356 -0.2160
27034W        W46568   4.707   5.679   2.746  0.5897 -0.2508 -0.1218
27035W        W46569   4.883   0.492  15.222 -0.1637 -0.2184  0.1343
27036W        W46570   0.745  12.955  15.811 -0.0362 -0.0649  0.0848
27037W        W46571   9.490  13.793   0.442  0.0631 -0.1211  0.2016
27038W        W46572   2.131   7.811   2.369  0.2404 -0.0978  0.1957
27039W        W46573   3.027   7.063  12.695  0.0685  0.1003  0.0515
27040W        W46574   3.603  10.600  11.702 -0.0352 -0.0555 -0.1096
27041W        W46575   6.976   1.998   4.086 -0.0728 -0.0693 -0.0235
27042W        W46576   0.665  15.627   2.820  0.2354 -0.0231 -0.1446
27043W        W46577   7.315   7.237   2.249 -0.0418  0.0613 -0.0666
27044W        W46578   2.617   7.333  15.402 -0.0142  0.0485  0.1400
27045W        W46579   4.171   7.320   4.757  0.0727  0.2806  0.0112
27046W        W46580   2.997   9.146   1.763  0.0634  0.0354  0.0522
27047W        W46581   0.663   0.802   5.206 -0.1260 -0.2051 -0.1318
27048W        W46582   4.805   1.844   2.861 -0.2958  0.1439 -0.0826
27049W        W46583   8.268   9.909   3.483  0.1227 -0.1679  0.0466
27050W        W46584  18.372   2.004   0.784 -0.1572 -0.0142 -0.0924
27051W        W46585   3.330  14.366   4.522 -0.1324 -0.0862  0.0004
27052W        W46586   6.959  11.283  14.407  0.1095 -0.4047 -0.2080
27053W        W46587   9.219   2.852  15.003 -0.0529 -0.1360 -0.0521
27054W        W46588   5.190   9.550  13.977  0.2124 -0.0085  0.0348
27055W        W46589   1.056   8.466  11.065  0.1616  0.0773  0.1054
27056W        W46590  13.689  13.774  13.510  0.1615  0.0068 -0.0252
27057W        W46591   1.999  13.831  13.199  0.1298  0.0916 -0.0990
27058W        W46592   9.743   5.697  15.746  0.1992 -0.0587  0.3639
27059W        W46593  17.445   4.845   0.984  0.0547 -0.0532  0.1195
27060W        W46594   0.551  13.652  13.155  0.0959 -0.0604  0.0924
27061W        W46595   0.624  14.923   1.059  0.1115  0.0265  0.0443
27062W        W46596   6.413   1.735  14.667 -0.0667 -0.1740  0.2356
27063W        W46597  16.578   2.560  13.244 -0.0380 -0.0856 -0.1374
27064W        W46598   6.923   2.786  12.882  0.0399  0.1552 -0.0065
27065W        W46599   3.018  11.496   3.670 -0.2495 -0.1695 -0.0685
27066W        W46600   1.910  16.294   2.677  0.1157 -0.1314  0.3794
27067W        W46601  17.910  13.986  13.851 -0.2538  0.1102  0.1430
27068W        W46602   2.014  12.693  12.580 -0.1877  0.2763  0.1332
27069W        W46603  12.711  14.432  15.427  0.2355  0.2456 -0.0956
27070W        W46604   7.532  10.628  13.929  0.1062 -0.2012 -0.1854
27071W        W46605  18.012   1.702  14.001 -0.0961  0.1252  0.2544
27072W        W46606  13.013  16.795   0.878 -0.3529 -0.1462 -0.0806
27073W        W46607  11.839   5.595   3.625  0.1982 -0.1670 -0.2888
27074W        W46608  10.314  12.413   3.051 -0.3349 -0.2618  0.0811
27075W        W46609   3.931  15.958  14.892  0.0516  0.0490 -0.0724
27076W        W46610  12.383   7.060   1.732  0.3317  0.2007  0.1220
27077W        W46611   4.355   3.899  12.012  0.0143 -0.2267  0.0240
27078W        W46612   3.056   4.239   0.924 -0.2201 -0.1136  0.2534
27079W        W46613   1.561  17.137  11.933  0.0020  0.3320 -0.1163
27080W        W46614  15.451   1.839   3.487 -0.0520 -0.0932  0.1172
27081W        W46615  13.494   6.518   0.421 -0.1169 -0.1115 -0.0378
27082W        W46616  18.242   5.113   3.615 -0.2284 -0.0927 -0.0265
27083W        W46617  13.517   1.261  11.561 -0.1540 -0.0716  0.0539
27084W        W46618   1.163   6.504  11.543  0.3057  0.3524 -0.1021
27085W        W46619  11.227   5.658  15.062  0.1052  0.0965  0.1471
27086W        W46620  10.358   8.282   2.188  0.0571 -0.0437 -0.0339
27087W        W46621  17.644   7.310  14.242  0.0077  0.1806 -0.1354
27088W        W46622  11.972  14.268   3.625  0.3256  0.0882  0.2481
27089W        W46623  11.724   6.666   0.061 -0.3485  0.1771 -0.2939
27090W        W46624   2.160   8.907  13.995 -0.1128 -0.0690 -0.0776
27091W        W46625   4.736   8.393   2.322  0.1078 -0.1798  0.4196
27092W        W46626   8.595  15.252  13.880 -0.2266 -0.0449  0.1354
27093W        W46627  10.636   2.800  12.261 -0.0599  0.1141  0.0012
27094W        W46628  15.298  12.295  11.562  0.0853 -0.1290 -0.0202
27095W        W46629   1.034   8.168  15.601  0.0546 -0.4052  0.0710
27096W        W46630  17.794   3.488  11.883  0.0505  0.0147  0.1912
27097W        W46631  11.387   0.362   2.740  0.1073  0.0774  0.0489
27098W        W46632   1.718   2.673   0.444 -0.0277  0.2457 -0.2901
27099W        W46633   1.173   9.503   4.024 -0.2324 -0.2093  0.0564
27100W        W46634  17.325   9.925   3.632  0.0904 -0.0506  0.5269
27101W        W46635  13.605   6.340   4.465  0.3068  0.1277 -0.0980
27102W        W46636   7.276   9.749   0.423  0.0334  0.2744  0.1283
27103W        W46637  17.681   0.990   1.910 -0.1976 -0.1784  0.1599
27104W        W46638   0.227   4.126   1.867  0.1669  0.1376  0.1718
27105W        W46639  13.689   5.372  14.795 -0.1010 -0.1711 -0.0218
27106W        W46640   6.794   7.700   1.629 -0.0535  0.1510  0.2312
27107W        W46641  11.475   3.299  13.317  0.1919  0.1455 -0.0348
27108W        W46642   2.816   9.966  15.419 -0.0131 -0.0090  0.1402
27109W        W46643  15.383   9.613  11.570 -0.2499 -0.1509  0.0825
27110W        W46644   5.154  13.672  13.741 -0.1775 -0.1212 -0.1289
27111W        W46645  12.696   7.502  12.161  0.3794  0.2267 -0.1045
27112W        W46646  16.309   2.526  14.099 -0.1799 -0.0548 -0.2347
27113W        W46647   7.213  17.887   2.853  0.0207  0.0814  0.1152
27114W        W46648   2.626   7.337   1.328  0.0828  0.0239  0.0413
27115W        W46649  16.209   9.572  13.366  0.1917 -0.0468  0.3678
27116W        W46650  15.746  13.587   2.433 -0.1594  0.1179  0.1153
27117W        W46651  12.061  13.147  10.617  0.0323 -0.0773  0.0591
27118W        W46652  14.201   1.449   4.760  0.3758 -0.0575  0.0509
27119W        W46653  12.578  13.401   2.452 -0.1927  0.0399 -0.0880
27120W        W46654  18.395   2.957   0.036 -0.1933  0.1135 -0.0508
27121W        W46655   7.614  15.490  14.971  0.0702 -0.0703  0.2580
27122W        W46656   3.958   9.957   0.454  0.3197  0.0913 -0.1149
27123W        W46657  10.261   3.184   1.755  0.2133 -0.0542 -0.2514
27124W        W46658   0.977  16.412   4.700  0.1511  0.1609  0.1559
27125W        W46659  14.203   5.597   3.453 -0.0678 -0.4167  0.1016
27126W        W46660  10.193  13.144  13.093  0.0320 -0.0304  0.1241
27127W        W46661   2.395  15.465  13.758 -0.2564  0.2349  0.1527
27128W        W46662  17.066   7.608   0.629  0.3384  0.0120  0.1664
27129W        W46663   3.004  13.734   3.774  0.3372 -0.1010  0.1417
27130W        W46664   7.547  12.368   3.062  0.3472  0.1157  0.1091
27131W        W46665   4.479  12.403   4.017 -0.2652 -0.2459  0.0012
27132W        W46666   5.228   0.496   1.690 -0.0127  0.2200  0.4416
27133W        W46667  10.456   7.231  15.265 -0.2166  0.0359  0.1125
27134W        W46668   9.829   2.109  14.929  0.0264  0.1581  0.0831
27135W        W46669   7.827  11.482   4.134 -0.1542  0.0181  0.3099
27136W        W46670   8.350  17.156   4.453  0.1698 -0.1213  0.1275
27137W        W46671  12.026   2.574   2.857 -0.1446  0.2312  0.0050
27138W        W46672  16.145  13.387   1.270 -0.0996  0.0806 -0.2412
27139W        W46673   8.270   7.651  14.707 -0.2462 -0.1974  0.2062
27140W        W46674  17.438   5.908  15.753  0.0983 -0.0593  0.1163
27141W        W46675   7.210   7.368   3.046 -0.0836  0.0223  0.0370
27142W        W46676   0.424  13.586  14.184  0.1962  0.1389 -0.0886
27143W        W46677   9.283   5.657  11.153 -0.0411 -0.0789 -0.0299
27144W        W46678  15.813   8.429  12.061 -0.2567 -0.0303 -0.2017
27145W        W46679  18.084   2.888   0.426 -0.0393 -0.2847 -0.0100
27146W        W46680   1.897  14.680  13.456 -0.3662 -0.1450  0.1097
27147W        W46681  12.650  14.998  11.996  0.1817 -0.0637  0.0916
27148W        W46682  16.678   0.425  14.179  0.0760 -0.0916 -0.0218
27149W        W46683   5.892   5.137  13.355  0.0285 -0.0361  0.1352
27150W        W46684  15.784   7.099  13.407  0.1458  0.0484  0.1528
27151W        W46685   9.377  15.517   4.983 -0.0016  0.6899 -0.1119
27152W        W46686   8.809   3.192   1.947 -0.0068  0.4615 -0.0715
27153W        W46687  11.474  15.763   0.093 -0.2423  0.1723 -0.0228
27154W        W46688  15.183   2.685  12.947 -0.2369 -0.1250  0.2103
27155W        W46689   3.477  16.659   1.741  0.1718 -0.0529 -0.0409
27156W        W46690   6.617  13.615  14.821 -0.0420 -0.0396  0.1150
27157W        W46691  16.798  12.244   2.254  0.2120 -0.2244  0.2560
27158W        W46692   2.197   9.712  14.343  0.2992  0.0540  0.2959
27159W        W46693  17.790   9.041  11.790  0.1285 -0.3760  0.2237
27160W        W46694   8.462  13.369  15.439 -0.0908  0.0659  0.0161
27161W        W46695   7.990   2.066  11.456  0.0769  0.0018 -0.0111
27162W        W46696   7.234  15.372  12.418  0.0688 -0.0208 -0.1816
27163W        W46697  12.038   2.559   2.382 -0.3398  0.1963 -0.2047
27164W        W46698   0.522  11.975  14.512 -0.3412  0.1377 -0.0153
27165W        W46699   0.662  13.625   5.263 -0.1493  0.0054 -0.0302
27166W        W46700   0.741   6.015   1.056  0.0724 -0.0282 -0.1433
27167W        W46701   8.325   6.355   0.977  0.0168  0.1547  0.1176
27168W        W46702  17.222  13.044  12.105 -0.0245 -0.1588  0.0945
27169W        W46703   0.988  12.787   2.187 -0.2084  0.3787  0.0748
27170W        W46704   4.594  17.519  15.148  0.2489  0.0141  0.1025
27171W        W46705  17.107   9.627  15.753  0.0762 -0.0950  0.1119
27172W        W46706  11.562   9.243   4.560  0.1980 -0.1709  0.2597
27173W        W46707  10.315   2.203  13.832  0.1133 -0.1525  0.1363
27174W        W46708   6.959  13.359  13.503  0.1048 -0.0929 -0.0606
27175W        W46709  11.544  17.194  14.897  0.2469  0.0009 -0.2346
27176W        W46710   6.848  15.677   2.862 -0.0457  0.1463  0.2726
27177W        W46711  15.467  17.102   3.545 -0.0873  0.1399  0.4648
27178W        W46712   8.307   8.318   0.164  0.0178 -0.0337  0.2453
27179W        W46713   0.172   1.935   3.414 -0.0234 -0.2536  0.0578
27180W        W46714  10.454   3.345  12.288 -0.0396 -0.1848 -0.0744
27181W        W46715   7.577   5.306  11.029 -0.3773 -0.1533  0.0387
27182W        W46716   9.990   8.607   2.445  0.1628  0.0132  0.1997
27183W        W46717   0.730   1.729  15.074  0.1012 -0.1844  0.0136
27184W        W46718   0.412   1.308  12.496 -0.2144 -0.0566  0.1890
27185W        W46719  12.814  15.346   1.159 -0.1933  0.2600  0.0657
27186W        W46720   8.263   1.199  12.331  0.1197 -0.0744  0.0695
27187W        W46721  17.124  16.324  14.557 -0.0646 -0.3917  0.2376
27188W        W46722   2.701   3.197  14.823  0.0897 -0.4435 -0.1417
27189W        W46723  17.985   7.820   3.093  0.2341  0.0969  0.0009
27190W        W46724   5.134  13.891  10.571 -0.0297  0.1267  0.0621
27191W        W46725   5.228  16.413   4.532 -0.0169  0.0193 -0.2710
27192W        W46726   9.837   6.230   3.916  0.1676  0.0085  0.2565
27193W        W46727   1.391  11.080   3.793  0.4780 -0.0390  0.1153
27194W        W46728   0.801   3.876  15.463 -0.2705  0.2661 -0.0489
27195W        W46729   6.080   2.129   3.727  0.0474  0.0221 -0.1444
27196W        W46730   9.247   0.694  15.115  0.0383  0.1164 -0.0365
27197W        W46731   8.242   7.389   3.343 -0.1599  0.3102  0.0376
27198W        W46732   7.653  16.687   5.050  0.3621 -0.2912  0.0355
27199W        W46733  14.342   4.566  12.574 -0.1202 -0.2866 -0.1080
27200W        W46734  14.005  12.474   0.349  0.0166  0.0895 -0.2120
27201W        W46735  13.855   9.640   2.306  0.0738  0.1097 -0.1256
27202W        W46736   6.475  13.011   4.985  0.2522 -0.0727  0.0067
27203W        W46737   3.153  12.040  14.785 -0.0863  0.2377 -0.0085
27204W        W46738  10.904   2.218  15.002  0.0865  0.1995  0.1359
27205W        W46739   4.601  12.109   4.485  0.0164  0.0366  0.0527
27206W        W46740   3.417   8.772   2.529  0.3130  0.1130  0.1140
27207W        W46741  17.624   3.681   1.670 -0.0617  0.1845  0.0397
27208W        W46742   1.278   4.187  11.781 -0.0454  0.0891 -0.0359
27209W        W46743  14.553   6.546  15.539  0.2058  0.0291 -0.0684
27210W        W46744   1.587   5.091   2.114 -0.0885  0.0224  0.1943
27211W        W46745   6.905  12.906  11.227 -0.2438 -0.1903 -0.2771
27212W        W46746  13.769   1.198   3.453  0.2148  0.0074  0.1638
27213W        W46747   1.751   9.886  12.138 -0.0918  0.0339  0.0512
27214W        W46748  16.754  17.750  15.624  0.2804 -0.0382  0.1043
27215W        W46749  11.696   1.438   5.072  0.1861  0.4511 -0.3008
27216W        W46750  10.442   5.747   3.363 -0.0486 -0.1101 -0.1818
27217W        W46751  15.342  15.753  14.647 -0.1861 -0.0450 -0.0015
27218W        W46752  11.508  16.897  12.054 -0.1991 -0.2304 -0.1844
27219W        W46753  11.671  13.677  15.424 -0.2658 -0.1318 -0.2110
27220W        W46754  12.697  13.679   0.356  0.0551  0.0668  0.3749
27221W        W46755  12.394   8.950  11.686  0.1209 -0.1135 -0.0608
27222W        W46756   2.280   9.902   1.372 -0.4684  0.0665 -0.2596
27223W        W46757  10.899   3.423  10.488 -0.2172  0.2785  0.0411
27224W        W46758  14.442   1.700   0.562 -0.0652 -0.1250  0.1211
27225W        W46759   7.964   5.631  15.273  0.1487  0.2569 -0.3382
27226W        W46760   4.611  12.695   4.397 -0.1527 -0.0408 -0.0283
27227W        W46761   1.544  15.872  11.262  0.2038  0.1291 -0.2527
27228W        W46762  11.572  13.650   2.241  0.1783 -0.1175  0.0264
27229W        W46763  11.765   3.088   1.217  0.3841 -0.0730 -0.5141
27230W        W46764   7.794   4.111   2.347 -0.0369  0.1795 -0.0230
27231W        W46765   0.043   7.081   0.936 -0.4951  0.2178 -0.1093
27232W        W46766   9.270  10.670  13.420 -0.0869  0.0853 -0.0625
27233W        W46767  11.787  10.183  14.022  0.0392  0.3416 -0.0799
27234W        W46768   3.984  11.142  14.695  0.0099 -0.0731 -0.3104
27235W        W46769   8.926   6.922   2.508  0.1433 -0.2282 -0.1749
27236W        W46770  10.024  11.045  13.097  0.1700 -0.0396 -0.0122
27237W        W46771   3.939   1.877   0.451 -0.0438  0.0956  0.0018
27238W        W46772   3.377  10.549  15.742 -0.0133  0.0246  0.2558
27239W        W46773   8.427   9.700  14.787  0.1956  0.0388 -0.4505
27240W        W46774  12.335  10.094   3.163 -0.0847  0.0215  0.2484
27241W        W46775  14.818  16.582   1.408 -0.0007  0.0006  0.0376
27242W        W46776   0.081   4.450  12.820  0.3121  0.0476  0.1546
27243W        W46777  14.682  16.957  12.263  0.1158  0.1498 -0.0702
27244W        W46778   0.362  12.422   2.176 -0.1148 -0.0882 -0.2360
27245W        W46779  11.580  10.837  12.240  0.3399  0.1768 -0.2330
27246W        W46780   8.348   7.051   1.515 -0.4541 -0.0184 -0.1801
27247W        W46781  12.091   3.709  11.669 -0.0467  0.1444  0.0435
27248W        W46782   2.570   2.390   2.582  0.1086 -0.0449  0.0889
27249W        W46783   7.642  12.183  11.361 -0.2423  0.1078 -0.1576
27250W        W46784   2.288  17.016   2.483 -0.1496  0.0104  0.0544
27251W        W46785  15.629   1.200   1.224  0.2348 -0.1536 -0.0226
27252W        W46786   6.047   5.754   1.686  0.1287  0.4387  0.1779
27253W        W46787   6.948  14.990  15.172  0.2733 -0.1411 -0.3758
27254W        W46788   6.769   9.262   2.624  0.1999 -0.1708  0.2872
27255W        W46789  10.930   3.606  11.914 -0.0762  0.1908  0.3595
27256W        W46790   2.089  14.944   2.910  0.0587 -0.1102 -0.0933
27257W        W46791  12.375   0.729   1.156  0.3274 -0.0264 -0.0429
27258W        W46792  16.474   2.407  10.899 -0.0178  0.2047 -0.0806
27259W        W46793  11.913  18.349  13.411 -0.1039 -0.3068  0.3535
27260W        W46794   1.737   6.084   4.638  0.1133 -0.1138  0.0273
27261W        W46795  15.660   2.684  12.742  0.1147  0.1854  0.0431
27262W        W46796   0.245   2.624  15.519 -0.0376 -0.1741  0.1201
27263W        W46797   7.020  10.205   3.586 -0.0859  0.2039  0.1644
27264W        W46798  16.310  12.829  15.249  0.3645  0.2265 -0.0384
27265W        W46799   6.179  10.576  13.891  0.2439 -0.1863 -0.1154
27266W        W46800  13.447  10.848  15.617 -0.2803  0.0589  0.1537
27267W        W46801   5.933  12.860   4.544 -0.2159  0.1085  0.1947
27268W        W46802  16.293  18.024   2.158 -0.1887  0.0884 -0.2294
27269W        W46803   7.787  13.031   0.437  0.2017 -0.1009  0.2497
27270W        W46804  16.066  13.423   3.132  0.0347 -0.3862  0.1447
27271W        W46805   6.314  13.589  14.064 -0.2968  0.0961 -0.0788
27272W        W46806   3.280   4.169  13.044 -0.0337  0.0952 -0.1028
27273W        W46807   2.752   0.080  13.006  0.2527 -0.0607 -0.0382
27274W        W46808  13.748   2.346  13.571  0.2558 -0.2091  0.0578
27275W        W46809   5.009   2.917  14.269  0.0914  0.1003  0.3999
27276W        W46810  12.394   0.840   3.358 -0.1839  0.2621  0.1003
27277W        W46811   4.515  12.217  15.792  0.3082 -0.0851 -0.0618
27278W        W46812  12.315  14.447  14.208 -0.0539 -0.2500 -0.1033
27279W        W46813   0.493   5.519  14.113  0.2256 -0.0563 -0.0999
27280W        W46814   1.154  17.925  15.375  0.0542 -0.2272 -0.1319
27281W        W46815  15.486   7.446   1.167  0.0653 -0.0867 -0.1217
27282W        W46816  13.806   6.810  10.480  0.0600 -0.1690 -0.1187
27283W        W46817  13.498  17.278   3.860 -0.0183 -0.2438  0.1830
27284W        W46818   3.408   8.680   4.607  0.0949  0.1529  0.3494
27285W        W46819  15.872  10.289   1.058  0.1583  0.0322  0.1239
27286W        W46820  17.479   2.454   1.794  0.0074 -0.0636  0.0182
27287W        W46821   1.644   8.849   3.074 -0.2554  0.2657 -0.1327
27288W        W46822   7.471   1.634  12.088 -0.2083  0.0054  0.0968
27289W        W46823   7.114   6.356   4.033  0.0528 -0.1884 -0.1701
27290W        W46824   3.208   6.818   2.907  0.0691  0.2489 -0.0951
27291W        W46825   9.398  14.232   2.602  0.2114 -0.1818  0.0321
27292W        W46826   4.693  10.909  12.937  0.0332 -0.1073  0.1173
27293W        W46827   6.875  10.493  11.880 -0.0740  0.0218 -0.0584
27294W        W46828  14.666   8.578   0.248  0.2648 -0.4974 -0.1605
27295W        W46829  18.236   8.800  14.585  0.0673  0.0679  0.0409
27296W        W46830   5.929  17.892  13.879 -0.0155  0.0059  0.0173
27297W        W46831  10.074  12.955   3.762 -0.0115 -0.1224  0.3572
27298W        W46832  16.014   2.007  14.896 -0.2192 -0.3911 -0.0583
27299W        W46833   0.727   2.959   3.822  0.2764 -0.3199 -0.1041
27300W        W46834   5.415   3.324  12.333 -0.2052 -0.1314 -0.2078
27301W        W46835  10.166  16.518   3.850  0.2481  0.0240 -0.0471
27302W        W46836  11.534  10.939   2.039  0.0531  0.0720 -0.2206
27303W        W46837  18.080   1.511   0.676 -0.0755 -0.3182 -0.3575
27304W        W46838   6.663  12.042   1.210  0.0448  0.0419 -0.2424
27305W        W46839   3.549   2.042  11.565 -0.1216  0.1767 -0.1363
27306W        W46840  11.683   9.729  15.294 -0.2292  0.0855  0.2184
27307W        W46841   1.127   3.167   0.249 -0.2149 -0.0330 -0.1154
27308W        W46842   7.316   2.336   0.029  0.1410  0.0256 -0.0630
27309W        W46843   7.628   1.953   4.782  0.1323  0.3988 -0.0201
27310W        W46844   5.420  15.743  14.499  0.0694  0.1012 -0.0544
27311W        W46845  17.640   8.687   3.062 -0.0840  0.1102  0.0957
27312W        W46846  12.634   9.557   0.488  0.3777 -0.1202 -0.0922
27313W        W46847  10.538   7.366  14.814  0.0315 -0.1457 -0.1631
27314W        W46848  14.407  13.858   2.116  0.1494 -0.2046  0.0439
27315W        W46849   4.355  12.360   5.288 -0.0354  0.1799  0.3189
27316W        W46850  17.815   0.548   3.724 -0.0726  0.1731 -0.0552
27317W        W46851  10.795  13.440  13.666 -0.4587  0.1212 -0.0354
27318W        W46852  16.365   5.324  13.887 -0.1532 -0.2903 -0.0074
27319W        W46853   8.755   8.744  12.620 -0.0445 -0.0595 -0.0141
27320W        W46854   2.717  15.032   3.261 -0.0191 -0.0225  0.2349
27321W        W46855   1.461   2.015  15.697 -0.0145 -0.2357 -0.1111
27322W        W46856   0.083   3.003  12.936  0.1524  0.0988  0.1355
27323W        W46857  11.757   3.533   0.843  0.1501 -0.3910  0.0326
27324W        W46858  17.266   3.821  13.874 -0.0404 -0.0006 -0.0927
27325W        W46859  14.767   3.991   3.574  0.0364 -0.1195  0.1343
27326W        W46860   9.645  15.835  11.938  0.1424  0.3528  0.0753
27327W        W46861   7.235  15.969   2.934 -0.0677 -0.4671 -0.0988
27328W        W46862  16.812   8.244  12.412 -0.0901  0.2822  0.1475
27329W        W46863  15.955  11.797   9.760  0.1974 -0.3720  0.0892
27330W        W46864   4.625  17.970   2.712 -0.1079  0.2643  0.2230
27331W        W46865   8.843   5.442  14.097  0.0037 -0.1148 -0.1258
27332W        W46866  18.167   3.524   1.461  0.0747 -0.0485 -0.0995
27333W        W46867  11.403   5.668   1.915 -0.0168  0.3911  0.3533
27334W        W46868   1.628   5.842   2.614  0.2899 -0.2022  0.1908
27335W        W46869   2.001  11.848  13.791  0.1220  0.1153 -0.0197
27336W        W46870   5.856   4.303  13.252 -0.1441  0.4985  0.1317
27337W        W46871   2.117   3.993   3.883  0.0052 -0.2391  0.1156
27338W        W46872  16.160  11.938   2.589 -0.0805  0.1410 -0.0599
27339W        W46873   6.993  10.568  11.129 -0.1579  0.0380  0.1286
27340W        W46874   9.837  11.842  14.099  0.0574  0.1081 -0.2875
27341W        W46875   4.738   5.330  13.146  0.2249 -0.1855 -0.0695
27342W        W46876   5.528   5.623   2.164 -0.1216  0.1592  0.5278
27343W        W46877  16.921   6.496   3.195 -0.3157 -0.0340  0.0050
27344W        W46878  11.898   5.342   0.003 -0.1530  0.1863 -0.0696
27345W        W46879   3.697  10.343  14.621  0.1069 -0.1913 -0.2165
27346W        W46880  17.454  10.039  10.126 -0.3038  0.1149 -0.0389
27347W        W46881   3.115   8.790  13.908  0.3126  0.0924 -0.1724
27348W        W46882   0.106   4.624  14.771 -0.0020 -0.0326  0.0445
27349W        W46883   1.133  13.442   0.662  0.1475  0.1348  0.2334
27350W        W46884  17.963  17.954   4.695  0.1051 -0.1062  0.0809
27351W        W46885  15.405  14.941  14.302 -0.0628 -0.1129  0.1787
27352W        W46886  11.493  11.191  15.543 -0.2286 -0.3166  0.1184
27353W        W46887  13.501  16.391   4.072 -0.0025  0.0833 -0.1283
27354W        W46888   7.169   3.365  12.207 -0.0142 -0.0405 -0.2607
27355W        W46889  13.098   6.896  14.186  0.1533  0.0384  0.1176
27356W        W46890   1.625   7.217  12.630 -0.0508 -0.0361  0.1296
27357W        W46891   4.300  10.218   0.069  0.0468 -0.0203 -0.2864
27358W        W46892   1.726  13.295  11.386 -0.0899  0.1681  0.1255
27359W        W46893   0.457  10.057   4.454  0.0481 -0.0637 -0.0660
27360W        W46894   1.423   3.897  10.887 -0.3172 -0.3050 -0.2012
27361W        W46895  16.367  10.405   3.362  0.1491 -0.3501  0.0857
27362W        W46896  15.804  15.839  14.891 -0.0117 -0.1943  0.1123
27363W        W46897   1.250  11.499   3.514  0.1298 -0.0365 -0.0627
27364W        W46898   3.101  10.677   0.653 -0.0470  0.0919 -0.1153
27365W        W46899  12.246  11.783   0.855  0.2487  0.0735  0.0047
27366W        W46900  17.782   2.014  14.918  0.1321 -0.0066 -0.2108
27367W        W46901   0.203   7.308  13.619 -0.2152  0.2445 -0.3250
27368W        W46902   1.748  16.793  13.146  0.2421 -0.2386  0.1374
27369W        W46903  12.419   1.813   3.044 -0.0920  0.1977  0.2725
27370W        W46904   9.084  11.382   3.037  0.2332  0.0908  0.1977
27371W        W46905   8.014   3.983  13.129 -0.3027  0.2549  0.1076
27372W        W46906   9.754   9.088  13.692 -0.0114  0.1321 -0.3105
27373W        W46907   5.605   7.807  12.782  0.3616  0.2168  0.0322
27374W        W46908   3.627   1.602  15.085  0.1075  0.1968  0.1710
27375W        W46909   6.976   6.253  13.643 -0.0683  0.0701 -0.4307
27376W        W46910   7.013   4.144  13.000  0.1150 -0.0117  0.1527
27377W        W46911   8.643   8.128  11.841 -0.2416 -0.1851  0.1474
27378W        W46912  14.492   4.598   4.812  0.1339 -0.1008 -0.0521
27379W        W46913  10.459  14.841   0.011 -0.3442 -0.0160  0.4066
27380W        W46914  10.169   7.440   0.644  0.0747 -0.0220 -0.1313
27381W        W46915  15.078  14.563  11.307 -0.0752 -0.0079  0.3821
27382W        W46916   1.849   6.811   0.960  0.3679 -0.2171 -0.1610
27383W        W46917   2.121   6.885   4.316 -0.4848  0.1550 -0.0372
27384W        W46918   8.190  15.923  13.074  0.0555 -0.2239  0.0945
27385W        W46919  12.594  15.716  11.268  0.1241  0.0360 -0.1677
27386W        W46920   3.196  11.588  14.370  0.1403  0.1091  0.0663
27387W        W46921  12.542   0.611  14.518  0.1908  0.0490 -0.4481
27388W        W46922  10.764  15.316  13.162 -0.0387  0.2690 -0.5168
27389W        W46923   8.386  12.144   3.055  0.3064  0.0155  0.1541
27390W        W46924  11.824  15.502   4.235  0.0890  0.1702  0.0438
27391W        W46925   2.691   5.677   2.651  0.4019 -0.0460 -0.1778
27392W        W46926   0.331   7.645  11.613  0.0346 -0.0492 -0.0660
27393W        W46927   1.671  16.329   1.054  0.1484 -0.2513  0.1794
27394W        W46928   9.003   1.868   2.060  0.0803  0.0819  0.1789
27395W        W46929   7.263  11.949  15.338  0.0338 -0.3133 -0.0465
27396W        W46930  14.422  16.896  13.953  0.2423 -0.1223 -0.2656
27397W        W46931   4.887  16.206  15.739  0.2106  0.0695  0.0892
27398W        W46932   3.690  15.530  14.090 -0.0228 -0.2316  0.5557
27399W        W46933   0.406   8.572  13.958 -0.0431 -0.0036  0.3015
27400W        W46934  16.470   7.564  11.522  0.3537  0.1608 -0.3806
27401W        W46935  14.653  13.573   4.964 -0.2927 -0.0279 -0.3109
27402W        W46936   9.612   0.716   5.897 -0.0194 -0.2739 -0.0133
27403W        W46937  16.675   7.573  13.499  0.2573  0.0690  0.1253
27404W        W46938   5.701   8.747   0.103 -0.0888 -0.1738 -0.1399
27405W        W46939   9.757   3.029  13.734 -0.0833  0.1269 -0.2789
27406W        W46940   3.191  10.538  11.964  0.2919 -0.0808 -0.0000
27407W        W46941  17.688  17.132   1.268 -0.1709  0.0022  0.3420
27408W        W46942   2.601  15.693   2.787  0.0642  0.3281 -0.1066
27409W        W46943   6.892  17.631   1.319 -0.0606  0.3192 -0.1211
27410W        W46944  12.681  10.726  14.277  0.1206  0.0788  0.2784
27411W        W46945   4.232   7.764   3.377  0.0176  0.1280 -0.1122
27412W        W46946   0.391  12.886   0.819 -0.2920 -0.0937 -0.1181
27413W        W46947   1.742   7.748  14.295  0.0654  0.0323  0.2378
27414W        W46948   0.466   2.511   0.706  0.0992 -0.1720 -0.3643
27415W        W46949   3.720  11.956   2.586 -0.1741 -0.0832  0.1127
27416W        W46950   3.065   9.965   2.730  0.5314 -0.2000  0.1719
27417W        W46951  11.583   8.484   0.011 -0.0676  0.1358 -0.1100
27418W        W46952  11.306  17.072  12.865 -0.0010  0.1827  0.0247
27419W        W46953  15.916   9.827  12.534 -0.0190 -0.0909  0.0719
27420W        W46954   5.076   4.986  12.995  0.0893  0.0825 -0.1844
27421W        W46955  18.097  10.938  10.460  0.0797 -0.0551  0.0073
27422W        W46956   7.303   8.520   4.357  0.4359  0.0716  0.0873
27423W        W46957  12.326   8.212  13.295  0.0286  0.0595 -0.3352
27424W        W46958  16.962   6.945   2.975 -0.0981 -0.2416  0.2021
27425W        W46959  14.104   7.671   3.198  0.0505  0.1652 -0.1953
27426W        W46960   1.438  12.373   2.782 -0.0210 -0.0360  0.4100
27427W        W46961   6.745   1.291   2.595  0.0982 -0.2026  0.1614
27428W        W46962   0.963  16.629   1.818 -0.2136  0.3535  0.0442
27429W        W46963  13.567   2.043   0.323 -0.0842  0.0713  0.0002
27430W        W46964   6.270   0.732   0.821  0.3411 -0.1810 -0.3906
27431W        W46965   2.786   4.382  11.826 -0.1315 -0.0162 -0.2804
27432W        W46966   5.201  11.050   4.583 -0.0923 -0.4250 -0.0010
27433W        W46967   5.281   1.903  13.124  0.0992 -0.1745  0.1416
27434W        W46968  11.240   9.139   2.662  0.0458 -0.2279 -0.0912
27435W        W46969   4.305  10.672   1.420 -0.2174  0.2097 -0.0849
27436W        W46970  16.041   5.095  13.185  0.0864 -0.2142  0.0972
27437W        W46971  13.177   9.675   1.641  0.0834 -0.0081 -0.2746
27438W        W46972  14.839  13.167   2.716  0.0476 -0.1558 -0.1467
27439W        W46973  15.039   2.663   2.273  0.2509 -0.0023  0.0927
27440W        W46974  10.976  15.344  12.096 -0.0084  0.3740  0.1736
27441W        W46975  16.026   6.056  12.399 -0.0555 -0.0837  0.2152
27442W        W46976  16.700   6.517   1.387 -0.0427 -0.0527  0.1376
27443W        W46977  12.976  12.686   1.847 -0.3399 -0.2006 -0.1700
27444W        W46978   6.181  13.955   3.605  0.1182 -0.2947  0.0512
27445W        W46979  17.816  10.239   3.422  0.2242 -0.1646 -0.1871
27446W        W46980   3.656  15.389   4.520  0.1016 -0.1508 -0.1391
27447W        W46981  14.495   6.645   3.192  0.1329 -0.0318 -0.2178
27448W        W46982   8.521  11.256   1.500  0.0515  0.0263  0.3805
27449W        W46983  17.558   5.495   2.642  0.3593 -0.0957 -0.1001
27450W        W46984   4.784  15.058   1.359  0.0831 -0.0123 -0.2244
27451W        W46985   4.668   8.330  15.708 -0.3831  0.3558  0.4201
27452W        W46986  13.141   1.307   1.341 -0.1572 -0.3032  0.1268
27453W        W46987   5.721   4.585  10.762 -0.2879  0.3760 -0.1997
27454W        W46988  15.064   1.458  11.352 -0.0576 -0.2891  0.1535
27455W        W46989  16.366   9.776   0.355  0.0234 -0.2169  0.2295
27456W        W46990   5.574  16.904   2.144 -0.1011 -0.1441  0.2522
27457W        W46991  14.701  10.833   3.323 -0.3556  0.0270  0.4688
27458W        W46992  12.621   5.949  10.914 -0.3073  0.1474  0.1151
27459W        W46993   4.712  17.656  11.777  0.2729  0.0576  0.2373
27460W        W46994   7.177   0.076  15.069  0.1879 -0.0662  0.0258
27461W        W46995  11.913  10.326   0.674  0.1662  0.0725 -0.2089
27462W        W46996   5.421  14.539   4.920  0.0588 -0.0507  0.2613
27463W        W46997  15.950   6.832  14.717  0.1625  0.0151 -0.1941
27464W        W46998   2.613   0.918  15.794 -0.0281 -0.1273 -0.0847
27465W        W46999  10.272  17.149   0.389  0.1165 -0.2082 -0.6476
27466W        W47000   9.515  10.018   0.486  0.1344  0.0834  0.1702
27467W        W47001   5.467   9.029   3.967 -0.1879  0.0407 -0.3654
27468W        W47002   2.190   0.627  11.335 -0.0299  0.1336 -0.1514
27469W        W47003   7.565   9.662  14.943 -0.0616 -0.0107  0.0666
27470W        W47004  10.878   3.998   2.695 -0.0694 -0.3334  0.1034
27471W        W47005  16.443  11.664   2.965 -0.2701 -0.0930  0.0109
27472W        W47006  17.566   2.620   4.310  0.2214 -0.3842 -0.1320
27473W        W47007   7.728  16.231  13.369 -0.3284 -0.3305  0.1865
27474W        W47008   2.481  12.404  14.302  0.0917  0.1640 -0.0379
27475W        W47009   0.999   6.337  13.343 -0.0955  0.1054  0.3736
27476W        W47010   4.716   9.217   3.587 -0.2449 -0.1583 -0.2868
27477W        W47011  15.294   6.749   4.201 -0.2698  0.0295  0.1337
27478W        W47012   0.052   7.946   2.038  0.0023  0.2337  0.0935
27479W        W47013  14.565   7.691   0.284 -0.1028  0.0345  0.3606
27480W        W47014  13.687   2.999   1.773 -0.0353 -0.0500  0.0116
27481W        W47015   7.081   9.843   5.749 -0.2710 -0.1567 -0.0910
27482W        W47016   2.572  11.812   0.175  0.0346 -0.0805  0.1318
27483W        W47017   3.790  12.866   2.339 -0.0561 -0.2004  0.1881
27484W        W47018   5.323  14.830  12.459 -0.3403  0.0735 -0.2444
27485W        W47019   5.512   1.310  15.210 -0.0641  0.0978 -0.0387
27486W        W47020   0.091   9.452  15.219  0.1957 -0.1622  0.2384
27487W        W47021  16.781   2.277  14.178 -0.1068 -0.2923  0.1289
27488W        W47022  14.815  15.162   0.654  0.0099  0.1421  0.0792
27489W        W47023   2.110   0.484   0.768  0.0223 -0.0930  0.1113
27490W        W47024  11.012   3.185  13.117 -0.1129 -0.1170  0.0544
27491W        W47025   7.054  14.174   4.501 -0.1467  0.1315  0.4073
27492W        W47026   2.812  16.559  13.745  0.0743 -0.0112 -0.2441
27493W        W47027   9.265   0.819  13.506 -0.3847 -0.0726  0.1148
27494W        W47028   9.612   4.765  15.270  0.0123  0.0451  0.3733
27495W        W47029  11.380   3.671  13.618  0.1393 -0.3465 -0.1690
27496W        W47030   6.376  13.316  13.442  0.1116  0.0256 -0.0137
27497W        W47031   5.455   9.068   2.112  0.1211  0.0500 -0.1538
27498W        W47032  14.632  13.588  11.355 -0.1423  0.2186 -0.2853
27499W        W47033   1.706   1.798  12.858  0.1016  0.2753 -0.0021
27500W        W47034  15.919  13.620   3.675 -0.0332  0.0543  0.1639
27501W        W47035  11.212  17.267  12.426 -0.0278  0.4843  0.0745
27502W        W47036   4.925   3.057   4.341 -0.1331  0.0784  0.0632
27503W        W47037   2.268  10.114   3.551 -0.0740  0.2084  0.1823
27504W        W47038  15.379   9.555  12.573 -0.0749 -0.0608  0.1769
27505W        W47039  14.120   8.941   2.858  0.0335 -0.0432 -0.1559
27506W        W47040   4.634   9.201   4.426  0.1806  0.1674 -0.1444
27507W        W47041   7.776   8.891   2.507  0.0601 -0.0536 -0.2554
27508W        W47042  13.510  12.660   0.084  0.0107  0.2473 -0.2387
27509W        W47043   6.289  18.265   3.363  0.2260 -0.2023 -0.2618
27510W        W47044   2.153  12.597   0.721  0.1747  0.1330  0.2026
27511W        W47045   4.044  13.094   1.893  0.2367  0.1690  0.0425
27512W        W47046  15.663   9.593   1.361  0.0991  0.4945 -0.1597
27513W        W47047  15.807   6.499  12.264 -0.1913 -0.0248 -0.0447
27514W        W47048  10.350  16.566  13.219  0.2334 -0.0731 -0.0907
27515W        W47049   5.753   5.137   4.390 -0.3160 -0.0686  0.2246
27516W        W47050  15.325   1.531  11.814 -0.0630 -0.0543  0.1944
27517W        W47051   1.505   1.495  13.190  0.0250 -0.0372 -0.1360
27518W        W47052  13.232  15.688   1.211  0.0326  0.0931  0.0515
27519W        W47053   3.484   3.947   5.019  0.0757 -0.1181  0.1755
27520W        W47054   3.477   3.688   3.792 -0.3377 -0.2206  0.1484
27521W        W47055   4.348   7.605  12.925  0.2554  0.3623 -0.2484
27522W        W47056  16.543   5.258  12.358 -0.1547  0.2325 -0.2246
27523W        W47057   7.066  14.555  12.868  0.2096  0.0554  0.1527
27524W        W47058   5.784   9.798  14.271  0.2268  0.1834  0.0949
27525W        W47059   3.542   8.605   4.045  0.0398 -0.0370  0.0719
27526W        W47060  17.162   4.506   1.258  0.3047 -0.1028 -0.2188
27527W        W47061   7.983  13.277   3.898  0.2213  0.0040 -0.0518
27528W        W47062   8.320   3.003   1.098 -0.2141 -0.0045  0.2125
27529W        W47063   6.365   3.953   2.750 -0.1222  0.0610 -0.1715
27530W        W47064   0.202  17.816  15.510  0.3532 -0.2604  0.0616
27531W        W47065  15.584  16.213   4.658  0.2408 -0.0899  0.1390
27532W        W47066   1.684  16.540   0.076  0.0124  0.1112  0.0116
27533W        W47067   7.473   0.905   0.189 -0.0120  0.0610  0.2443
27534W        W47068   4.135  14.732  15.297  0.1251  0.1774  0.3491
27535W        W47069   3.636  11.827  14.040  0.1342  0.2347  0.0193
27536W        W47070  13.074  10.131  13.843  0.0876  0.1483  0.1609
27537W        W47071  15.583   0.846   3.332  0.1035  0.3989 -0.2528
27538W        W47072  16.430   5.354   3.606  0.1040 -0.0332 -0.3608
27539W        W47073   2.125  10.174   4.543 -0.2066 -0.0581 -0.1706
27540W        W47074  18.082   6.937  14.886 -0.2915  0.5900 -0.1291
27541W        W47075   9.999   4.233   0.755  0.1375  0.1709  0.0478
27542W        W47076  17.981   3.899   4.874 -0.1109  0.0554 -0.0535
27543W        W47077  13.228  11.156  13.208 -0.1181  0.1516 -0.1152
27544W        W47078   9.893  17.094  13.951  0.0419 -0.0400  0.3278
27545W        W47079  16.768  12.107   1.290 -0.3675 -0.1098  0.3818
27546W        W47080  18.125  13.707  14.764  0.0901 -0.0553  0.2288
27547W        W47081   5.362   5.558  12.333 -0.1420 -0.0355  0.1458
27548W        W47082  11.542  13.524  12.936  0.1221  0.3059 -0.1077
27549W        W47083   3.394  15.200  12.994  0.3231 -0.2401 -0.2089
27550W        W47084  11.219  11.739   2.043 -0.0125  0.2421 -0.4678
27551W        W47085   2.047   8.639   0.639 -0.2293  0.1067 -0.0431
27552W        W47086   0.017   2.141   2.800 -0.2701 -0.2796 -0.0687
27553W        W47087  15.024  13.730   1.821 -0.2634 -0.1077 -0.2234
27554W        W47088  14.208  15.056   3.735 -0.4184 -0.2576  0.0668
27555W        W47089  12.324   0.942   4.550 -0.0407 -0.2031 -0.1243
27556W        W47090   0.384   1.598  11.457 -0.2891 -0.0392  0.1211
27557W        W47091   2.890   2.398  15.655  0.0636  0.1118 -0.1164
27558W        W47092   4.579  13.994  14.540  0.1100 -0.1068 -0.1389
27559W        W47093   4.480  12.242   1.982 -0.1931  0.2196 -0.2230
27560W        W47094   4.591   7.047  15.336  0.3326 -0.0423  0.2192
27561W        W47095   5.746  11.020   1.559  0.2139  0.0307 -0.2199
27562W        W47096  15.719  15.613  10.286  0.0403  0.1038  0.0341
27563W        W47097  15.875   3.075  11.067  0.2142  0.1384 -0.1532
27564W        W47098   6.673  18.155   4.382 -0.0660  0.0294 -0.1382
27565W        W47099  16.553   2.489   3.987 -0.1504  0.0147  0.0308
27566W        W47100   2.895   5.069   1.314 -0.0015  0.1293  0.1307
27567W        W47101   1.226   7.574   2.399  0.1709 -0.1406 -0.0611
27568W        W47102  13.916   9.511  12.644 -0.2805 -0.1461  0.0657
27569W        W47103   7.464  16.167   2.506 -0.1384  0.2253 -0.3384
27570W        W47104   1.941   7.678  15.299  0.3839  0.0886  0.4112
27571W        W47105   3.721  13.915   5.384  0.0385 -0.1698 -0.0015
27572W        W47106   1.615   6.965  15.654 -0.2200  0.1106 -0.0027
27573W        W47107  13.012   4.692   3.973  0.0274 -0.1557  0.1506
27574W        W47108   1.358   6.223   4.378  0.2364  0.1920 -0.2866
27575W        W47109  14.111  11.005   1.176 -0.1376 -0.2375 -0.1235
27576W        W47110  14.765   8.366  10.856 -0.1765 -0.0165 -0.1368
27577W        W47111   5.522   2.693  11.604  0.3692  0.0737  0.1509
27578W        W47112  13.531   7.142  14.085 -0.4249 -0.0392  0.1536
27579W        W47113  15.664  10.077  11.220 -0.1908  0.0511 -0.1305
27580W        W47114   2.324   5.541   1.710 -0.1841  0.0786  0.0837
27581W        W47115   5.559  11.861  12.486  0.3049 -0.0340 -0.0294
27582W        W47116  16.263   9.554   3.352  0.2982 -0.0034  0.2231
27583W        W47117   2.161   7.905   1.855 -0.2476 -0.1000 -0.1170
27584W        W47118  15.564   7.004  12.386 -0.0782 -0.0383  0.0864
27585W        W47119   5.475  15.581  15.414  0.1567  0.4009  0.1759
27586W        W47120  12.587  11.932   1.201  0.1101 -0.1719  0.1237
27587W        W47121   6.907  13.752  13.873  0.0427  0.2797 -0.2670
27588W        W47122   1.934   8.426  13.232  0.2461  0.0514  0.4153
27589W        W47123  12.453  11.737   1.715 -0.0172 -0.0411  0.0437
27590W        W47124  10.896  10.266  11.604  0.2178  0.0513  0.2230
27591W        W47125   5.417  11.091   1.134 -0.1485  0.0832  0.0470
27592W        W47126   1.722  12.183   1.968 -0.1690  0.4522 -0.2973
27593W        W47127   1.152  13.336  12.471  0.2203  0.1866  0.0479
27594W        W47128  14.061  16.142  12.359  0.2457 -0.0916  0.2140
27595W        W47129  13.638  13.439  13.103  0.1785 -0.0879 -0.1198
27596W        W47130  12.040   7.388  12.888  0.2118  0.1145  0.2591
27597W        W47131   7.163  13.931  12.043  0.2400 -0.2066  0.0244
27598W        W47132   5.864  10.827  15.596  0.1572  0.1653  0.3586
27599W        W47133   7.744  11.145   1.254  0.1141 -0.0424  0.0941
27600W        W47134  16.532   4.500   0.046 -0.0041 -0.0020 -0.1989
27601W        W47135   3.498   4.153   2.930 -0.3414  0.0421  0.1926
27602W        W47136  13.301  14.990   0.047  0.1875 -0.0274  0.0902
27603W        W47137  10.902  14.170  12.201 -0.1671 -0.1641  0.1325
27604W        W47138   7.287  15.184   3.853  0.2310 -0.2943 -0.0792
27605W        W47139   7.400   4.899   1.008 -0.0957 -0.0820  0.0105
27606W        W47140   2.194   9.508   3.980  0.0274  0.0178  0.0305
27607W        W47141   3.581  14.535  15.315 -0.1244 -0.0156  0.2347
27608W        W47142  14.923  14.515   4.644  0.1302 -0.0389 -0.1958
27609W        W47143  10.436  17.626   0.913  0.1454 -0.0526  0.2715
27610W        W47144  17.501  13.194   4.025 -0.1912 -0.2257  0.0827
27611W        W47145   9.692  15.157   1.074 -0.0757 -0.0121  0.0231
27612W        W47146   0.903   7.677   1.053  0.1399  0.4502  0.1350
27613W        W47147   6.488  15.894   1.505  0.1349 -0.0561  0.0432
27614W        W47148   6.638   5.088   1.725  0.0706  0.0268  0.0380
27615W        W47149  13.339  10.400  15.427 -0.0142 -0.1748  0.0488
27616W        W47150   8.324  15.207   2.547  0.4874  0.1380 -0.0989
27617W        W47151  12.210   9.678  10.997 -0.3617  0.1625 -0.1491
27618W        W47152   1.712   6.956   0.415 -0.1871  0.1174 -0.0619
27619W        W47153   4.389   7.793  15.589 -0.2527  0.3349 -0.0991
27620W        W47154   0.592  18.154   3.686  0.1737 -0.1126 -0.0768
27621W        W47155  13.794   8.743  14.182  0.1386 -0.2356  0.0884
27622W        W47156   9.474   7.914  13.095  0.1149 -0.0435  0.2699
27623W        W47157  10.284   5.106  13.638 -0.0792 -0.4990 -0.1691
27624W        W47158   0.474   7.106   3.807  0.0160 -0.1005 -0.0039
27625W        W47159   3.822   9.492   2.406 -0.1933 -0.1983  0.0600
27626W        W47160   7.191   5.052   2.426 -0.4613 -0.3055 -0.1032
27627W        W47161  17.562  12.057   1.731  0.2068 -0.2443  0.1424
27628W        W47162  14.953   5.284  12.854 -0.1802 -0.0615 -0.1845
27629W        W47163  11.526   1.157  13.107 -0.0485  0.3365  0.0440
27630W        W47164  17.326  17.729  14.544 -0.0344 -0.6795  0.2480
27631W        W47165  12.385  15.681   1.908  0.4004 -0.0967 -0.2721
27632W        W47166   1.628  15.380  13.868  0.2846 -0.1448 -0.0948
27633W        W47167   7.943   6.150   4.518 -0.0575 -0.2919  0.2180
27634W        W47168  16.031   1.487   5.267 -0.5706 -0.2407  0.3762
27635W        W47169   7.857   4.633   2.993  0.0776  0.0858  0.1444
27636W        W47170  16.961  14.527   2.815 -0.2375  0.0248 -0.2203
27637W        W47171   9.763   7.706   0.525 -0.1206 -0.2559  0.1520
27638W        W47172  17.810  10.596  13.268  0.4276  0.3310  0.0383
27639W        W47173  15.253  10.878   4.391  0.2165  0.0089 -0.0424
27640W        W47174  14.543  16.838   0.176 -0.0924 -0.0077 -0.1571
27641W        W47175   0.012   7.462   0.606 -0.0648  0.0949 -0.2422
27642W        W47176   6.753  14.389   4.125  0.0716  0.0020 -0.2108
27643W        W47177  13.733  14.265  11.965  0.3100 -0.0901 -0.1497
27644W        W47178   0.379   8.274  11.134 -0.0203  0.0157  0.2060
27645W        W47179   4.974  16.309  12.424 -0.3811  0.0355  0.1209
27646W        W47180   2.191   6.609   3.421  0.1364 -0.1901  0.0013
27647W        W47181   5.133  16.479  14.143 -0.0509 -0.0197 -0.1743
27648W        W47182   9.470   8.214   3.767 -0.1417  0.0929  0.2094
27649W        W47183  17.882   6.906   3.657 -0.1609 -0.1532  0.0805
27650W        W47184   8.321  16.081   0.121  0.0088  0.0770 -0.0634
27651W        W47185  13.067  11.085   3.833 -0.2421 -0.1228 -0.1157
27652W        W47186  10.920   6.388  15.264 -0.1212 -0.1759  0.1021
27653W        W47187   7.176   9.125   3.217  0.1966  0.1932  0.0504
27654W        W47188  10.522   1.713   4.623  0.0807 -0.1601 -0.1531
27655W        W47189  15.827  16.761   1.314  0.2923  0.1614  0.0493
27656W        W47190  16.125  15.817  13.464  0.1009  0.1479  0.2226
27657W        W47191   4.673  17.916  14.275 -0.0854  0.3253 -0.1585
27658W        W47192  17.088  17.997  12.404  0.0093  0.0674  0.0761
27659W        W47193   8.661   3.815  12.376  0.0017 -0.0922  0.1867
27660W        W47194  15.890  12.205  12.978  0.0487  0.0221 -0.2747
27661W        W47195   9.152   7.404   4.286  0.1450  0.0732  0.0160
27662W        W47196  14.790  13.139   1.317 -0.1086 -0.1432 -0.0543
27663W        W47197  11.500   6.465   3.503  0.0159 -0.0055  0.0019
27664W        W47198   0.367  11.470   1.605 -0.0768  0.1745 -0.2735
27665W        W47199   0.843   4.548  13.377  0.1201  0.0341 -0.1998
27666W        W47200   0.738   4.986   0.694  0.0988 -0.0376 -0.1337
27667W        W47201  17.514  12.512   3.456 -0.1220 -0.0797 -0.0031
27668W        W47202  17.785   6.964   1.328  0.2521  0.0050 -0.1784
27669W        W47203   8.656   1.225   2.280  0.0632 -0.0498 -0.2294
27670W        W47204  16.810  14.485   0.385  0.0442  0.1119 -0.1691
27671W        W47205   9.382  11.094   1.307 -0.4765 -0.0101  0.2611
27672W        W47206   3.213   2.025  12.948 -0.1286  0.0662 -0.1935
27673W        W47207  18.349  11.823   4.326  0.0244  0.2903  0.1820
27674W        W47208  14.435  16.405   2.668  0.0271 -0.0742 -0.0747
27675W        W47209  10.570   0.270   1.250  0.0001 -0.0784  0.0375
27676W        W47210  17.672   5.550   4.006 -0.0875  0.1608 -0.1106
27677W        W47211   8.354   9.582  13.563  0.0292  0.1467 -0.1125
27678W        W47212   1.552  15.562  11.709 -0.1369  0.1050 -0.0899
27679W        W47213  18.162  15.028   4.767 -0.0166 -0.1378 -0.0702
27680W        W47214   4.414   3.069  12.606  0.1686 -0.1148 -0.2743
27681W        W47215  14.821  10.700  13.977 -0.0391  0.1181  0.1610
27682W        W47216  16.538   6.405   0.034 -0.0839 -0.1190  0.0344
27683W        W47217  13.903  16.404   4.479 -0.2851 -0.3675  0.3219
27684W        W47218  17.636   1.060   0.136 -0.0683  0.0680  0.3825
27685W        W47219  13.098   1.929   4.508 -0.1123 -0.1366  0.4060
27686W        W47220  11.437  12.999   0.897  0.0315 -0.0403 -0.2089
27687W        W47221  17.477   2.321  12.690  0.3423 -0.0785  0.1072
27688W        W47222   8.730   8.024   5.045  0.1885  0.0470  0.0909
27689W        W47223  14.673   7.064   1.907 -0.3225 -0.2778 -0.1373
27690W        W47224  12.339  13.217   4.495 -0.0982  0.1121  0.1181
27691W        W47225   4.514  16.648  13.903 -0.1674  0.2057 -0.2094
27692W        W47226   3.023   8.900   2.153 -0.1347 -0.0704  0.0342
27693W        W47227  16.333   0.886   1.591 -0.1943  0.2803 -0.0284
27694W        W47228  14.531   4.080  13.547 -0.1474 -0.1055 -0.1562
27695W        W47229  10.985   3.421  14.278  0.1672 -0.0944 -0.0914
27696W        W47230   7.536  14.855   4.156  0.0145 -0.0351  0.0354
27697W        W47231   7.729   8.763   4.519 -0.0901 -0.1256  0.1148
27698W        W47232   3.524  12.679   1.468  0.0763 -0.1597  0.1401
27699W        W47233   2.685   2.916  10.226 -0.0873  0.0049  0.1144
27700W        W47234   7.304   6.263  14.824  0.1185  0.0538 -0.0802
27701W        W47235  17.258  14.142  13.714 -0.0080  0.3090 -0.0803
27702W        W47236   1.845  14.842   1.591  0.0750 -0.0167  0.3579
27703W        W47237  11.813  12.761  15.800  0.2884  0.0105 -0.1168
27704W        W47238   2.002  10.814  11.915 -0.0140 -0.2000  0.0688
27705W        W47239  12.304  16.884  12.585  0.0083 -0.1302 -0.5739
27706W        W47240   5.367   2.224  13.910 -0.1116  0.1575  0.2365
27707W        W47241   4.909   0.688   3.696  0.0807 -0.2906  0.0179
27708W        W47242   2.170   7.243   0.824  0.0419 -0.3020  0.0230
27709W        W47243   7.934   4.130   4.849 -0.1030  0.0378 -0.0739
27710W        W47244  10.774   3.710   3.630 -0.1533  0.2092 -0.0678
27711W        W47245  18.018  10.104   2.494  0.1770  0.0186  0.2254
27712W        W47246   5.051   4.851  15.692 -0.0261 -0.2477  0.0417
27713W        W47247   6.383   0.078  12.927 -0.1613  0.1092 -0.0842
27714W        W47248  12.996   1.146  15.049  0.0110  0.0268  0.0560
27715W        W47249  14.029  14.417  15.498  0.3226 -0.0586 -0.0956
27716W        W47250  11.355   2.910  15.354  0.1762  0.2359 -0.4000
27717W        W47251   8.425  11.646  14.861  0.1163  0.3226  0.0920
27718W        W47252  10.646  15.841   4.155 -0.1294 -0.0363 -0.3369
27719W        W47253   9.444  16.429   2.764  0.1444  0.1883 -0.3205
27720W        W47254   2.706  13.522  13.496 -0.3095 -0.0881 -0.0691
27721W        W47255   9.713   5.262   1.649  0.1333  0.2940  0.1166
27722W        W47256   1.792   6.683   2.190 -0.0563 -0.1106 -0.2118
27723W        W47257   1.852  15.023   4.080  0.5102 -0.1535 -0.2333
27724W        W47258  14.219  13.477   5.720  0.0024 -0.1670 -0.2402
27725W        W47259   7.886  10.179   1.518  0.0948 -0.0597 -0.3227
27726W        W47260   1.121  15.064   1.009 -0.0192  0.2369 -0.1792
27727W        W47261  17.298  14.068  12.448 -0.2063 -0.5297 -0.0977
27728W        W47262   9.665   6.134  12.360 -0.0052 -0.2106  0.2145
27729W        W47263  12.757   9.479  12.321  0.0399  0.3405  0.1056
27730W        W47264  16.391   8.820  12.096 -0.0268  0.1972 -0.1126
27731W        W47265   1.800   8.618  15.099 -0.0840 -0.1529  0.3527
27732W        W47266  13.412   2.174  13.217  0.4471 -0.1555 -0.0223
27733W        W47267  16.960  13.759   4.730 -0.1499 -0.2962  0.0933
27734W        W47268  12.272  12.720  10.494 -0.0656 -0.0525  0.0477
27735W        W47269   4.311   1.207   0.867 -0.0806  0.0726 -0.0504
27736W        W47270  12.266   1.081  14.412 -0.2275  0.2273 -0.0414
27737W        W47271   4.429   9.023   4.944  0.1072  0.3201  0.0460
27738W        W47272   2.454   7.227  11.985 -0.0461  0.1794  0.1466
27739W        W47273  15.891   9.501  12.878  0.0921  0.0547  0.0259
27740W        W47274   1.234  11.774  15.062  0.2802 -0.0029 -0.0829
27741W        W47275  11.095  11.486  12.706  0.0785 -0.1419  0.0977
27742W        W47276   0.433   2.053  14.725  0.0061 -0.1078  0.0339
27743W        W47277   7.864   1.619  14.811 -0.0293 -0.1456  0.0437
27744W        W47278  11.814   6.421  15.463  0.0868  0.2761  0.0014
27745W        W47279   5.300   2.866   1.355 -0.1616  0.3375 -0.2057
27746W        W47280   5.985   1.923   0.146 -0.0019 -0.2321 -0.3577
27747W        W47281   8.319  15.933   2.301  0.0472  0.0409 -0.2204
27748W        W47282   4.704   8.305   0.616  0.1494 -0.2301  0.2790
27749W        W47283  17.198   6.634   1.356 -0.0088 -0.0928  0.2210
27750W        W47284   2.237  11.817   2.247  0.0791 -0.0707  0.0324
27751W        W47285  13.021   7.243   0.470  0.2619  0.1189 -0.0259
27752W        W47286   2.611   2.274   4.463  0.0735 -0.0554 -0.1230
27753W        W47287  17.813   0.287   2.064 -0.0177  0.1832  0.2720
27754W        W47288  16.746   3.216   0.975 -0.2565 -0.2065  0.0218
27755W        W47289  17.338  16.010  13.009 -0.0492 -0.1041  0.0676
27756W        W47290   1.039  15.252  14.690  0.3570 -0.0064  0.2501
27757W        W47291  17.566   2.875   1.564 -0.5933 -0.2378 -0.1031
27758W        W47292   1.925   1.124  14.595  0.1803  0.0471 -0.0213
27759W        W47293   8.276   2.234   3.102  0.1587  0.3471  0.3931
27760W        W47294   4.015  14.945   3.015  0.1094 -0.0179 -0.0906
27761W        W47295  15.502  10.383  12.035  0.0776  0.1967 -0.3502
27762W        W47296  15.320   0.691   2.871  0.3240 -0.0246  0.3014
27763W        W47297   9.495  14.973   4.484 -0.1639  0.0212  0.0208
27764W        W47298   8.308  11.803   0.389 -0.0868  0.0614  0.0378
27765W        W47299  14.955  11.876   1.716  0.0561 -0.1454 -0.0253
27766W        W47300  10.214  12.366  12.057  0.0374  0.1896  0.0081
27767W        W47301  10.054   6.442  13.231  0.0552 -0.0233 -0.0394
27768W        W47302   1.339  14.001  15.329 -0.1879 -0.3920 -0.0350
27769W        W47303  11.240   4.132  13.367  0.0848 -0.1741 -0.1287
27770W        W47304   0.201  12.004   2.841 -0.0374  0.2940  0.1772
27771W        W47305   1.614   3.304  15.160  0.2205 -0.1127 -0.0057
27772W        W47306   1.061   5.991  11.694 -0.1965 -0.0362 -0.0166
27773W        W47307   9.010   0.266   3.421  0.0321 -0.1208  0.1988
27774W        W47308  15.083  12.428   0.076  0.1642  0.1112  0.4711
27775W        W47309   5.982   3.476   1.522 -0.1074 -0.1802 -0.2321
27776W        W47310   5.071  14.845   3.249  0.1998 -0.1517  0.0604
27777W        W47311  11.706   2.234  14.683  0.0545 -0.0324  0.1440
27778W        W47312  11.183   6.920  15.252  0.0232  0.0409 -0.0500
27779W        W47313  12.867  13.642  12.837 -0.0101  0.0292  0.0584
27780W        W47314  17.012   2.149  13.299  0.1271 -0.1734  0.1783
27781W        W47315  10.450   1.893  14.276 -0.1404 -0.1187 -0.1393
27782W        W47316  14.975  12.953  12.589 -0.2158 -0.2988  0.0149
27783W        W47317   2.967  13.519  10.423  0.1696 -0.1077  0.0659
27784W        W47318   0.326  10.850  13.606  0.0003  0.0807 -0.2790
27785W        W47319  13.927  14.717   3.266 -0.0797  0.0187 -0.2413
27786W        W47320   1.577  17.528   1.000  0.3087 -0.0690  0.0117
27787W        W47321   6.327   7.461  15.783 -0.0958 -0.0502 -0.1440
27788W        W47322  11.836  14.404  12.789  0.0981  0.0935 -0.0729
27789W        W47323  12.538  10.086   2.367 -0.0182  0.1025 -0.0455
27790W        W47324   3.246   4.093   0.270 -0.2675  0.2814 -0.1712
27791W        W47325  18.383  11.961  11.575  0.0432 -0.1815 -0.1596
27792W        W47326   5.591   3.194   1.843  0.0263  0.0229  0.0383
27793W        W47327   4.924   1.996  15.747  0.0018 -0.2585  0.0939
27794W        W47328  12.210   4.060  12.841  0.1079  0.0141 -0.1047
27795W        W47329   0.917  10.405  11.192  0.1611 -0.0958  0.0247
27796W        W47330  18.179  13.546   3.015 -0.2572  0.1173  0.0019
27797W        W47331   2.514   6.208   4.024 -0.0064  0.2353 -0.1428
27798W        W47332   8.138   2.517   3.676 -0.2054  0.3700 -0.0278
27799W        W47333  15.058   9.087   4.701  0.0063  0.2934 -0.1662
27800W        W47334   1.715   6.449  11.457  0.2673 -0.1662 -0.1160
27801W        W47335   0.589   5.242   1.936 -0.0418  0.1472  0.0736
27802W        W47336   0.014  12.819   3.531 -0.0457 -0.4646  0.0072
27803W        W47337  12.964  13.783   2.297  0.1990  0.0940 -0.1103
27804W        W47338   1.321   9.766  15.313  0.0412 -0.1576 -0.0410
27805W        W47339   9.361   8.639  13.534  0.0565 -0.0968 -0.1140
27806W        W47340  16.807  10.877  14.883 -0.1433  0.2577  0.1534
27807W        W47341  11.889   2.885   1.855 -0.1546  0.3475 -0.0430
27808W        W47342   4.281  12.005  15.260  0.0544 -0.0391  0.1253
27809W        W47343  14.470   1.473   0.073 -0.2107  0.0738 -0.0222
27810W        W47344   1.044   1.833   1.135 -0.0903  0.1365  0.1469
27811W        W47345   6.696   0.513   1.021  0.0852  0.0418  0.0434
27812W        W47346  13.376  16.348   4.605  0.0155  0.1845  0.0758
27813W        W47347  13.740   1.042   5.593 -0.1307  0.3357  0.2118
27814W        W47348   3.809   7.030  12.416 -0.0081 -0.1579  0.0529
27815W        W47349   9.298   8.120  12.666 -0.3584  0.0214 -0.0606
27816W        W47350  12.996   4.339  14.881  0.0083 -0.0526 -0.0313
27817W        W47351  13.602   4.463  14.757 -0.1369  0.1358  0.3701
27818W        W47352  14.110   2.444  14.523  0.0149  0.0478 -0.1916
27819W        W47353  12.743   1.444  13.068 -0.1947 -0.2288 -0.2272
27820W        W47354  17.898   4.849   1.244  0.0024  0.1508  0.3028
27821W        W47355  10.580  14.993  12.455  0.0954  0.0677  0.0218
27822W        W47356  17.640  14.658  12.541 -0.4299  0.0587 -0.0500
27823W        W47357   8.107   9.664   1.554  0.0513  0.4438  0.0065
27824W        W47358   6.945   6.664   0.745 -0.0103 -0.2975  0.0029
27825W        W47359  15.788   9.849  14.398  0.0584  0.2063 -0.1099
27826W        W47360  17.365  13.491  14.463  0.0542  0.2688 -0.0083
27827W        W47361  13.657  12.542  15.411 -0.3695 -0.1013  0.1476
27828W        W47362  17.051  11.118  12.654  0.0531 -0.1663 -0.2605
27829W        W47363   4.191  17.862   2.926  0.2510 -0.2052  0.0016
27830W        W47364   9.708   7.684  12.160  0.0900 -0.1817 -0.1362
27831W        W47365   9.939   8.742  13.380  0.1657  0.0277 -0.0892
27832W        W47366  14.058  17.619   2.390  0.0107 -0.1177 -0.3864
27833W        W47367  12.278  15.598   3.333 -0.2082 -0.0042  0.0803
27834W        W47368  14.936  13.998   4.385 -0.1836  0.0998 -0.1650
27835W        W47369   9.732  11.570  11.677 -0.1018  0.1276  0.0854
27836W        W47370   9.466   1.717   2.338  0.1480 -0.1918 -0.0857
27837W        W47371   7.881   5.302   5.572  0.2211  0.2002  0.0989
27838W        W47372  16.717   8.709   1.082  0.0486 -0.1538 -0.3736
27839W        W47373   1.191   5.120   3.341 -0.2593 -0.3013 -0.0621
27840W        W47374  10.084   3.475   1.343  0.0687  0.1124 -0.1648
27841W        W47375  15.700   0.135  13.690  0.1388 -0.1935  0.0815
27842W        W47376   9.660   3.293  10.334 -0.1829 -0.1378 -0.1707
27843W        W47377  12.827  14.620  11.609  0.0606  0.1756  0.0007
27844W        W47378   2.770   1.879  12.824 -0.0395 -0.2260  0.0240
27845W        W47379   2.246  10.156  15.361  0.0826  0.0582  0.1261
27846W        W47380   7.695  15.290  12.289 -0.0598  0.4079  0.0882
27847W        W47381   1.790   9.864   4.795 -0.1972  0.1340  0.3856
27848W        W47382  11.172  11.576  12.147  0.2527  0.3298  0.0279
27849W        W47383   4.713  18.005   2.219 -0.1100  0.1742 -0.1997
27850W        W47384   4.671  16.525   0.357 -0.2765 -0.1638 -0.1312
27851W        W47385  16.348  11.816   4.514 -0.1261 -0.0958  0.0669
27852W        W47386  17.999   0.968   3.481 -0.0361 -0.0474  0.0664
27853W        W47387   5.609  14.952   1.524  0.0344 -0.2925 -0.0571
27854W        W47388   2.583   8.301  15.233  0.4113  0.1095  0.1929
27855W        W47389   1.830  15.718   5.545  0.0082  0.0492  0.1917
27856W        W47390   3.703   4.751   1.456  0.1912  0.1000 -0.3067
27857W        W47391  11.262  16.439  13.797  0.2417 -0.1163  0.2058
27858W        W47392   4.292  11.413   1.425 -0.0941  0.0903  0.1459
27859W        W47393  12.338  10.703   2.428  0.1524  0.1331 -0.2236
27860W        W47394   5.634   6.661  12.122 -0.0077  0.1557  0.3381
27861W        W47395   8.671   6.518   0.595  0.1721 -0.4349  0.1992
27862W        W47396   7.296   7.205   3.539  0.0301 -0.3734  0.2019
27863W        W47397   7.357   8.672   0.258  0.1348  0.0425 -0.3329
27864W        W47398  13.148   9.542  13.062  0.0404  0.0222 -0.0757
27865W        W47399  16.001   0.157   3.061 -0.0402 -0.0038 -0.3309
27866W        W47400   3.381  12.728  11.030 -0.0397 -0.0947  0.0888
27867W        W47401   2.405   1.493   0.001  0.2023 -0.0062 -0.0766
27868W        W47402   8.774   1.073  12.215  0.0690  0.3357 -0.1118
27869W        W47403  13.435   6.057  12.231  0.0659 -0.2080  0.1327
27870W        W47404   8.699  13.608   2.293 -0.0274  0.0308 -0.1335
27871W        W47405   0.919  18.396  12.358 -0.2329 -0.0370  0.2243
27872W        W47406   2.609  11.514  13.098  0.0770  0.0112 -0.1194
27873W        W47407   6.309  15.865  15.010 -0.2998  0.2265  0.1664
27874W        W47408  13.581  13.247   1.652 -0.0044  0.1129 -0.0765
27875W        W47409   8.006   3.007   3.954 -0.1446  0.2474  0.0003
27876W        W47410   1.883  18.237   2.451 -0.0603 -0.2501 -0.1550
27877W        W47411  11.119  13.889   0.812 -0.0208 -0.3967 -0.0380
27878W        W47412   0.136  13.284   0.590  0.0133  0.0930  0.0660
27879W        W47413   4.838  16.966  13.027 -0.0970  0.1563  0.1023
27880W        W47414   8.635  17.331   3.021 -0.3511  0.0729  0.1167
27881W        W47415   8.996  10.630  13.012  0.1723 -0.1924 -0.2227
27882W        W47416   4.103   5.894   0.791 -0.0018  0.1129 -0.1019
27883W        W47417  11.710   9.234   2.804  0.0773  0.0205  0.1612
27884W        W47418  11.533   8.061  14.086  0.4466  0.0952 -0.0533
27885W        W47419   6.726  15.424  13.312 -0.0702 -0.0125 -0.1793
27886W        W47420  17.903  12.400   1.886  0.3205 -0.0675 -0.1156
27887W        W47421  11.928   1.224   2.646 -0.1464  0.0678  0.1529
27888W        W47422  12.435   2.547  12.095  0.2093  0.0003 -0.0093
27889W        W47423   1.390  11.115  11.111 -0.0055  0.0218 -0.0893
27890W        W47424  13.221  17.143   3.513  0.3740 -0.0110  0.3221
27891W        W47425   4.993  15.753  13.837 -0.0374  0.3537  0.3434
27892W        W47426   0.087   2.939   4.453  0.0765  0.0678 -0.0478
27893W        W47427   4.921  13.669  12.713 -0.0092 -0.0704  0.0446
27894W        W47428  12.935  17.061   3.107 -0.0629 -0.3261 -0.2410
27895W        W47429   9.949   3.151   0.970 -0.1976 -0.1110 -0.1800
27896W        W47430   8.559  14.514  11.656  0.2216  0.3282 -0.0262
27897W        W47431  12.675   7.957  14.783 -0.2407  0.0068  0.0301
27898W        W47432   2.279   3.149   2.288  0.2817 -0.0174  0.0988
27899W        W47433  10.252  14.619  14.379  0.2402 -0.2936 -0.2831
27900W        W47434   8.306   1.665   5.965 -0.0748  0.1023  0.0492
27901W        W47435  17.831   8.988  15.330 -0.0184 -0.1988 -0.1700
27902W        W47436   3.480   3.414   1.036  0.1583 -0.0263 -0.0400
27903W        W47437   2.712  17.311  13.414 -0.1987  0.0199  0.1370
27904W        W47438   7.955  10.681   1.162  0.0900  0.1762  0.1770
27905W        W47439  12.873   9.325   3.087 -0.0327 -0.0612  0.3452
27906W        W47440   1.783   4.339   4.168 -0.0272  0.0386 -0.2537
27907W        W47441  16.903  15.581  11.157 -0.1735 -0.2557  0.1400
27908W        W47442   5.959   7.189   1.450  0.0019  0.2105 -0.4188
27909W        W47443  12.683   0.515  11.555 -0.0335  0.0212 -0.3338
27910W        W47444   7.795  12.361   3.447 -0.2461 -0.0794 -0.2465
27911W        W47445   6.932   2.301   3.135 -0.2145  0.0998  0.1907
27912W        W47446  17.073   7.317  14.902 -0.0940  0.1654 -0.0305
27913W        W47447   0.480  15.572   4.426  0.2549  0.1810  0.0492
27914W        W47448   8.635  13.968   0.740  0.0847 -0.1217 -0.1016
27915W        W47449   2.659  14.736  12.119  0.3301 -0.0672 -0.0352
27916W        W47450  16.758   0.887   2.682 -0.1098 -0.1332  0.0798
27917W        W47451  12.729   5.265   3.244  0.1918 -0.2427  0.1248
27918W        W47452   2.898   8.465   1.928 -0.1753  0.0117  0.2894
27919W        W47453   5.145   2.073   5.775  0.2815 -0.1650  0.0717
27920W        W47454  10.130  12.971   4.584 -0.1747 -0.3428  0.1376
27921W        W47455   6.702   6.757   2.947 -0.0263  0.2004  0.1735
27922W        W47456   3.816  17.384   0.231  0.0747 -0.2422  0.2605
27923W        W47457   3.338  10.388   4.307 -0.1586  0.4125  0.0388
27924W        W47458   8.480   2.635  14.002 -0.0991 -0.0365 -0.2134
27925W        W47459  17.734   1.477   2.765  0.0871 -0.3718  0.2925
27926W        W47460   9.989   8.778   3.543 -0.0418  0.0415 -0.0646
27927W        W47461   2.357   0.934   0.706  0.3719 -0.0669  0.2468
27928W        W47462   7.907   6.571  15.640  0.2389  0.0612  0.0528
27929W        W47463   9.918   2.164   4.558  0.0139  0.1397  0.2180
27930W        W47464   8.885  14.992  15.755 -0.0074 -0.0598  0.0338
27931W        W47465   8.175   6.976  13.277 -0.2561  0.0524 -0.1418
27932W        W47466   6.346   8.184   1.198 -0.6111  0.0410  0.1489
27933W        W47467   3.061   5.968  13.997 -0.1505  0.0173 -0.0341
27934W        W47468  15.627  15.891  13.233 -0.1893 -0.1717  0.0121
27935W        W47469   4.656  10.641  13.433  0.1262 -0.0916  0.1711
27936W        W47470  12.982   1.438  12.319 -0.1668  0.0140  0.2380
27937W        W47471  13.716  14.576   4.678  0.0620  0.0874 -0.0648
27938W        W47472  12.322  12.979   1.333 -0.1147  0.0388 -0.0009
27939W        W47473   5.515   9.361   2.952  0.0398  0.1051  0.1205
27940W        W47474   9.078  18.402  12.808 -0.0660 -0.2577  0.3036
27941W        W47475  12.214  14.817  12.106  0.3805  0.1635 -0.1467
27942W        W47476   5.733  11.582  15.456 -0.0555  0.0482  0.0470
27943W        W47477   5.547   4.494  13.607 -0.1611 -0.0746  0.0236
27944W        W47478  11.908  13.601   3.060 -0.1795  0.3370 -0.0322
27945W        W47479  15.062  15.115  13.959  0.1386  0.0894 -0.1491
27946W        W47480   7.124  10.503   1.369 -0.3339  0.1870 -0.0204
27947W        W47481  14.016   1.574   1.081 -0.4454 -0.2135 -0.0583
27948W        W47482   4.076  18.119   2.520 -0.1267 -0.0733  0.1836
27949W        W47483  14.594  14.554  11.491 -0.0679  0.2405 -0.2345
27950W        W47484   3.839   6.529  12.563  0.5326 -0.0236  0.1763
27951W        W47485   8.787   6.112   2.320 -0.1078 -0.0159 -0.1848
27952W        W47486  17.932   1.557  13.012 -0.0527  0.2919  0.3827
27953W        W47487   0.744   4.394  14.227 -0.1021 -0.1341 -0.1752
27954W        W47488  14.711  13.755  12.041  0.1753  0.1967 -0.0418
27955W        W47489   8.096   4.167  12.632 -0.0052 -0.2179  0.3491
27956W        W47490   8.846   1.995  15.073  0.0921 -0.0143  0.2827
27957W        W47491  12.254   6.182  12.605  0.2133 -0.2391  0.2184
27958W        W47492   7.088   7.006  14.074  0.2352  0.1431  0.0919
27959W        W47493  12.067  12.929   3.221 -0.1702 -0.1325 -0.1165
27960W        W47494  12.290  17.995   0.257 -0.1877  0.1782  0.0661
27961W        W47495  18.009  16.591   3.875  0.0167 -0.0924  0.3196
27962W        W47496  10.604  13.056  14.048  0.0693  0.1867 -0.2009
27963W        W47497  10.721  13.722  14.148  0.0719 -0.0599 -0.2422
27964W        W47498   3.993   9.215  14.751  0.1721  0.0104 -0.0847
27965W        W47499  10.410  18.217  12.363 -0.1282 -0.1845 -0.1161
27966W        W47500   8.169   2.300  12.158 -0.1477  0.1939 -0.2885
27967W        W47501   5.396  14.494   3.387 -0.0486  0.3480  0.0874
27968W        W47502   7.058   0.958   0.978  0.0674 -0.0223  0.0376
27969W        W47503   7.550   3.022   3.317  0.3691 -0.0194 -0.3741
27970W        W47504  11.849  17.870  12.947  0.2873 -0.1373 -0.1072
27971W        W47505  18.260  12.682  10.563 -0.1570 -0.1167 -0.2808
27972W        W47506  15.821   7.527   0.829 -0.2689  0.0819 -0.1203
27973W        W47507   2.558   8.838   3.422 -0.2550 -0.1772 -0.0361
27974W        W47508   3.201  11.223  11.175  0.1113 -0.1138  0.1619
27975W        W47509   9.341  13.009  15.030 -0.0526 -0.1636  0.0803
27976W        W47510   9.827   7.796   4.105 -0.1529 -0.1202  0.3025
27977W        W47511   0.088  11.864  14.720 -0.1282 -0.0156 -0.4992
27978W        W47512   9.635   0.384   6.286 -0.0289 -0.0421  0.3784
27979W        W47513   2.804  12.911   5.302 -0.3113 -0.2539 -0.1476
27980W        W47514   9.724  12.855   5.507 -0.0942  0.0327 -0.0010
27981W        W47515   2.569   0.134  15.341  0.0781  0.2218 -0.0546
27982W        W47516   7.503  14.234  14.080  0.5001 -0.1639 -0.2094
27983W        W47517   6.811  12.397  11.196 -0.2578  0.2057  0.0497
27984W        W47518   6.535  14.986   0.035  0.3306  0.2040  0.0807
27985W        W47519   6.282   0.305   3.599 -0.1985  0.1516 -0.1055
27986W        W47520   5.164   9.853   4.060  0.2308 -0.1924  0.0570
27987W        W47521   0.804  13.918  14.217 -0.0919 -0.1027  0.0901
27988W        W47522  11.683   2.145  12.469  0.6314 -0.1672 -0.1503
27989W        W47523  17.228  11.695   3.525 -0.1645 -0.2064  0.0869
27990W        W47524   0.388  16.972  12.739 -0.0831 -0.0512  0.0905
27991W        W47525   1.474   8.025   2.352  0.3939 -0.2433  0.1598
27992W        W47526  12.112  17.455   2.911 -0.2685  0.2163  0.1665
27993W        W47527  14.419   8.315  12.597  0.1666  0.1517 -0.0387
27994W        W47528   9.896  15.000  13.620 -0.1110  0.1769 -0.5808
27995W        W47529   4.547   9.323  15.715  0.0320 -0.3525  0.2392
27996W        W47530  10.850   7.694  12.616  0.1433 -0.1722  0.2272
27997W        W47531   0.004   1.522   3.857  0.3332 -0.2088 -0.0485
27998W        W47532  16.641   8.713  11.576  0.2147 -0.1000 -0.0128
27999W        W47533  17.109  10.192  12.462  0.1198  0.0073  0.1719
28000W        W47534   3.449   7.612  13.979 -0.1126 -0.0510 -0.2258
28001W        W47535   8.740  10.196  15.527  0.0603 -0.0917  0.0744
28002W        W47536   2.570  14.492  15.559  0.2408 -0.1238  0.1582
28003W        W47537   5.263   7.884  14.179  0.0417 -0.1147 -0.1343
28004W        W47538   6.121   0.076  14.480  0.1254  0.0440  0.0651
28005W        W47539  11.933   3.330   6.009  0.3415  0.0277  0.6025
28006W        W47540   9.523   6.036   0.883 -0.0106  0.1657 -0.0395
28007W        W47541  17.624  10.929   2.790 -0.2960 -0.2376  0.0433
28008W        W47542  15.176   8.771  15.532 -0.2555  0.1531  0.0293
28009W        W47543   1.225   8.829   0.686  0.1576  0.0933 -0.2621
28010W        W47544  14.213  12.589  14.693  0.1795  0.1369 -0.1934
28011W        W47545  12.215   5.207   1.302 -0.0598 -0.1796 -0.2516
28012W        W47546   5.260   3.204  13.937 -0.1185  0.2830  0.0354
28013W        W47547   9.878  12.698   0.598  0.4449  0.1328  0.2845
28014W        W47548   7.527   0.377  14.059  0.1582 -0.0231 -0.2239
28015W        W47549   0.463   1.787   4.723  0.2080 -0.2175 -0.1282
28016W        W47550  11.542  11.168   4.657  0.1367  0.0296 -0.1915
28017W        W47551  18.313   8.967  15.598 -0.3564 -0.0762  0.3333
28018W        W47552   6.256  15.525  11.419  0.0352 -0.0168  0.0417
28019W        W47553  12.042   2.402  15.766  0.0427 -0.1285 -0.1527
28020W        W47554  13.210   5.790   1.019  0.2519 -0.1833  0.1474
28021W        W47555   2.587  14.424   4.085  0.0116 -0.5221 -0.3360
28022W        W47556   6.141  11.559   0.507  0.0238  0.0253  0.1965
28023W        W47557   6.594  16.973   5.918 -0.0677  0.2613 -0.0381
28024W        W47558  11.971  11.544  13.931 -0.0085  0.0583 -0.1149
28025W        W47559  11.424  10.224  12.624  0.2028 -0.0384  0.1698
28026W        W47560  10.396   6.062  12.738  0.0671  0.5418 -0.0389
28027W        W47561   7.561   6.597  12.999  0.0313 -0.0952  0.2665
28028W        W47562  11.900   6.402  11.467  0.4044  0.2453  0.1347
28029W        W47563   0.817   0.062   3.364 -0.4638 -0.2270  0.1263
28030W        W47564   0.425   3.109  14.847  0.1212  0.3220  0.1467
28031W        W47565   8.333   3.548  12.020 -0.0017 -0.1553  0.0380
28032W        W47566   5.092   1.556  13.407  0.2266 -0.0289  0.4493
28033W        W47567   8.970   6.701   0.887 -0.2494 -0.1688 -0.0659
28034W        W47568  17.516   1.111  12.300 -0.2836 -0.2002  0.1661
28035W        W47569  10.662   5.262   2.127  0.1575 -0.3299  0.0724
28036W        W47570  17.606   1.099   2.422 -0.1340 -0.1547  0.0061
28037W        W47571  11.343   6.490   1.352 -0.1844 -0.1440 -0.0068
28038W        W47572  13.792   7.219  14.643  0.1574 -0.0100  0.1497
28039W        W47573   7.869  15.118  14.174  0.0030 -0.0377  0.0989
28040W        W47574   7.834  12.550  14.191 -0.2481  0.0907 -0.1347
28041W        W47575   1.895  15.900   4.001  0.0923  0.2057 -0.2988
28042W        W47576  10.710   9.877  13.315 -0.1871  0.2610 -0.5975
28043W        W47577  17.011   5.558  12.631  0.0715  0.1120 -0.1728
28044W        W47578  17.559   8.401   0.769 -0.0402  0.1915 -0.0155
28045W        W47579   1.020   2.749   5.813 -0.1902 -0.2039  0.2224
28046W        W47580   0.737  12.275   0.089  0.2912 -0.2704  0.1637
28047W        W47581   1.256  17.558   1.498  0.4088  0.2072  0.1161
28048W        W47582   0.662  17.685  10.702 -0.0981  0.3497  0.1555
28049W        W47583  17.437   9.663  14.611 -0.3382  0.0150  0.2742
28050W        W47584   8.152  13.942  13.292  0.1718 -0.4064  0.2294
28051W        W47585   1.216   0.973  11.815 -0.1626  0.1784 -0.0001
28052W        W47586   3.801  12.068  15.001 -0.1619  0.0807 -0.2565
28053W        W47587   6.117  15.583   3.969  0.0101 -0.0103 -0.0216
28054W        W47588  16.188   0.924   2.046 -0.0171 -0.1342 -0.0331
28055W        W47589  11.767   4.349  11.949  0.3046 -0.0522  0.2051
28056W        W47590   5.072  11.244   4.109 -0.1828  0.0765  0.1431
28057W        W47591  10.333  17.599   4.398 -0.0158  0.0711 -0.1658
28058W        W47592   9.767  12.528   0.074 -0.0012  0.1331  0.0470
28059W        W47593  17.071   7.579  15.304 -0.2891 -0.0054 -0.0142
28060W        W47594   8.161  14.997   0.738 -0.1502 -0.1671  0.1026
28061W        W47595  17.551  11.783   3.119 -0.2571  0.1314  0.0903
28062W        W47596  14.690  14.348   1.921  0.0411  0.1204  0.2112
28063W        W47597  14.086   9.968  13.818 -0.1496  0.1068  0.1753
28064W        W47598  16.430   3.680  12.168  0.1355 -0.1294  0.0128
28065W        W47599   7.342  17.921   5.205  0.0418  0.3904 -0.1875
28066W        W47600   3.994   2.193  11.505  0.2821  0.0941 -0.1286
28067W        W47601  17.756   6.350   4.426  0.2646  0.0601  0.1731
28068W        W47602  12.864   0.094   0.692 -0.1854  0.2508 -0.1030
28069W        W47603   6.830   9.529   1.165  0.1286 -0.0342 -0.2709
28070W        W47604  12.842  11.921  12.373 -0.0729  0.0692 -0.4110
28071W        W47605  17.928  11.607   4.253 -0.0435  0.0833 -0.2151
28072W        W47606  12.890   3.935   3.769 -0.0886  0.1506  0.0994
28073W        W47607   4.767  12.546   2.357  0.1161 -0.2934 -0.2530
28074W        W47608  10.730  14.743   4.722 -0.1657 -0.0969 -0.0911
28075W        W47609  17.402   3.983   1.250  0.2810  0.3237  0.2203
28076W        W47610  16.899  11.424  11.721 -0.0529 -0.1166  0.4491
28077W        W47611  14.790   5.775   5.001  0.2367 -0.0106 -0.0518
28078W        W47612   7.369  14.494  13.672 -0.0405 -0.0859  0.0805
28079W        W47613   8.831   3.249  15.316 -0.1055 -0.0299  0.0713
28080W        W47614  14.285   6.171  13.462  0.1936 -0.1849  0.0574
28081W        W47615  13.382  11.927   4.805 -0.0521 -0.2192 -0.1421
28082W        W47616   0.307  12.039   0.798  0.2174 -0.2941 -0.0903
28083W        W47617  11.951  15.890   2.093  0.1415 -0.0466 -0.1858
28084W        W47618   3.806  12.157  11.903 -0.0267  0.2133  0.0077
28085W        W47619  12.865   0.509   0.997 -0.1413  0.1915  0.1049
28086W        W47620  15.832   9.300  12.428 -0.2134 -0.2063  0.0374
28087W        W47621   6.663  11.362  13.927  0.1792  0.2630 -0.0771
28088W        W47622  15.607   6.217  14.126 -0.0068  0.0841 -0.2467
28089W        W47623   6.645   3.096  14.758 -0.1110 -0.0877 -0.0162
28090W        W47624   8.214   4.389  12.100 -0.1494 -0.0908  0.3381
28091W        W47625   2.225   1.429  11.240  0.4044 -0.3964 -0.1403
28092W        W47626   9.759  17.975   0.170 -0.2558  0.1247  0.0555
28093W        W47627  10.382  15.618   1.660 -0.1481  0.3704  0.2058
28094W        W47628   1.867  12.142   2.457 -0.1449 -0.0602 -0.1677
28095W        W47629  10.113  17.989  13.356  0.2019 -0.0188 -0.1999
28096W        W47630   3.464   3.005   3.916 -0.0118 -0.0756 -0.0601
28097W        W47631   2.176   6.499   1.954 -0.0736  0.0225  0.0232
28098W        W47632   5.648   6.106  14.284 -0.0625 -0.0574 -0.0129
28099W        W47633  13.023   2.224  11.540 -0.1334 -0.1240  0.0009
28100W        W47634   2.124   3.429   3.737  0.0078 -0.0452  0.1721
28101W        W47635   2.139   1.637  13.874 -0.2111 -0.1093 -0.0344
28102W        W47636   1.454   7.469   4.973 -0.1551  0.0146 -0.2958
28103W        W47637   9.514   2.296   1.269  0.1282  0.0624 -0.0829
28104W        W47638   0.831   6.087   3.756 -0.0666 -0.0100 -0.1766
28105W        W47639   5.350  17.074  14.103 -0.1150  0.1520  0.0477
28106W        W47640   7.210  15.280   2.895  0.2585  0.0027  0.0746
28107W        W47641   8.283  17.411  14.490 -0.0791  0.0410 -0.2076
28108W        W47642   7.538   5.625   4.742  0.1365  0.0178 -0.0084
28109W        W47643   5.802   6.816  14.782 -0.0294  0.1816  0.1370
28110W        W47644  16.790   5.304   1.718  0.4286 -0.0216  0.1965
28111W        W47645  11.935   0.338   0.494 -0.2814 -0.2046  0.0384
28112W        W47646  11.734  10.653  15.299  0.0626 -0.3411  0.1938
28113W        W47647   2.645   1.450  12.914 -0.0543 -0.1729  0.2059
28114W        W47648   6.637  12.391   0.704 -0.1775  0.2814  0.1308
28115W        W47649   4.394   3.771  13.327 -0.0321 -0.1028  0.1584
28116W        W47650  14.032  15.886  11.537 -0.2344  0.1945 -0.1662
28117W        W47651  14.435  10.060  13.314  0.0604 -0.3059 -0.0207
28118W        W47652  17.952   3.142   0.826 -0.0097  0.1400 -0.1966
28119W        W47653  12.647   8.093  11.583  0.0720  0.3559  0.0490
28120W        W47654  16.616   2.657  14.484 -0.0077 -0.0070 -0.1721
28121W        W47655  17.172   9.904  10.881 -0.2640  0.2840  0.0300
28122W        W47656   4.452   2.176  11.288 -0.1521 -0.1287 -0.3012
28123W        W47657  13.485  14.435   3.131  0.2156 -0.3539 -0.0655
28124W        W47658   0.805   3.467   5.451  0.3211 -0.1062  0.0593
28125W        W47659   5.683   6.766  13.749 -0.0326 -0.0767  0.1296
28126W        W47660   0.243  13.988  13.373  0.3559 -0.1066 -0.0301
28127W        W47661   9.983  13.356   4.214 -0.0406 -0.0512 -0.3017
28128W        W47662  16.561  13.051   2.413 -0.0851  0.1208  0.1086
28129W        W47663   9.515   9.306   3.885  0.3003  0.0343  0.1718
28130W        W47664   9.474  14.313  14.602  0.1199  0.2767 -0.0325
28131W        W47665  13.741  10.370   0.543 -0.3388  0.0887  0.1118
28132W        W47666   9.538   2.454   5.235 -0.1224 -0.0102  0.1719
28133W        W47667  13.738   9.420   2.728 -0.1541 -0.0271  0.0183
28134W        W47668   2.450   2.573  12.392  0.0140 -0.0704  0.1338
28135W        W47669  10.536  15.553  11.320 -0.0611  0.0234  0.1007
28136W        W47670   8.555   8.362   3.587  0.0586 -0.1743  0.2235
28137W        W47671   0.346   7.935   3.375 -0.2562 -0.1828 -0.2166
28138W        W47672  14.653  11.176   0.229  0.1277  0.1164 -0.0469
28139W        W47673   7.945  16.826   4.698 -0.0017 -0.3611  0.2984
28140W        W47674   6.864   2.115   3.617  0.1317 -0.0564  0.0026
28141W        W47675  18.235   2.552  13.090 -0.0480 -0.2526 -0.0148
28142W        W47676   3.609  14.548  12.138  0.1508 -0.3649 -0.0819
28143W        W47677  12.357   0.216  12.339 -0.3622 -0.2287 -0.2117
28144W        W47678  13.488   9.856  12.818  0.2903 -0.0204 -0.0659
28145W        W47679  15.262  14.926   2.786  0.0678 -0.0926  0.0871
28146W        W47680   5.646   1.814   3.834  0.1555 -0.4074  0.0979
28147W        W47681   9.262   5.604   3.937 -0.1732 -0.1980  0.2234
28148W        W47682   1.566   2.004   1.248  0.0516 -0.1147 -0.1470
28149W        W47683   9.972  12.580   1.624  0.0661 -0.1785 -0.1083
28150W        W47684   8.086   5.497   0.435 -0.0918  0.0500  0.1742
28151W        W47685  16.608   0.513   3.309  0.2445  0.2294  0.1044
28152W        W47686   5.900   1.223   0.002 -0.1635  0.2522  0.2523
28153W        W47687   7.835  10.157   3.373  0.3635  0.4511 -0.1576
28154W        W47688   6.141   4.530   3.394 -0.0117  0.0201  0.0344
28155W        W47689  11.288   2.544   0.464 -0.0575 -0.3728 -0.2000
28156W        W47690  11.871   2.711  13.909  0.2071  0.3035 -0.0849
28157W        W47691   1.216  16.307   0.453 -0.1323  0.2842 -0.2810
28158W        W47692   4.992   3.273  12.052 -0.0770  0.1290  0.0568
28159W        W47693   5.304   0.994  12.552  0.1206  0.2411  0.0813
28160W        W47694   5.497   0.526   2.491 -0.0669 -0.0631 -0.0814
28161W        W47695  15.976   3.109  15.543 -0.0136  0.2042  0.0023
28162W        W47696   8.378  11.432  11.254 -0.0521 -0.0513  0.1282
28163W        W47697  10.606   1.428   4.175  0.0234 -0.0573  0.6685
28164W        W47698  14.904   1.774  13.585  0.0251 -0.3627  0.1450
28165W        W47699  15.439   4.648  14.502 -0.1520 -0.0126 -0.4082
28166W        W47700   2.859  10.153  14.372 -0.0433 -0.0885 -0.2844
28167W        W47701  16.400  16.251   1.395  0.0933 -0.3176  0.3826
28168W        W47702  10.373  16.741  12.699  0.1991  0.0183  0.1683
28169W        W47703   6.294   2.044  11.357 -0.2764  0.0711  0.0908
28170W        W47704   5.751  17.726   1.361  0.0654  0.2215  0.0119
28171W        W47705  15.400  16.448  11.772 -0.0340 -0.1593 -0.1093
28172W        W47706   1.621   2.098   3.282  0.0013  0.0716  0.0298
28173W        W47707   3.674   9.111  15.693 -0.0733  0.1399 -0.0544
28174W        W47708   8.089   5.567  13.729  0.2671  0.0120 -0.0258
28175W        W47709  10.889  17.328  13.099 -0.1996  0.1910  0.1045
28176W        W47710   0.667  12.574   3.342  0.0547 -0.2156 -0.1463
28177W        W47711   5.769   8.152  11.073  0.0200  0.2577  0.0977
28178W        W47712   8.611  13.382   2.933 -0.2101 -0.1618 -0.2164
28179W        W47713  16.160  10.343   1.515 -0.3935  0.0295  0.1045
28180W        W47714  15.735  15.752  10.748  0.1122  0.0884 -0.0044
28181W        W47715   0.036   3.815   0.831  0.0034  0.0384  0.2022
28182W        W47716   1.615   6.873   5.079  0.0602  0.0935  0.2410
28183W        W47717  11.152   5.044  12.811 -0.3339 -0.1508  0.0352
28184W        W47718   3.302  17.168   1.832  0.2352  0.0813 -0.2053
28185W        W47719   0.738  12.483  15.354 -0.4824 -0.0622  0.2797
28186W        W47720   8.639   8.944   1.131 -0.0756  0.2477 -0.2664
28187W        W47721  11.070  17.887   4.000  0.2321  0.4205 -0.0013
28188W        W47722  16.410   9.329   1.983  0.2935  0.1072  0.0306
28189W        W47723  12.131  15.654   2.691 -0.1912  0.1299 -0.0619
28190W        W47724   3.797   8.621   3.616  0.1873 -0.2461  0.2972
28191W        W47725  15.337  11.731   2.527 -0.2459 -0.0217 -0.0156
28192W        W47726   0.459   4.196  13.246 -0.0419  0.2149  0.0880
28193W        W47727  10.567   5.845   0.651  0.0874  0.3520 -0.0068
28194W        W47728  16.083   6.811   3.650  0.0403  0.0987  0.0431
28195W        W47729   8.697   2.171  11.534  0.3020  0.0116  0.0172
28196W        W47730  17.373   8.102  11.564  0.1185 -0.2645  0.0071
28197W        W47731   9.100  12.568  14.072  0.2447 -0.1550 -0.0305
28198W        W47732   6.775  16.794  13.303 -0.1659  0.0893  0.0643
28199W        W47733  10.402   5.317   2.543  0.2085  0.2790 -0.2259
28200W        W47734   7.892  13.551  12.999  0.0928 -0.2807 -0.2791
28201W        W47735  17.185   9.314   0.287  0.0530 -0.1530  0.2091
28202W        W47736   9.824   7.614   3.110 -0.1310  0.1261  0.0206
28203W        W47737   1.046   9.421  13.207  0.2440  0.0194  0.1898
28204W        W47738  15.731   9.231   0.458  0.0945 -0.0660 -0.1000
28205W        W47739   6.065  15.642  14.633 -0.2260 -0.0086 -0.1758
28206W        W47740  14.659  11.956  11.225 -0.0181  0.1698 -0.0519
28207W        W47741  14.918   4.772  14.723 -0.0948 -0.2103  0.3242
28208W        W47742  16.360  11.209  14.013  0.0105  0.0577 -0.1999
28209W        W47743  18.365   2.464   0.491 -0.0191 -0.0570  0.1266
28210W        W47744  16.680  15.960   4.062  0.2330  0.2715 -0.3322
28211W        W47745   5.185   3.785   0.325 -0.0320  0.1000 -0.0953
28212W        W47746   4.824  13.636  14.655 -0.0356  0.0110 -0.1947
28213W        W47747   6.092   7.372   4.745  0.0799 -0.0032 -0.1517
28214W        W47748   5.716  11.008  13.829 -0.0171 -0.0108  0.2132
28215W        W47749   0.396   8.193  14.893  0.0699  0.2182 -0.0642
28216W        W47750   7.110  11.954  13.194  0.1348 -0.1698 -0.2233
28217W        W47751   4.103  15.498  13.047 -0.0573  0.2664  0.2487
28218W        W47752  10.969  11.344  14.665  0.0848 -0.0347  0.2482
28219W        W47753   3.827   7.881  13.425 -0.0384 -0.0173 -0.0546
28220W        W47754   6.553   5.800  11.607  0.0654 -0.2604 -0.2516
28221W        W47755  13.850   8.447  11.670  0.0076 -0.0886 -0.1992
28222W        W47756  16.143   9.736   2.828 -0.2073 -0.0894  0.0447
28223W        W47757   6.170   6.142  12.385  0.0272  0.1555  0.1204
28224W        W47758   1.247  16.455  14.942  0.1936 -0.0535  0.2377
28225W        W47759  15.317  11.442  12.561  0.0972 -0.3200 -0.0871
28226W        W47760   0.974  17.417  12.268 -0.1175  0.0067  0.1018
28227W        W47761  11.477   4.202  14.393 -0.0373  0.2455  0.1697
28228W        W47762   9.724  15.147  12.077 -0.1326 -0.1486 -0.0225
28229W        W47763   3.069   5.439  12.758  0.0733 -0.1780  0.2374
28230W        W47764  16.653   4.431   2.585 -0.1140 -0.1402  0.2955
28231W        W47765   6.642   2.938   2.515 -0.0768 -0.0797 -0.1015
28232W        W47766   7.394  13.407  13.971 -0.1351  0.0876 -0.1628
28233W        W47767   2.184  13.437  11.249 -0.3843  0.0358 -0.1633
28234W        W47768   8.681   0.251  14.560 -0.0549  0.2470  0.1648
28235W        W47769  13.388   5.877  14.690 -0.3196 -0.0370 -0.4214
28236W        W47770  17.863  13.950   3.105 -0.4541 -0.0156 -0.0525
28237W        W47771   0.997   3.860   4.013  0.0512  0.1944 -0.0971
28238W        W47772  18.035  11.375   0.941  0.0729 -0.3250  0.1490
28239W        W47773  13.890  12.861  10.452  0.0459 -0.1218  0.2093
28240W        W47774   7.191  10.028  15.835  0.0330  0.2604  0.0059
28241W        W47775   7.019   2.120  13.963 -0.1423  0.0092  0.1792
28242W        W47776  11.584  15.620   1.781 -0.0286 -0.3395  0.2101
28243W        W47777  16.908  11.957  12.564 -0.0041 -0.3589 -0.1232
28244W        W47778  14.208  13.197  14.284  0.0215  0.3257  0.2279
28245W        W47779   5.832  14.275  14.444  0.0244 -0.1460  0.1071
28246W        W47780  16.948   0.972   0.995 -0.1362 -0.0888  0.3461
28247W        W47781  13.555   9.268  13.976 -0.2451  0.0394  0.0249
28248W        W47782   9.560   9.031  14.553 -0.1945  0.1131 -0.0812
28249W        W47783  10.974   1.304   1.919  0.3826 -0.3820  0.1106
28250W        W47784   7.155  13.431  15.737 -0.0329 -0.4670 -0.0839
28251W        W47785  15.694  18.132   2.759  0.2006  0.0261 -0.2929
28252W        W47786   1.109   3.475  10.917  0.0512  0.2472  0.3007
28253W        W47787   2.398  10.314   3.118 -0.0276  0.1500 -0.1777
28254W        W47788  13.955   4.917  12.630  0.0485 -0.0218 -0.1283
28255W        W47789   0.942  15.863   1.282  0.0514 -0.0358  0.1332
28256W        W47790  15.877   1.474  13.410  0.0080  0.0565  0.1975
28257W        W47791   8.146   0.668   4.692 -0.0338  0.0764  0.1165
28258W        W47792  11.332   4.876   4.180  0.1199 -0.1098 -0.0230
28259W        W47793  17.246  15.765  11.958  0.0184 -0.2469 -0.2130
28260W        W47794   6.736   1.470   4.773 -0.0701 -0.2280  0.3834
28261W        W47795   5.110   6.669   3.846  0.0341  0.1185  0.0356
28262W        W47796  11.399   7.421   2.932  0.0978  0.0143  0.0390
28263W        W47797   8.916  13.682  14.490 -0.2879 -0.1572  0.1221
28264W        W47798   2.305   7.070   3.640  0.1963  0.0509 -0.1635
28265W        W47799   3.780   5.562  15.167  0.0296 -0.2186  0.1105
28266W        W47800   9.337   3.486  12.100 -0.1852 -0.0231 -0.0205
28267W        W47801   2.857  14.714   2.879 -0.2975  0.0736 -0.0593
28268W        W47802   1.272   5.106   0.642  0.1430  0.1574 -0.2642
28269W        W47803  18.351   2.224   2.278  0.1038  0.1239 -0.0471
28270W        W47804   1.253  10.472  13.247  0.2616 -0.1408  0.3115
28271W        W47805   6.109   3.229   0.366  0.0866  0.0172 -0.1671
28272W        W47806  10.387   9.773   2.393  0.0151 -0.4914  0.1112
28273W        W47807   1.253  13.664  14.374 -0.3856 -0.0775 -0.1393
28274W        W47808   5.143  14.815   2.368 -0.1613 -0.0528 -0.3751
28275W        W47809  11.736  17.476   5.224  0.0794 -0.0687 -0.2462
28276W        W47810   0.938  12.497   2.587  0.0145 -0.0442  0.1336
28277W        W47811  17.995   7.152  11.940 -0.0868 -0.4321  0.1046
28278W        W47812  18.183   2.683  15.541 -0.0649  0.0397  0.2461
28279W        W47813  13.372  16.165   0.944  0.0060  0.0620 -0.0125
28280W        W47814  12.741   8.914  14.969  0.0285  0.3932  0.1043
28281W        W47815   4.205  12.487   4.620 -0.1561 -0.2184  0.0746
28282W        W47816  16.017   0.164  12.047 -0.1968  0.1076  0.0267
28283W        W47817  13.495   8.214   0.738 -0.1695 -0.1962 -0.3531
28284W        W47818   4.162   0.298  14.496 -0.1268  0.0358 -0.3663
28285W        W47819  13.114   2.526   3.811  0.0248  0.1753  0.3100
28286W        W47820  14.140  11.110  15.625 -0.2670 -0.4704 -0.0960
28287W        W47821   0.029   0.947  11.874  0.0140 -0.0069  0.0077
28288W        W47822   3.673   9.963   2.402  0.0419 -0.0508 -0.1327
28289W        W47823   7.127  17.093  10.645 -0.1324 -0.1055 -0.0416
28290W        W47824  10.099  16.650  15.588 -0.0154 -0.1569  0.0553
28291W        W47825   0.751  15.677   2.291  0.3009  0.4102 -0.2840
28292W        W47826  17.253   1.229   4.634 -0.0920 -0.4142  0.0034
28293W        W47827   5.812   2.979   1.250  0.3781  0.1108  0.3499
28294W        W47828  10.784   2.898   3.402  0.2242  0.2403  0.0928
28295W        W47829  13.878   9.635  14.512  0.1346 -0.0932 -0.1356
28296W        W47830  11.558   6.282  13.598  0.0130 -0.0899  0.1074
28297W        W47831   5.079   5.985   1.424  0.0441 -0.0784 -0.1223
28298W        W47832   2.646  15.072  13.462 -0.0650 -0.0701  0.3048
28299W        W47833   5.646  15.660   4.101  0.0221 -0.0331 -0.1017
28300W        W47834   8.249   0.211  13.206  0.0440 -0.0059 -0.0035
28301W        W47835  13.970   5.309   3.828  0.0036  0.3218  0.0846
28302W        W47836   3.843  13.142   3.772 -0.0738  0.1593  0.1250
28303W        W47837   5.936   7.800   0.447 -0.0400 -0.2898 -0.2220
28304W        W47838  14.498   4.537   0.256 -0.0097  0.2866  0.0721
28305W        W47839  10.445  13.461  12.780 -0.4420  0.1516 -0.0187
28306W        W47840   4.218   7.032   0.364  0.0162 -0.0314 -0.1072
28307W        W47841  16.046   7.420  11.221  0.2646 -0.0030 -0.0029
28308W        W47842  12.328  18.222  14.542 -0.1597  0.0633  0.0749
28309W        W47843   2.535   5.117   3.327 -0.3304  0.2675  0.2080
28310W        W47844   5.197   9.919  12.507  0.0490 -0.3474  0.0729
28311W        W47845  13.059   6.198  14.853  0.0116 -0.1845 -0.1001
28312W        W47846  15.880  17.947   5.588  0.1920 -0.0720  0.2501
28313W        W47847  17.646   8.319  12.169 -0.1060 -0.0847 -0.3728
28314W        W47848   7.330  13.559  11.768  0.0307 -0.1880  0.0469
28315W        W47849  17.858   0.553   1.550 -0.3857  0.1930  0.0372
28316W        W47850  14.124   1.964  14.363  0.0163 -0.1623 -0.2565
28317W        W47851  16.674  17.242   0.432  0.0906  0.0970  0.1688
28318W        W47852  17.948   0.449  11.875  0.0136 -0.1644 -0.0495
28319W        W47853   6.254   4.036  13.110 -0.1605 -0.0520 -0.2024
28320W        W47854   4.670  13.895  13.176 -0.0439 -0.0116  0.1258
28321W        W47855   6.994   1.085  12.958 -0.1111  0.0858  0.0805
28322W        W47856   8.539  10.539   4.724  0.2023  0.1294  0.0714
28323W        W47857  10.639   4.547   1.939  0.0084  0.3847 -0.2169
28324W        W47858   6.730  15.878   0.278 -0.0358 -0.1400  0.0171
28325W        W47859   6.671  11.604   3.153  0.3395  0.1712 -0.0456
28326W        W47860   5.945  10.734  13.497 -0.1540 -0.1505  0.1148
28327W        W47861  16.977   6.718   3.967  0.3417  0.0390 -0.0213
28328W        W47862   1.035   7.332   2.911 -0.0123 -0.1186  0.0474
28329W        W47863   4.153  11.234   3.197 -0.2467 -0.1366  0.0838
28330W        W47864  11.895  12.442   3.133 -0.2547  0.1591  0.1603
28331W        W47865  18.381  10.072  13.115  0.3290 -0.1087 -0.2000
28332W        W47866  13.530  17.073  14.024 -0.0328 -0.0632  0.0183
28333W        W47867  17.477  17.657   4.350  0.0781  0.4368 -0.0447
28334W        W47868  17.638  11.190  14.038 -0.0409 -0.0611 -0.1057
28335W        W47869  12.967   3.459  12.134 -0.3068  0.1115  0.3568
28336W        W47870   4.790  16.818   4.441 -0.3225 -0.0237 -0.0769
28337W        W47871   9.414   4.232   3.923  0.3264 -0.0056 -0.3517
28338W        W47872  10.135  14.880  15.148 -0.1368  0.0438  0.1857
28339W        W47873  17.950   0.960  12.722 -0.0907 -0.0079 -0.0407
28340W        W47874  18.339   0.033  13.908 -0.1612 -0.1623 -0.0556
28341W        W47875   1.852   7.624   1.089  0.2588  0.0363  0.2765
28342W        W47876   0.174  15.299  11.673 -0.0113  0.1204 -0.0443
28343W        W47877   7.782   3.783  12.670  0.0293 -0.1117  0.0490
28344W        W47878  14.400   2.184   0.480 -0.3156  0.0510 -0.2476
28345W        W47879  13.641  12.105  15.175  0.0575 -0.1443 -0.3032
28346W        W47880  14.574   2.619   1.651 -0.1033  0.0195  0.0008
28347W        W47881   7.353  11.982  12.346  0.0099  0.2007  0.1021
28348W        W47882   1.496  14.485   0.802 -0.0771  0.0231  0.0626
28349W        W47883   7.532  16.772  14.884 -0.0527 -0.0746  0.3395
28350W        W47884   5.498   6.706   3.547 -0.3061  0.2135 -0.0722
28351W        W47885  13.796   8.442   2.190 -0.2250 -0.0117  0.2532
28352W        W47886  13.645   9.855   1.450 -0.1624  0.0606 -0.2527
28353W        W47887   0.753   0.503   4.254 -0.0082 -0.0007  0.0066
28354W        W47888  11.040   5.274  15.349 -0.0426  0.0368 -0.1615
28355W        W47889   3.474  17.547   1.452 -0.0080 -0.1568 -0.0453
28356W        W47890  18.257   5.462  15.256  0.1066 -0.1720 -0.2036
28357W        W47891   9.378  16.409  13.187 -0.1975 -0.1639  0.4105
28358W        W47892   4.550  17.126   2.509  0.0933  0.0553  0.0072
28359W        W47893   6.498  17.496  13.125  0.1211  0.2749  0.0522
28360W        W47894  11.281   2.122  11.868  0.0887 -0.0087  0.0438
28361W        W47895   7.741   8.475  13.409 -0.0345  0.1604 -0.0456
28362W        W47896   6.220  13.123  14.126  0.0645  0.0816  0.1080
28363W        W47897   1.385  14.913   1.716  0.2452  0.2698  0.0074
28364W        W47898  14.623   9.256   4.303 -0.0883  0.0818 -0.0606
28365W        W47899  17.814   7.989   1.694  0.4403  0.1868  0.0755
28366W        W47900   9.734  14.592   1.194 -0.1407  0.1817 -0.2277
28367W        W47901   3.424  11.885  13.591  0.0961  0.3328 -0.0979
28368W        W47902  17.663   8.401   4.036 -0.2066  0.2800  0.1916
28369W        W47903   3.123  16.142   2.073 -0.4098  0.1789  0.0984
28370W        W47904   3.400   2.387  13.421  0.1858  0.0734 -0.0528
28371W        W47905   9.106  10.145   1.124 -0.1455 -0.3311  0.2648
28372W        W47906   5.983   4.711   1.205  0.1189 -0.0690 -0.3827
28373W        W47907   9.602  17.375   2.761  0.2881  0.2763 -0.1296
28374W        W47908   5.051   3.282   0.480 -0.1023 -0.0560 -0.1078
28375W        W47909   2.078  12.820  15.580  0.0244  0.1177 -0.0189
28376W        W47910   5.316   2.187   4.911  0.2731  0.1424  0.1720
28377W        W47911  12.496   6.644  13.635 -0.1501  0.3118 -0.3104
28378W        W47912   7.741  10.021  12.254  0.0878  0.0546  0.0973
28379W        W47913  13.112   2.904  13.192 -0.1063  0.0563  0.1064
28380W        W47914  13.147  10.350   0.399  0.2459 -0.1270  0.0123
28381W        W47915   7.164   5.483  13.231 -0.4539  0.0670 -0.1893
28382W        W47916   9.839  15.659   3.802  0.1263 -0.1619  0.0262
28383W        W47917  11.146  13.497  13.289  0.1747 -0.1976  0.1010
28384W        W47918  16.257   3.886  14.883  0.2473  0.1229  0.1846
28385W        W47919   6.902  13.315   3.570  0.1252  0.3725  0.3629
28386W        W47920  14.141  16.410  14.664  0.1970  0.3115 -0.1270
28387W        W47921  12.594   3.220   1.328  0.0335  0.0294 -0.2001
28388W        W47922   5.698   0.894  13.391 -0.2257 -0.1273  0.1302
28389W        W47923   2.582  13.181  11.470  0.1020 -0.0892 -0.1849
28390W        W47924  11.957  11.390   3.984 -0.1275  0.0199 -0.3465
28391W        W47925  16.975  17.002   1.923  0.2234 -0.1751  0.1840
28392W        W47926   2.160   2.523   4.565  0.1495 -0.0541 -0.1324
28393W        W47927   4.286   4.171  15.173 -0.0353  0.1120 -0.1622
28394W        W47928   7.004  13.850   1.479  0.1783 -0.5536 -0.0193
28395W        W47929  11.262  14.341  15.661  0.1232  0.2561 -0.1713
28396W        W47930   7.020  14.883   0.136 -0.0734  0.0309 -0.0191
28397W        W47931  12.084  10.080   2.727  0.0521  0.3410  0.2137
28398W        W47932  15.449  17.307  12.161 -0.0319  0.0798 -0.2629
28399W        W47933  16.011   6.096   1.419  0.1715 -0.3902  0.0056
28400W        W47934   5.627   3.310  14.668 -0.0901 -0.1181  0.1943
28401W        W47935   4.664  10.893   2.408  0.0210  0.1444 -0.0566
28402W        W47936   8.993   3.597   2.185 -0.0331  0.0773 -0.1786
28403W        W47937   9.999  14.746   0.254  0.0637 -0.0221  0.1002
28404W        W47938  18.037   4.689   3.591  0.0307 -0.5657  0.1768
28405W        W47939   5.161  14.604   1.611 -0.1450  0.3140 -0.0735
28406W        W47940  14.933   3.001   3.349 -0.1495 -0.1430  0.0435
28407W        W47941   4.933   3.878   2.918  0.1256  0.0615 -0.2420
28408W        W47942  14.425  12.653   1.454 -0.0460  0.0114  0.0075
28409W        W47943  16.638  13.832   1.792  0.1673 -0.1739 -0.0961
28410W        W47944  15.492   3.220  15.464  0.0041 -0.3634  0.0881
28411W        W47945  15.345   8.078   4.617  0.0781  0.2171 -0.1952
28412W        W47946   9.025  14.177  14.339  0.0931  0.0504 -0.0688
28413W        W47947  10.898  18.181   3.636  0.1228 -0.3001  0.3636
28414W        W47948  12.285   2.239  13.065 -0.1626 -0.2319 -0.1734
28415W        W47949   0.429   5.370  11.734  0.0780 -0.0913  0.0730
28416W        W47950   2.941   9.127   2.621 -0.2090  0.0316  0.0106
28417W        W47951   0.230  13.459  12.318 -0.0354 -0.1235  0.1336
28418W        W47952   4.352  17.159   0.262 -0.1839 -0.1241 -0.1717
28419W        W47953  17.132   9.620   2.041 -0.3562  0.2217 -0.0289
28420W        W47954   2.501  14.695   0.718  0.0995 -0.5057 -0.0287
28421W        W47955  16.432  12.139  11.295 -0.1050 -0.1723  0.0833
28422W        W47956   9.145   7.658  15.260  0.2659  0.1077  0.1414
28423W        W47957  17.801   4.735  13.546 -0.2263 -0.1596 -0.0334
28424W        W47958  13.060   6.277   0.370 -0.0238 -0.0516  0.1812
28425W        W47959   0.803   9.351   1.826 -0.0244 -0.0707  0.0695
28426W        W47960   7.840   9.465   4.139  0.1652 -0.0682  0.0295
28427W        W47961  11.608   2.220  13.826  0.0389 -0.0767 -0.1113
28428W        W47962  11.186   8.415  13.154  0.0554 -0.1821 -0.4007
28429W        W47963   4.207  15.996   4.514  0.1951 -0.1609 -0.0729
28430W        W47964   9.122  10.572  15.686 -0.4476 -0.4112  0.3102
28431W        W47965  16.617   3.782   1.152  0.0456  0.3355  0.2378
28432W        W47966  17.385   3.966   2.780 -0.1120 -0.1488 -0.1253
28433W        W47967   4.403  14.125   0.657  0.1427 -0.0198 -0.3253
28434W        W47968   6.313   5.344  11.811  0.1094  0.0859 -0.1861
28435W        W47969   3.435   8.867  13.110  0.0206 -0.0121 -0.3222
28436W        W47970  12.308   3.208  13.662  0.2482 -0.2321 -0.0537
28437W        W47971   2.042  13.218  14.885 -0.1017  0.3911  0.3155
28438W        W47972  14.136  15.050  15.681  0.1063  0.1893 -0.0664
28439W        W47973   0.042   6.678   3.065 -0.1768 -0.0072  0.3612
28440W        W47974   5.565   1.806   2.930  0.1662 -0.1348  0.1345
28441W        W47975   1.870   0.284  12.018 -0.1883 -0.0822 -0.0341
28442W        W47976  18.310  17.435   3.493 -0.0144 -0.1901  0.1860
28443W        W47977  11.509   9.811  14.250 -0.0352 -0.2174 -0.1874
28444W        W47978  15.847   8.277  12.525  0.1650 -0.1308  0.0550
28445W        W47979   4.722  13.598  12.017 -0.0498 -0.1491 -0.0672
28446W        W47980  17.437   0.295   2.551  0.1340 -0.3989  0.1939
28447W        W47981  15.150   6.379   0.888 -0.1679  0.2348 -0.1216
28448W        W47982  14.537   8.583   0.819 -0.1897  0.0576  0.0536
28449W        W47983   9.278  11.217  11.739  0.0767  0.1383  0.0279
28450W        W47984  16.049   9.775  10.068  0.0224  0.0403 -0.2590
28451W        W47985   6.753   2.252  10.252 -0.1074 -0.0992 -0.2016
28452W        W47986   4.050   1.342  12.155  0.0060  0.0795 -0.1209
28453W        W47987   1.798   7.372  11.395  0.0862  0.2069 -0.2454
28454W        W47988  15.829  14.579  15.254 -0.3950 -0.1952  0.1801
28455W        W47989   8.300  13.295  12.793  0.0323  0.5065 -0.1790
28456W        W47990  13.917  13.289   3.795  0.1231 -0.0872 -0.1031
28457W        W47991  15.789  11.172   3.750  0.0894 -0.0366 -0.0091
28458W        W47992  13.328   5.861   0.517  0.1291 -0.0059  0.3145
28459W        W47993  15.686  11.378  14.958 -0.1657  0.0825  0.0411
28460W        W47994  16.023   4.412  11.014 -0.1930 -0.0117  0.0565
28461W        W47995  15.765   5.864  13.732 -0.1544  0.3865  0.1143
28462W        W47996  18.162   7.318   4.363  0.0024 -0.0902  0.1846
28463W        W47997  17.841  13.476   1.184  0.0785  0.0684  0.0949
28464W        W47998  16.509   6.959   4.088 -0.0905 -0.1044 -0.3035
28465W        W47999   4.229  18.340   3.450 -0.1422 -0.0563 -0.3220
28466W        W48000  12.302   9.588   1.247  0.1991 -0.3712 -0.0408
28467W        W48001  12.967   0.965   3.424 -0.1648 -0.0234  0.3250
28468W        W48002   0.720  16.642  12.099  0.2981  0.0387  0.0957
28469W        W48003   6.932   6.470  12.945 -0.0359  0.3748  0.0584
28470W        W48004  16.396   6.675  14.504 -0.1546 -0.0519  0.0176
28471W        W48005   0.234   6.789  15.047  0.0546  0.1020  0.1391
28472W        W48006  16.546  11.336   0.537 -0.0060 -0.0691  0.1728
28473W        W48007   4.910  10.051   2.034 -0.1575 -0.3544  0.0110
28474W        W48008  16.271  12.651   3.903 -0.1895  0.0832 -0.3399
28475W        W48009   4.522  17.863  12.957 -0.1022  0.1208 -0.0656
28476W        W48010   9.987  17.592   1.367  0.0170  0.1531  0.0208
28477W        W48011  14.418   2.611   2.159 -0.0340  0.0286  0.3439
28478W        W48012  15.791  11.382  10.691 -0.2706 -0.0897  0.0771
28479W        W48013   6.952   4.200   2.960  0.3321  0.0592  0.0500
28480W        W48014  10.656   2.546  14.728  0.2296  0.0687 -0.2125
28481W        W48015  16.446  15.280   1.930 -0.1129  0.2407  0.1918
28482W        W48016   6.123  15.780  13.745  0.2204  0.1662  0.2453
28483W        W48017  12.619   7.558  14.408  0.0509  0.0693  0.0786
28484W        W48018  15.672   5.882   2.194 -0.1517 -0.3640 -0.1337
28485W        W48019   6.442   4.125  12.625 -0.0689 -0.0062  0.0519
28486W        W48020   8.310  10.970  13.436  0.1322 -0.3137 -0.3893
28487W        W48021  15.008   2.861  13.897  0.0393  0.1542 -0.0946
28488W        W48022   5.454  10.083  11.011 -0.3392 -0.1530  0.2314
28489W        W48023  11.091  18.154  12.120  0.3911 -0.0414  0.1016
28490ION     NA48024   4.514  16.593  13.372 -0.1588  0.0092  0.2022
28491ION     NA48025   5.550   0.443   5.250  0.3439 -0.1300  0.2283
28492ION     NA48026   6.148   3.951  14.122  0.0095  0.0262  0.0069
28493ION     NA48027   2.118   6.935  12.278  0.0571 -0.0544  0.0501
28494ION     NA48028   5.884   4.739  13.011  0.0585  0.3843  0.3524
28495ION     NA48029   3.171  17.106   5.646 -0.1458 -0.0273 -0.0569
28496ION     NA48030   6.347  16.597  10.822  0.3445 -0.1449 -0.0864
28497ION     NA48031   5.109  15.744  10.856  0.0165 -0.1438 -0.2163
28498ION     NA48032   3.046  10.151  14.896  0.0549  0.0514 -0.0929
28499ION     NA48033  10.255  13.539  10.742 -0.0980 -0.1295 -0.0711
28500ION     NA48034   1.036   0.777   1.763  0.2395  0.1333 -0.4345
28501ION     NA48035   9.932  18.002   1.969  0.1854 -0.2810  0.1952
28502ION     NA48036  15.226   5.517  11.361  0.1115  0.1735 -0.3084
28503ION     NA48037   8.230   0.817   5.552  0.1037  0.1410 -0.1192
28504ION     NA48038   3.592  11.164   5.114  0.0364  0.2243 -0.0025
28505ION     NA48039   4.628   3.997   5.631  0.0013  0.3743 -0.3803
28506ION     NA48040  12.461   3.747  10.744 -0.1724 -0.1310 -0.3266
28507ION     NA48041   7.821  10.037   5.242 -0.1312 -0.0203  0.1527
28508ION     NA48042  10.133   5.547  10.765  0.1482  0.0725  0.1250
28509ION     NA48043   5.748  17.784  15.544 -0.2124  0.0617 -0.0249
28510ION     NA48044   5.259   3.816  10.786 -0.0218  0.2224 -0.0010
28511ION     NA48045   6.481   2.343  10.644 -0.0237 -0.1050 -0.1304
28512ION     NA48046  11.579   4.043   5.643  0.0459  0.3987 -0.1092
28513ION     NA48047   3.783  12.927  15.502  0.0638  0.1559 -0.0158
28514ION     NA48048   0.779   3.012  14.092  0.1283  0.2553  0.0527
28515ION     NA48049  10.397   2.818  10.692 -0.1005  0.5790  0.0949
28516ION     NA48050  11.774  16.644  10.469 -0.1957  0.1679  0.2569
28517ION     NA48051  18.373  15.355   5.556 -0.0057 -0.1550  0.0535
28518ION     NA48052   7.436   0.867   3.147  0.1839  0.2218  0.0998
28519ION     NA48053   4.240  14.079   5.177  0.0649  0.1448  0.3200
28520ION     NA48054  14.358   7.276   5.303  0.3432  0.1446  0.0212
28521ION     NA48055   0.877   0.344   4.693 -0.4973 -0.2197 -0.3007
28522ION     NA48056  11.339  14.857   5.471  0.1565 -0.2863 -0.1117
28523ION     NA48057   8.000  11.206   2.902  0.1767  0.1434  0.0448
28524ION     NA48058  12.268   9.921  10.554  0.0031 -0.1969  0.2245
28525ION     NA48059   0.405   0.144  14.985 -0.1295  0.0460  0.4101
28526ION     NA48060  17.979   1.215   5.531  0.0583  0.1218  0.2930
28527ION     NA48061   2.350   0.990   3.315  0.1020 -0.1104  0.2876
28528ION     NA48062  15.530  15.229   2.204 -0.0095  0.0599  0.2261
28529ION     NA48063   5.953  10.543   5.405  0.0375  0.3808 -0.4574
28530ION     NA48064   8.546   2.942  10.463 -0.0301  0.1753 -0.0580
28531ION     NA48065   6.301  12.256  10.339  0.0179  0.0210  0.0396
28532ION     NA48066   7.660  16.947  12.637 -0.0832 -0.0721  0.0447
28533ION     NA48067  14.190  13.609  10.630 -0.2332  0.0097  0.0279
28534ION     NA48068  13.198  15.149  10.635  0.1887 -0.2004 -0.4377
28535ION     NA48069  13.466   7.430   5.156 -0.0540  0.3111 -0.1140
28536ION     NA48070   4.483   3.167  10.711  0.0036 -0.3244 -0.3844
28537ION     NA48071   8.885  13.030   0.137  0.0515  0.0315  0.0788
28538ION     NA48072  14.015   2.279  11.827  0.0043  0.0611 -0.1953
28539ION     NA48073   3.590   0.877   4.950  0.2829 -0.2929 -0.0098
28540ION     NA48074   3.281  10.781   5.282 -0.0754  0.2837  0.0891
28541ION     NA48075  10.236   1.653  10.919 -0.1612  0.0822 -0.3088
28542ION     NA48076   1.663   5.342   1.308  0.2223 -0.3834 -0.1132
28543ION     NA48077   2.597   4.705  14.186 -0.0981 -0.0033 -0.0695
28544ION     NA48078   3.339   5.497  15.653  0.0519  0.0862  0.0706
28545ION     NA48079   3.592  11.876  15.797 -0.2493  0.1350 -0.0768
28546ION     NA48080   1.114   9.607  10.383 -0.1945  0.0240  0.2173
28547ION     NA48081   0.614  10.912  10.534  0.1168  0.0087 -0.3245
28548ION     NA48082  14.467   4.681   0.788 -0.3790 -0.1187 -0.0048
28549ION     NA48083  12.299   4.675  10.466  0.3775  0.0320  0.1635
28550ION     NA48084  10.130  12.604   5.353  0.1900 -0.1645  0.0500
28551ION     NA48085  10.880   7.360  10.586  0.0360 -0.0920 -0.0240
28552ION     NA48086  16.421   8.967  15.407  0.2288 -0.0878 -0.2020
28553ION     NA48087   9.645  10.878  10.498 -0.0361  0.0817 -0.1094
28554ION     NA48088   3.897   1.360   2.120  0.3162  0.1623 -0.1989
28555ION     NA48089  16.132   0.232   2.297 -0.1680 -0.0787  0.2783
28556ION     NA48090  14.495  11.162  10.358  0.3176  0.1241  0.0985
28557ION     NA48091   1.014  11.701  10.672 -0.3015 -0.1819  0.1897
28558ION     NA48092   3.461  15.184  11.925 -0.1850 -0.0264  0.1167
28559ION     NA48093   6.815   6.754   4.635  0.3193 -0.0556  0.2637
28560ION     NA48094  14.833   4.747   5.136  0.2114  0.1074  0.0854
28561ION     NA48095   5.408  11.409  10.176  0.0183  0.0952 -0.0574
28562ION     NA48096  11.583  13.942  14.934 -0.1202  0.1557 -0.2478
28563ION     NA48097  17.091   5.501   4.863 -0.1122 -0.2314  0.2550
28564ION     NA48098   8.713  13.667   5.209 -0.0595  0.1399 -0.1488
28565ION     NA48099   9.616   2.638   5.759 -0.0105  0.0107  0.3041
28566ION     NA48100   3.846  16.417  13.442 -0.1279  0.0316  0.0560
28567ION     NA48101  10.874  10.947  12.838  0.2434 -0.3850 -0.0925
28568ION     NA48102   4.297  10.882  10.205 -0.1351 -0.0383  0.0459
28569ION     NA48103   2.641   0.589  10.511  0.0914  0.1026  0.2897
28570ION     NA48104   3.721   8.496   2.182  0.0221 -0.1121  0.1653
28571ION     NA48105  14.670  16.688   3.766  0.1679 -0.0575  0.0962
28572ION     NA48106   6.513   5.983   2.360  0.1156 -0.0192 -0.3188
28573ION     NA48107   4.941  13.406   0.203 -0.0692 -0.1007  0.1768
28574ION     NA48108   7.462   1.145  10.435  0.0467 -0.2237 -0.1016
28575ION     NA48109   0.915   7.227  12.827  0.3984 -0.2648  0.2146
28576ION     NA48110  17.954  16.194   5.352 -0.1575 -0.1951 -0.0224
28577ION     NA48111   8.325   8.556  10.667 -0.0837  0.0763 -0.1105
28578ION     NA48112   4.395  16.418   5.486  0.1632  0.2252  0.1349
28579ION     NA48113   0.583  16.274   5.035  0.0826 -0.1062 -0.2614
28580ION     NA48114   4.434   4.222  10.609  0.1609 -0.0207 -0.2291
28581ION     NA48115   3.327  17.410  14.882  0.0533 -0.3359  0.1249
28582ION     NA48116   7.352  12.886   1.473 -0.2205  0.0865 -0.0201
28583ION     NA48117  15.894  16.820  11.557 -0.0707 -0.0738 -0.0949
28584ION     NA48118   0.543  10.794   5.230 -0.2445  0.0031 -0.1828
28585ION     NA48119   7.888  11.378  10.504 -0.1100  0.0471 -0.1203
28586ION     NA48120  10.040   1.898   0.754  0.0220 -0.1752 -0.0838
28587ION     NA48121   2.358   8.882  15.803  0.1213  0.1459  0.1292
28588ION     NA48122  10.526  15.466   0.625  0.0049  0.5144 -0.0625
28589ION     NA48123   4.142   2.885   3.930  0.1715 -0.0932  0.0271
28590ION     NA48124  17.560   9.146  10.247 -0.3641 -0.0263 -0.2268
28591ION     NA48125   6.150  16.213   5.577 -0.1805 -0.3513  0.2992
28592ION     NA48126  16.672   4.576  10.226 -0.0920 -0.0962  0.2560
28593ION     NA48127  17.538  12.550  13.656  0.1149  0.2829 -0.1159
28594ION     NA48128  16.274  13.845  11.692  0.0399  0.2053 -0.2381
28595ION     NA48129   4.822  17.229   5.653 -0.4006  0.1138  0.1511
28596ION     NA48130   0.293   9.863  12.759 -0.0413 -0.0567  0.2878
28597ION     NA48131   7.353  16.860   1.892 -0.1138 -0.4486 -0.1900
28598ION     NA48132  16.176   3.237   5.118  0.0779  0.1948 -0.2856
28599ION     NA48133   1.147   7.588  14.266  0.0848 -0.0186  0.1846
28600ION     NA48134  12.443   2.150   2.029 -0.1997 -0.3457  0.2000
28601ION     NA48135  12.687  15.301  10.656  0.0350  0.1203 -0.3715
28602ION     NA48136   1.334   8.690  13.804 -0.0157 -0.1121 -0.2336
28603ION     NA48137  16.074  10.141   0.536  0.1028  0.1214  0.0703
28604ION     NA48138   6.753  16.826   2.831 -0.0896  0.0397  0.1186
28605ION     NA48139   1.291  18.328   0.707  0.3799  0.1709 -0.0330
28606ION     NA48140  15.657   9.191  10.824 -0.3470 -0.3357  0.1441
28607ION     NA48141   8.485   3.675  15.368  0.0096  0.3735  0.1399
28608ION     NA48142   6.308   9.732  12.663 -0.0558 -0.0888  0.0403
28609ION     NA48143   1.231  16.546   5.257 -0.3387  0.0113  0.1005
28610ION     NA48144   0.054   7.243  15.435  0.1897  0.0200 -0.1210
28611ION     NA48145   3.473   6.884   1.295  0.0447  0.0239 -0.2015
28612ION     NA48146   5.678   4.913   5.743 -0.0226 -0.2554 -0.2629
28613ION     NA48147  14.660  11.530   5.328 -0.1678  0.2591 -0.0569
28614ION     NA48148  12.406   5.952   5.199 -0.0440  0.0259 -0.3705
28615ION     NA48149   0.799   8.196   4.543 -0.2680 -0.1218  0.1556
28616ION     NA48150  14.211  17.225   3.291  0.0755  0.0236 -0.2064
28617ION     NA48151  10.248   3.391   5.838 -0.3766  0.1290  0.0985
28618ION     NA48152   9.614  10.081  14.046  0.1416 -0.0681  0.2333
28619ION     NA48153  14.786  13.478   0.841  0.1627 -0.0107 -0.1914
28620ION     NA48154   3.130   7.761   2.363 -0.1073  0.0496 -0.3859
28621ION     NA48155  13.641   7.969  10.481  0.1723 -0.1872 -0.1244
28622ION     NA48156   2.756   7.165  14.914  0.3946 -0.2476  0.0641
28623ION     NA48157   0.939  14.825  11.970 -0.0251  0.0069 -0.0016
28624ION     NA48158  16.329   6.943  15.606  0.0962  0.1674  0.3065
28625ION     NA48159  13.642   9.412  10.778  0.5385 -0.0387  0.0129
28626ION     NA48160  14.833  11.400  12.429 -0.0915  0.1685  0.0580
28627ION     NA48161   1.846  17.672  13.291 -0.0540 -0.0642 -0.2447
28628ION     NA48162   1.628   7.256  10.417  0.2154 -0.2025 -0.1196
28629ION     NA48163  16.561   0.577   4.508  0.0153  0.3658 -0.0191
28630ION     NA48164  16.851  12.192  10.957 -0.2081 -0.0830 -0.1529
28631ION     NA48165   4.275   7.275  10.673  0.0313  0.0804  0.0223
28632ION     NA48166  12.802   6.892   5.312  0.1098 -0.0711  0.2872
28633ION     NA48167  18.343  17.041   3.794 -0.0132 -0.2964 -0.0279
28634ION     NA48168   8.172   4.347  10.318 -0.0830 -0.1140  0.2982
28635ION     NA48169  13.570  10.861  10.497 -0.1624  0.0945 -0.0811
28636ION     NA48170   0.939   8.258  11.890 -0.2538 -0.0062 -0.0102
28637ION     NA48171   4.275  10.659   0.343  0.1491  0.0760 -0.1558
28638ION     NA48172  13.797   1.869  12.255  0.0032 -0.1262 -0.4793
28639ION     NA48173  17.275   6.955  14.592 -0.1762  0.1501 -0.0342
28640ION     NA48174  17.484  10.147   1.714  0.0689 -0.2587  0.0629
28641ION     NA48175   1.805  17.570  13.892  0.0547  0.2221 -0.0297
28642ION     NA48176   9.902   1.284   4.048 -0.1559  0.2325  0.1476
28643ION     NA48177   6.475   3.813   5.739  0.1489  0.2621  0.0902
28644ION     NA48178   7.711  16.311  10.774  0.3133 -0.0716  0.1567
28645ION     NA48179  10.740   3.578   5.980  0.0100  0.1449 -0.2569
28646ION     NA48180   2.263   8.904  10.716  0.2566 -0.1481  0.1656
28647ION     NA48181  17.523  11.588  14.376 -0.7191  0.1035 -0.0038
28648ION     NA48182  15.042   1.584  10.512 -0.0126  0.2447  0.0459
28649ION     NA48183   1.440  17.274  10.665 -0.0177  0.1566 -0.1038
28650ION     NA48184  13.589  18.012   2.205 -0.0273 -0.2114  0.1308
28651ION     NA48185   2.731   0.609   3.457 -0.0511  0.0249 -0.2268
28652ION     NA48186   5.527  13.464  14.067  0.2841  0.3256 -0.3062
28653ION     NA48187  14.086   5.424  10.194 -0.2024  0.1871 -0.1732
28654ION     NA48188  10.256  18.244  14.629 -0.1731  0.2038 -0.1874
28655ION     NA48189  14.356  14.705   2.823  0.2006 -0.0715  0.0618
28656ION     NA48190  12.094   3.467   1.506  0.0330  0.0409  0.0911
28657ION     NA48191  16.282  12.063  13.996 -0.3257 -0.0760 -0.1723
28658ION     NA48192  13.018  15.260  12.493 -0.2778  0.1724 -0.1735
28659ION     NA48193  11.992  11.922   2.982 -0.2068 -0.1755 -0.2197
28660ION     NA48194   3.888   5.943   5.329  0.0450 -0.1782 -0.0040
28661ION     NA48195  14.402  13.420   3.452 -0.0745 -0.4049 -0.1991
28662ION     NA48196   0.364   0.688  10.661 -0.0811 -0.3770 -0.0567
28663ION     NA48197   1.151  11.458   4.876 -0.2750 -0.2148 -0.0850
28664ION     NA48198  11.602  17.580   1.717 -0.1378 -0.1762  0.0951
28665ION     NA48199  17.103  18.157  15.485 -0.1160 -0.1104 -0.0540
28666ION     NA48200   5.959  13.474   0.061  0.2416  0.0129 -0.0689
28667ION     NA48201   4.498  15.915  15.674 -0.0571 -0.0010 -0.1469
28668ION     NA48202  18.032   2.444  15.083  0.3729 -0.0603  0.0045
28669ION     NA48203   7.931  12.372  10.478 -0.1832 -0.2201  0.0086
28670ION     NA48204   6.807  14.195   5.679  0.4178 -0.0511  0.0662
28671ION     NA48205   2.327   2.168   0.998 -0.0393 -0.0192  0.3653
28672ION     NA48206   2.391  14.777   5.400 -0.2485  0.1839  0.1757
28673ION     NA48207   4.407  14.106  14.078  0.0198  0.0606 -0.0401
28674ION     NA48208  15.279   7.574   5.179 -0.1139  0.1155 -0.0222
28675ION     NA48209   4.204  15.221  15.018  0.0728 -0.2206  0.0634
28676ION     NA48210   4.497  10.972   5.355 -0.1935  0.0850  0.0877
28677ION     NA48211  14.310   7.220  10.302 -0.0356 -0.2577  0.1345
28678ION     NA48212   8.935   4.836  15.801  0.0933  0.0762 -0.1964
28679ION     NA48213  15.150  16.859  15.138 -0.1069  0.1289 -0.6379
28680ION     NA48214  13.876   0.447   2.139 -0.0433 -0.0300 -0.3268
28681ION     NA48215   2.480   9.580   5.153 -0.4286  0.0736  0.1745
28682ION     NA48216  14.963  12.245  14.221  0.0300 -0.0166 -0.0015
28683ION     NA48217  14.883  13.394  10.213 -0.2034  0.2870  0.1188
28684ION     NA48218  15.702  16.308  15.634  0.2357  0.0060 -0.1870
28685ION     NA48219   5.595   8.603   5.259  0.3296 -0.1153 -0.0351
28686ION     NA48220   1.549  14.463  10.898 -0.3014 -0.3277  0.0373
28687ION     NA48221   0.019  11.879  15.240  0.0088 -0.1868  0.0608
28688ION     NA48222   4.218  11.400   5.416 -0.2056 -0.5013  0.0921
28689ION     NA48223  16.953   8.895  14.373  0.1414 -0.2114  0.5671
28690ION     NA48224   5.633   6.674  14.313 -0.0566 -0.0793 -0.3882
28691ION     NA48225   9.543  16.901   2.608 -0.1047  0.0523  0.4090
28692ION     NA48226  15.326   0.813  11.880  0.0719  0.1130 -0.1862
28693ION     NA48227   0.799   0.025   5.538 -0.1848 -0.0240 -0.1906
28694ION     NA48228   6.991   8.789   4.080  0.0492  0.4439  0.0986
28695ION     NA48229  11.043   0.122  10.807  0.1218  0.0524  0.3584
28696ION     NA48230  17.802  12.048  10.755 -0.0603  0.0901 -0.2265
28697ION     NA48231  14.963   8.301   5.479 -0.0849 -0.0033 -0.1573
28698ION     NA48232   3.955  17.913  11.371  0.1691 -0.2483 -0.1260
28699ION     NA48233  13.259   7.016   1.473 -0.0360 -0.1973  0.0482
28700ION     NA48234   1.590  14.323   5.440 -0.0130 -0.2693 -0.2892
28701ION     NA48235  15.846   2.401   5.048  0.0857 -0.0326  0.3819
28702ION     NA48236  13.401   0.695  10.650  0.0287 -0.1105  0.0995
28703ION     NA48237   6.626  17.310   5.550 -0.1546 -0.1750 -0.2535
28704ION     NA48238  10.978   5.243  10.612 -0.1960  0.0411 -0.0534
28705ION     NA48239  16.294   8.298  12.270 -0.1448 -0.0467  0.0851
28706ION     NA48240  11.683   8.620   5.311  0.3644  0.1621  0.1245
28707ION     NA48241  17.229  18.278  12.002  0.0824  0.3494  0.0692
28708ION     NA48242  10.822  17.593   4.311  0.1783 -0.0299 -0.4605
28709ION     NA48243  13.184   6.094  15.405 -0.0916 -0.1693  0.2861
28710ION     NA48244  14.573   8.549  10.419 -0.1038 -0.0101  0.1043
28711ION     NA48245   6.714  12.477  15.767  0.1665  0.1610  0.1267
28712ION     NA48246  13.349   7.855   1.680  0.0185 -0.0254 -0.4009
28713ION     NA48247  15.977   0.785  12.635 -0.1157 -0.2121 -0.0712
28714ION     NA48248  10.524   0.825   5.928  0.0155 -0.1885 -0.0422
28715ION     NA48249   3.637   2.592   5.599 -0.0004 -0.1289 -0.1919
28716ION     NA48250   2.385  13.761   5.456  0.0208 -0.0849 -0.1924
28717ION     NA48251  15.305  12.804  13.391  0.4908 -0.1396 -0.2044
28718ION     NA48252  16.090  11.045  15.771  0.0505  0.0741 -0.0129
28719ION     NA48253  12.548   9.008   5.308  0.0552  0.0782  0.0583
28720ION     NA48254  14.374  10.753   0.123 -0.1379  0.1360 -0.0539
28721ION     NA48255  16.862   8.457   4.679 -0.0602  0.2018 -0.1776
28722ION     NA48256  13.339  16.722   5.772 -0.2538  0.0244 -0.1164
28723ION     NA48257  17.524  17.877   5.130  0.2867 -0.0808 -0.0121
28724ION     NA48258  12.992   0.219   5.691  0.1225 -0.2655 -0.0186
28725ION     NA48259  16.073  16.786   3.628  0.0929  0.0377 -0.0084
28726ION     NA48260   1.716   0.674  10.991 -0.3719  0.0010  0.1500
28727ION     NA48261  13.066  16.043  10.645  0.0434  0.1310  0.0487
28728ION     NA48262  17.357  17.917  10.724 -0.2453  0.0179 -0.2716
28729ION     NA48263   2.562  16.492  15.547  0.1442  0.1613 -0.0266
28730ION     NA48264   3.571  12.946  10.672  0.0969 -0.0738  0.1754
28731ION     NA48265   7.048   8.091   1.859 -0.1048  0.0552 -0.4139
28732ION     NA48266   4.861  14.775  11.050  0.3408 -0.0207 -0.0883
28733ION     NA48267   6.901  12.275   4.666  0.2761  0.1852  0.1999
28734ION     NA48268  12.163  12.906  15.355  0.2742 -0.0363 -0.1154
28735ION     NA48269  15.373   6.002  10.468 -0.2258  0.3787  0.0223
28736ION     NA48270   5.388  17.472   2.834  0.3443 -0.1592  0.0937
28737ION     NA48271  12.012  12.953  14.161 -0.1555 -0.0625  0.0217
28738ION     NA48272   7.881   0.585  12.000 -0.0013 -0.0603 -0.0067
28739ION     NA48273   9.690   0.245  14.366  0.1642  0.1317  0.0141
28740ION     NA48274   8.706   1.702   5.610  0.2646 -0.1717  0.1479
28741ION     NA48275  18.193   5.514   0.525 -0.3621  0.0413  0.1904
28742ION     NA48276  13.928   5.686  12.044 -0.0055  0.1352  0.1531
28743ION     NA48277  15.029   3.108  15.305  0.3007 -0.1572  0.0399
28744ION     NA48278   0.774   8.763   0.303 -0.2154 -0.2159  0.0691
28745ION     NA48279  16.825   4.176   2.125 -0.1015  0.1805  0.2111
28746ION     NA48280   8.526   8.220  15.531  0.1099 -0.1311  0.0308
28747ION     NA48281   9.958   6.106   1.137  0.3570 -0.2435 -0.0121
28748ION     NA48282   9.162   4.242  10.405  0.0163 -0.0410  0.0612
28749ION     NA48283  13.265   5.471   5.066 -0.0473  0.0224 -0.3354
28750ION     NA48284   6.086  16.642  12.061  0.1751 -0.0606  0.3015
28751ION     NA48285   4.051   0.537   3.639 -0.3238 -0.1291  0.4497
28752ION     NA48286  10.787   8.367   5.329 -0.0759  0.2765  0.0373
28753ION     NA48287   4.963  16.397   1.723  0.1609  0.0563  0.2796
28754ION     NA48288  11.757  11.483   4.977  0.0316 -0.0433  0.1340
28755ION     NA48289   6.453   7.342   1.441  0.2961 -0.0279 -0.1641
28756ION     NA48290  13.552  16.508  13.444  0.2233 -0.0623 -0.0708
28757ION     NA48291   9.873  10.587  12.210 -0.3584 -0.0512 -0.4022
28758ION     NA48292  17.708  15.702  13.514  0.3275 -0.0154  0.0213
28759ION     NA48293  14.235   2.708   0.500 -0.0105 -0.1061  0.1022
28760ION     NA48294   3.503   2.413   2.897 -0.3176  0.3337  0.2363
28761ION     NA48295  18.008   4.285  12.679  0.0186  0.0742  0.2487
28762ION     NA48296  15.300  18.025  11.748 -0.3361  0.2715  0.0096
28763ION     NA48297  18.313  12.935   2.812  0.1385  0.1538  0.3016
28764ION     NA48298   6.045   1.375  13.107 -0.0446 -0.0558  0.0012
28765ION     NA48299   0.895   6.120   5.192 -0.1022  0.0213  0.0430
28766ION     NA48300  17.052   1.598   0.771  0.2102 -0.1024  0.0152
28767ION     NA48301  10.623   0.035   3.236 -0.1409 -0.3645 -0.0877
28768ION     NA48302   7.500  11.254   5.477  0.0133  0.2237 -0.1481
28769ION     NA48303   9.333  16.957   3.749 -0.2396 -0.2313 -0.0853
28770ION     NA48304   4.476  11.904  13.109 -0.4474 -0.3556 -0.2275
28771ION     NA48305  16.285   0.165  13.446 -0.2976 -0.4064  0.2381
28772ION     NA48306  17.543  10.747  11.906 -0.3351 -0.3236  0.1684
28773ION     NA48307   8.165  10.943   1.502  0.0936 -0.2637  0.3173
28774ION     NA48308  10.634  15.873   2.820 -0.0438 -0.1788 -0.0062
28775ION     NA48309  10.974  10.872  11.604  0.0241  0.2765  0.1172
28776ION     NA48310   5.164   6.894  10.534 -0.1113 -0.0683  0.2483
28777ION     NA48311   9.163   9.959  10.779  0.2589 -0.0184  0.1595
28778ION     NA48312  10.191   5.321   1.437 -0.2853 -0.2008 -0.0636
28779ION     NA48313  13.119  11.955   5.293  0.1931 -0.0105  0.1328
28780ION     NA48314   3.708   0.615   5.390  0.0480  0.1132  0.2645
28781ION     NA48315  12.004   2.300   5.234  0.1237 -0.1857 -0.2138
28782ION     NA48316  15.074   0.323   1.011  0.0512 -0.1507 -0.1033
28783ION     NA48317   9.755   7.384  10.688 -0.1500  0.0628 -0.1712
28784ION     NA48318   0.451   2.851   0.103  0.2117  0.2267  0.1867
28785ION     NA48319  17.789  12.882   3.726  0.0703 -0.2214  0.0342
28786ION     NA48320   7.644  10.854  12.820 -0.0639 -0.1102  0.1461
28787ION     NA48321  15.986  17.167   1.660  0.1676  0.1762  0.0239
28788ION     NA48322  15.840   6.339   4.863  0.0144  0.0589 -0.0026
28789ION     NA48323   3.575   5.875  10.538 -0.2749  0.2055  0.1439
28790ION     NA48324  13.902   3.851  14.537  0.1486  0.2924 -0.0037
28791ION     NA48325  15.898   3.462   2.474 -0.0228 -0.3112 -0.2312
28792ION     NA48326   3.574  17.272  10.819 -0.1950  0.0022  0.1789
28793ION     NA48327   5.308   4.228   0.042  0.0847 -0.2606  0.1749
28794ION     NA48328   3.643  16.075   5.611 -0.1539  0.1328  0.0147
28795ION     NA48329   4.402   9.285  14.214  0.0711 -0.3521  0.1534
28796ION     NA48330  15.285   1.120  10.866  0.3467  0.1280  0.0498
28797ION     NA48331  10.008   8.584  10.786  0.2411 -0.5230  0.2284
28798ION     NA48332  10.561  10.846   5.164  0.1046 -0.4474 -0.0983
28799ION     NA48333  13.372   2.893  15.596  0.4138  0.0264 -0.0271
28800ION     NA48334   9.505   5.712  12.646  0.0987  0.3498  0.2036
28801ION     NA48335  13.761  17.207  11.025  0.3497  0.0096 -0.2212
28802ION     NA48336   8.109  13.082  11.581  0.2053  0.1243  0.1016
28803ION     NA48337  15.960  15.823  11.839 -0.1160  0.1530 -0.1709
28804ION     NA48338   9.397  13.005   2.918  0.0072  0.0537  0.0820
28805ION     NA48339   8.818   8.236   2.385 -0.3893  0.1157  0.0830
28806ION     NA48340  16.709  11.475  10.446 -0.0770 -0.0259  0.1836
28807ION     NA48341  15.269   6.621   3.689  0.1690  0.3410  0.3174
28808ION     NA48342   8.999  12.471   5.306  0.0134  0.1295  0.1348
28809ION     NA48343  14.308   8.187  11.745 -0.1908  0.2014 -0.0948
28810ION     NA48344   5.591   8.156   1.110  0.4802 -0.2361 -0.0441
28811ION     NA48345   8.970  14.375   5.641  0.1561 -0.1025 -0.2334
28812ION     NA48346   2.326  10.530   4.981 -0.1284 -0.0730  0.1487
28813ION     NA48347  10.614   9.234  10.705  0.0131 -0.1823 -0.1754
28814ION     NA48348  16.098  16.695   5.194 -0.4387 -0.0111 -0.1220
28815ION     NA48349   9.835   4.981  15.764  0.1772  0.0605  0.2245
28816ION     NA48350   5.455   8.071  11.709 -0.0274  0.0355  0.0278
28817ION     NA48351  13.145  13.096   2.798  0.0052  0.0880  0.1335
28818ION     NA48352  11.631  16.076   2.966  0.1785  0.0231  0.1376
28819ION     NA48353  11.466   9.706  10.460 -0.0300  0.2168 -0.1180
28820ION     NA48354   9.795   6.029  13.334 -0.0054  0.2963  0.2181
28821ION     NA48355  13.802  12.003  11.848 -0.1363  0.0099  0.5503
28822ION     NA48356   7.503   4.310   1.369  0.0113  0.0942  0.0302
28823ION     NA48357   3.006   1.461   5.474 -0.0506  0.1269  0.1338
28824ION     NA48358  15.722   4.571   5.144 -0.1979  0.2225  0.1935
28825ION     NA48359  14.699  15.907  10.693  0.0008  0.0688 -0.1494
28826ION     NA48360   4.056   8.043   2.539 -0.1037 -0.1102 -0.1087
28827ION     NA48361   9.030   2.390  11.180 -0.0131 -0.2263 -0.0745
28828ION     NA48362  14.557  10.095   5.344 -0.0890  0.0588 -0.1402
28829ION     NA48363  16.031  13.752   5.196 -0.1770  0.1427  0.2977
28830ION     NA48364   2.532  17.811   5.681  0.0494  0.1713  0.0276
28831ION     NA48365   0.320   6.302  10.277  0.0574  0.1706  0.1220
28832ION     NA48366   0.916   3.495  10.447 -0.2421 -0.1408 -0.0474
28833ION     NA48367   1.876   8.227  10.146 -0.0823  0.0688 -0.0015
28834ION     NA48368  16.465   6.039  10.352 -0.2772  0.0453  0.3259
28835ION     NA48369   2.606   9.845   2.108 -0.0955  0.0079 -0.0592
28836ION     NA48370  12.413  17.266  10.749  0.0779  0.0760 -0.1007
28837ION     NA48371   5.388  12.930  10.534  0.0801 -0.0603  0.0701
28838ION     NA48372  15.657  18.116   5.184 -0.0247 -0.1147  0.2767
28839ION     NA48373  16.475  14.389  14.019  0.3169 -0.3370  0.0776
28840ION     NA48374  10.371  17.484  10.840 -0.2650  0.0151  0.3607
28841ION     NA48375  17.765   6.220   2.790 -0.0892 -0.1284 -0.0499
28842ION     NA48376   6.736  11.701   5.369  0.1621  0.1361  0.0409
28843ION     NA48377   4.536  15.804   5.548 -0.2159  0.1560  0.0569
28844ION     NA48378  16.383   5.457   2.075  0.0859  0.1313 -0.0158
28845ION     NA48379  16.862   7.133   4.378  0.1335  0.2052  0.2385
28846ION     NA48380  13.608   2.354  10.491 -0.1113  0.1522 -0.1821
28847ION     NA48381  12.728  17.268   5.620  0.0794  0.1932  0.3450
28848ION     NA48382   8.851  16.192  15.833  0.1208 -0.0817 -0.0529
28849ION     NA48383  12.866   2.108   4.042  0.0383 -0.1778  0.0082
28850ION     NA48384  12.505   3.469  11.932  0.0993 -0.0541 -0.1598
28851ION     NA48385  12.615  15.422  11.656 -0.0798 -0.1352  0.0383
28852ION     NA48386   0.524   2.989   3.347 -0.1614  0.1371 -0.0055
28853ION     NA48387  15.376   8.006   0.143 -0.2635  0.2246 -0.0094
28854ION     NA48388   7.759  10.093  13.237 -0.2269  0.2446  0.0855
28855ION     NA48389  11.273   9.118  13.627 -0.1092 -0.0858 -0.0296
28856ION     NA48390   7.435  16.739  10.897 -0.0430 -0.0773  0.2710
28857ION     NA48391  11.955   3.646  15.054  0.2691 -0.1073  0.0283
28858ION     NA48392   5.057  10.216   5.029 -0.1834  0.1092 -0.2744
28859ION     NA48393   3.661  11.260  14.297  0.0225 -0.0847  0.0568
28860ION     NA48394   1.492  17.726   5.713 -0.3737  0.0318  0.1904
28861ION     NA48395   9.351  10.534   1.335  0.1642 -0.0627  0.0803
28862ION     NA48396   5.725  15.731   0.899  0.1931 -0.0479 -0.1861
28863ION     NA48397   8.830  15.393  11.293 -0.0370  0.1902  0.1058
28864ION     NA48398  16.154   5.590  12.613  0.2511  0.0559 -0.0833
28865ION     NA48399   1.712   4.949  10.174 -0.0607  0.1123  0.2554
28866ION     NA48400  12.504   4.796   1.515  0.0265  0.3226  0.2365
28867ION     NA48401  16.558  10.576  10.402  0.0051 -0.1443 -0.0494
28868ION     NA48402   9.092   3.620  12.502 -0.0118  0.0396 -0.0721
28869ION     NA48403   2.589   5.663  12.523 -0.0507 -0.3135 -0.1603
28870ION     NA48404   4.980  14.957  14.232 -0.3298 -0.2840  0.1957
28871ION     NA48405  11.986   5.218  15.091 -0.2705 -0.4213  0.1264
28872ION     NA48406  17.812  17.246  14.467  0.1926 -0.0012 -0.0482
28873ION     NA48407   5.967  11.526   1.643 -0.0561 -0.0730 -0.1379
28874ION     NA48408  10.779  13.717  15.052  0.4113 -0.2775  0.1812
28875ION     NA48409   9.409   0.073   1.809 -0.0143 -0.0325  0.0602
28876ION     NA48410  13.262  17.729   3.724 -0.0799  0.0999 -0.0340
28877ION     NA48411   2.974  11.642   3.228  0.0384 -0.2267  0.0015
28878ION     NA48412  10.985  10.060   0.580 -0.0661  0.0074 -0.3143
28879ION     NA48413   9.386  12.256   4.416  0.0940 -0.2050  0.0619
28880ION     NA48414  10.145   8.001   3.190  0.2912  0.0161 -0.1674
28881ION     NA48415  11.654   0.366   0.063 -0.0268 -0.1277  0.2500
28882ION     NA48416  10.800  14.094   5.518 -0.0142  0.2123  0.3664
28883ION     NA48417   0.863  16.640   0.324  0.2046  0.2533 -0.0105
28884ION     NA48418   8.902   9.379   0.848  0.1553 -0.2800 -0.0933
28885ION     NA48419   4.275  11.112  12.649  0.0063  0.0947 -0.1098
28886ION     NA48420   5.577  18.188   4.177  0.2698 -0.2914 -0.0772
28887ION     NA48421   5.442   0.518  15.509 -0.1356  0.1226  0.1030
28888ION     NA48422  14.817   6.730  10.799  0.1613  0.2714 -0.0638
28889ION     NA48423   5.709  17.342   5.508 -0.0476  0.2450  0.1169
28890ION     NA48424  15.238   9.765  10.299  0.2577  0.1385  0.1809
28891ION     NA48425  10.193  10.620  15.838 -0.1073  0.0119 -0.3803
28892ION     NA48426   7.715  12.135   5.255  0.1348  0.1306  0.1685
28893ION     NA48427  10.906  14.689  15.640 -0.2799 -0.4644 -0.0615
28894ION     NA48428  18.293  18.071  14.293  0.0304 -0.1659  0.0573
28895ION     NA48429  11.826   2.774  10.910  0.3134  0.0310 -0.1530
28896ION     NA48430   7.658  11.094  12.023  0.3626 -0.0544 -0.0763
28897ION     NA48431   7.083  18.064  10.678  0.0874  0.0740 -0.1454
28898ION     NA48432   7.897   4.468  15.489  0.2219  0.1601  0.0361
28899ION     NA48433   4.563  17.960   3.705  0.1579  0.0111 -0.5405
28900ION     NA48434  15.275   1.458   5.016 -0.1047 -0.3081 -0.0151
28901ION     NA48435   1.669   8.025   2.881 -0.1306  0.2342  0.1944
28902ION     NA48436   4.609   4.457   0.631  0.0187 -0.0737 -0.0675
28903ION     NA48437   4.354   5.171  10.569 -0.1529 -0.2140 -0.2155
28904ION     NA48438   5.107   2.277  12.640  0.1957 -0.0336  0.0575
28905ION     NA48439  16.013  14.997  15.519 -0.2457 -0.2017 -0.2606
28906ION     NA48440   2.948   5.705  11.715  0.0686 -0.1085  0.2423
28907ION     NA48441  15.968  17.153   4.793 -0.1230  0.4237  0.0684
28908ION     NA48442  10.984  12.450  15.662 -0.2889 -0.1165  0.0774
28909ION     NA48443   8.665  10.691  15.557 -0.0342 -0.1074  0.2556
28910ION     NA48444   4.809  12.062   5.308  0.3831  0.0217 -0.0753
28911ION     NA48445   5.404   9.011  15.625 -0.1002 -0.0228  0.1349
28912ION     NA48446  10.681   7.266  12.675  0.0785 -0.0824  0.1703
28913ION     NA48447   9.585  16.193   3.210  0.1456 -0.0256 -0.0126
28914ION     NA48448   0.071  11.153   1.867 -0.4034 -0.0705  0.0492
28915ION     NA48449   1.053   8.082  15.064  0.0350 -0.1243  0.0594
28916ION     NA48450   6.064   5.486  10.468  0.0334 -0.2095 -0.1326
28917ION     NA48451  16.680   8.458   1.530 -0.1337  0.2787 -0.1024
28918ION     NA48452  16.452   2.580  12.614 -0.2286 -0.0366 -0.0131
28919ION     NA48453  11.434  12.184   0.448 -0.1531 -0.2071 -0.0660
28920ION     NA48454  16.378  14.523   2.270  0.2907 -0.0701 -0.2319
28921ION     NA48455  16.563   6.805  10.783  0.2596  0.1674 -0.3175
28922ION     NA48456  18.124  16.321  11.627  0.2366 -0.0046  0.1604
28923ION     NA48457   0.048   5.247  10.263  0.0369  0.0795 -0.0018
28924ION     NA48458   6.033  18.062   5.501 -0.4442  0.2531 -0.0375
28925ION     NA48459  12.063  13.411   5.261  0.0098  0.0762  0.1055
28926ION     NA48460   9.455  17.221  14.093  0.1886  0.1372 -0.3953
28927ION     NA48461  13.080  13.948  11.210 -0.1575  0.0861  0.0729
28928ION     NA48462   0.017  10.942   4.329 -0.2198  0.0068  0.2774
28929ION     NA48463  14.737  15.895   5.537  0.1429  0.2977  0.2617
28930ION     NA48464   9.482  14.216  14.107 -0.2441 -0.0193 -0.1188
28931ION     NA48465   3.259  14.932   1.384 -0.2655 -0.1164  0.3725
28932ION     NA48466   6.490  15.240  10.755  0.0409 -0.0995 -0.0676
28933ION     NA48467  10.818  13.951   3.172 -0.3230  0.2135 -0.2351
28934ION     NA48468  10.151   6.194  14.551  0.1971  0.3845 -0.0573
28935ION     NA48469   1.302   5.279   5.338 -0.0427  0.1143  0.1407
28936ION     NA48470   9.290  15.387  15.678  0.1803 -0.1074 -0.0184
28937ION     NA48471   8.558  13.584   5.764  0.1001  0.1711  0.0801
28938ION     NA48472  12.499   0.336  10.599  0.0871  0.0965  0.2618
28939ION     NA48473   5.003  15.194   0.398  0.0631 -0.1450 -0.1341
28940ION     NA48474   7.831   4.380   1.920  0.1279 -0.0398 -0.0402
28941ION     NA48475   6.492  10.071  10.667  0.1683  0.0169 -0.0199
28942ION     NA48476  12.885  15.363  14.375 -0.0451  0.0974 -0.0721
28943ION     NA48477  13.984   4.217   5.335  0.2682  0.3464  0.1870
28944ION     NA48478  18.078  10.194  14.076  0.3641 -0.2220  0.0423
28945ION     NA48479   3.347  13.549   5.333 -0.0531  0.1702  0.1580
28946ION     NA48480   7.909   4.051   5.384  0.3053  0.1942 -0.0350
28947ION     NA48481  14.220  16.263   1.162  0.0767  0.2099  0.1041
28948ION     NA48482   2.444  16.688   1.753  0.0180 -0.1448 -0.0451
28949ION     NA48483   4.086   6.688  12.082 -0.2543  0.1390 -0.1831
28950ION     NA48484   5.637   8.699   3.576 -0.2772  0.0310 -0.3434
28951ION     NA48485   2.893  16.678  14.263  0.2178  0.0707 -0.1109
28952ION     NA48486  11.999   5.833   0.866  0.2064 -0.2424 -0.3396
28953ION     NA48487  17.547   5.850  15.126 -0.1157  0.1742  0.0531
28954ION     NA48488   4.043   8.058   5.097  0.0180 -0.0521 -0.1004
28955ION     NA48489   0.823  13.924  10.449 -0.2238  0.0726 -0.0584
28956ION     NA48490  13.302   5.837  10.316  0.1036 -0.1337  0.0910
28957ION     NA48491   3.401   9.835   5.303 -0.0517  0.1841 -0.0020
28958ION     NA48492   4.305   9.043  10.224 -0.3157  0.0773 -0.0144
28959ION     NA48493   5.864   6.436  10.388  0.1001  0.2295 -0.1444
28960ION     NA48494  17.317  16.314  10.698 -0.2059 -0.0795  0.1524
28961ION     NA48495  14.248   7.333  12.547 -0.0491 -0.1975 -0.3270
28962ION     NA48496   2.613  11.586   5.126 -0.3965  0.1124  0.1180
28963ION     NA48497  16.662   6.128   4.555  0.2129 -0.2287  0.1959
28964ION     NA48498  10.458  15.568  10.820  0.0216 -0.1566 -0.1561
28965ION     NA48499   2.599  15.982   5.273  0.1229 -0.3552 -0.0604
28966ION     NA48500   2.460   8.823  10.239  0.1929  0.0218  0.0030
28967ION     NA48501   7.770   4.300  13.451  0.0048 -0.0766 -0.0228
28968ION     NA48502   3.787   8.000  14.093  0.1099 -0.1330  0.0549
28969ION     NA48503  16.251   7.756   4.875 -0.2751 -0.0059 -0.0142
28970ION     NA48504  10.623  13.174   3.027 -0.4542  0.0765  0.2525
28971ION     NA48505  15.332  12.166   5.091 -0.2534 -0.0856 -0.1102
28972ION     NA48506  14.952  13.905   5.301 -0.3201  0.4373  0.3579
28973ION     NA48507  17.234   6.086  10.616 -0.2870  0.2749  0.4572
28974ION     NA48508   5.890  16.441  10.807  0.1142  0.2393  0.1385
28975ION     NA48509   8.309  11.690   5.396  0.1743 -0.0930  0.2022
28976ION     NA48510   2.017   3.951   5.378 -0.3137  0.2984  0.1765
28977ION     NA48511  16.833  10.541   5.115  0.2620 -0.0051  0.1534
28978ION     NA48512   5.056   0.700  10.678  0.0559  0.3243  0.0237
28979ION     NA48513  15.099   8.690  13.161 -0.0898 -0.0370 -0.0735
28980ION     NA48514  14.226  17.713  15.836 -0.3229  0.1650 -0.1081
28981ION     NA48515  15.867   4.540   0.918  0.3565  0.5909 -0.0759
28982ION     NA48516   2.172   9.032  12.244 -0.0440  0.1183 -0.1718
28983ION     NA48517  13.179   3.714  11.087  0.4102  0.1540  0.2190
28984ION     NA48518   7.580   2.151  14.384  0.1398 -0.1621  0.1061
28985ION     NA48519  17.945  14.386  10.567 -0.3657  0.1473 -0.0723
28986ION     NA48520   1.404  13.952   1.471  0.0756 -0.1823 -0.0204
28987ION     NA48521  12.962  14.353  10.821  0.0657  0.2140 -0.2089
28988ION     NA48522   2.483   6.462   5.306  0.0407  0.3026  0.3241
28989ION     NA48523   3.820   8.154  10.314 -0.1220 -0.2504 -0.1285
28990ION     NA48524   7.607  14.213  10.847 -0.1601  0.0537  0.5627
28991ION     NA48525   2.437   1.597  10.360  0.0915 -0.1680 -0.1550
28992ION     NA48526  11.561   2.329   5.983 -0.1752  0.0521  0.0217
28993ION     NA48527  12.897   1.633  14.243  0.0922  0.1532  0.1070
28994ION     NA48528   8.690   9.689   5.391 -0.0943 -0.1880  0.2458
28995ION     NA48529   8.255  15.613   4.253  0.6212 -0.0849 -0.0844
28996ION     NA48530  15.684   0.690   5.267  0.0521 -0.1414  0.2525
28997ION     NA48531  11.126  14.087   2.315 -0.1213  0.1911  0.3257
28998ION     NA48532   2.818  11.350  10.403 -0.0494  0.1180 -0.0679
28999ION     NA48533   0.657   5.116   4.298 -0.0802 -0.3320  0.0373
29000ION     NA48534   3.018  17.379   2.366  0.3596  0.1178 -0.1475
29001ION     NA48535   1.525  14.991  13.537  0.2277 -0.2843 -0.0258
29002ION     NA48536  16.927  15.832   2.682  0.2645 -0.3451  0.1818
29003ION     NA48537  12.015   6.300  10.471 -0.0873 -0.0685  0.0732
29004ION     NA48538  17.227  16.810   5.146 -0.0534 -0.0874  0.1092
29005ION     NA48539   9.422   4.051  15.036 -0.1007  0.0079  0.2456
29006ION     NA48540  12.519  16.902  12.071 -0.1510 -0.0597  0.1735
29007ION     NA48541  10.051   7.041   4.260  0.0494  0.3027  0.2180
29008ION     NA48542   6.671   5.565   5.087  0.2299  0.0637 -0.0392
29009ION     NA48543   0.849  11.387   5.314 -0.0128 -0.0444 -0.2471
29010ION     NA48544   6.092   0.313  11.658  0.1012 -0.1433  0.0764
29011ION     NA48545   7.266   5.578  10.556  0.0746  0.1276  0.1953
29012ION     NA48546   5.460  15.485   5.595  0.3020 -0.0777  0.0872
29013ION     NA48547   6.111  17.977   1.650  0.1890  0.2029 -0.0314
29014ION     NA48548  17.506   7.737   3.224  0.0694 -0.1805  0.2322
29015ION     NA48549  13.361   1.445  10.613  0.0088 -0.3003 -0.0584
29016ION     NA48550   7.539  11.636  15.105 -0.1448 -0.0325  0.1416
29017ION     NA48551   6.022  10.260  13.331  0.1361  0.2666 -0.0889
29018ION     NA48552   1.766  11.220   5.251 -0.1007 -0.0606  0.0183
29019ION     NA48553  12.653   3.208  10.593  0.1400  0.0663 -0.1148
29020ION     NA48554   6.745  10.118   5.348 -0.0368 -0.0167 -0.1127
29021ION     NA48555  16.645   4.111   5.176  0.0821 -0.0793  0.0805
29022ION     NA48556  14.364  12.336   1.018 -0.1157  0.0081  0.2451
29023ION     NA48557   5.585  14.059  10.733  0.0825 -0.1375  0.0010
29024ION     NA48558   1.350   2.541   5.564 -0.1117 -0.0640  0.0342
29025ION     NA48559   3.606  11.303   1.842  0.1507  0.3122  0.1671
29026ION     NA48560   6.774   5.986  14.023  0.1524  0.1667 -0.2687
29027ION     NA48561  16.390   4.958   5.034  0.1486  0.0696 -0.1524
29028ION     NA48562  17.577   4.202  11.374  0.1610  0.1589 -0.3268
29029ION     NA48563   2.243  16.928   5.271  0.2488  0.1773  0.0505
29030ION     NA48564  12.450   1.043  10.842  0.1506  0.2603  0.1024
29031ION     NA48565   1.567  16.401   3.652  0.0457  0.2507 -0.0957
29032ION     NA48566   5.369   7.042   5.310 -0.1654  0.3631 -0.0934
29033ION     NA48567   1.147  13.960   3.640  0.0842  0.2709  0.1003
29034ION     NA48568  14.176  18.204   0.008  0.0871 -0.6069  0.1052
29035ION     NA48569   9.587  14.311  10.755  0.0088 -0.1245 -0.0450
29036ION     NA48570   6.578  11.808  12.841 -0.3305  0.0192 -0.1982
29037ION     NA48571   5.912   7.471   3.191  0.1074 -0.0896  0.0503
29038ION     NA48572   1.477  12.218  10.630  0.4070  0.3643  0.0469
29039ION     NA48573   8.620  12.363   2.125  0.0451  0.0672  0.3992
29040ION     NA48574  11.057   8.786  15.784 -0.1556 -0.2151 -0.2063
29041ION     NA48575  14.220  18.184   5.155 -0.0279 -0.1294  0.0830
29042ION     NA48576   0.329  17.164  13.874 -0.2117 -0.0126  0.0918
29043ION     NA48577  12.203  17.977   5.791 -0.1766  0.0139 -0.0823
29044ION     NA48578  16.219   4.596  13.899  0.1980  0.1590 -0.1374
29045ION     NA48579   2.636   3.010   2.007 -0.1958  0.1541  0.0807
29046ION     NA48580   9.219  14.478  15.176 -0.1481  0.0176  0.3368
29047ION     NA48581  13.512   0.024  11.140  0.0215 -0.1685  0.3455
29048ION     NA48582  13.904   9.752   4.334  0.0979  0.1444 -0.1431
29049ION     NA48583  10.035   0.342  10.951  0.1920  0.0330 -0.1565
29050ION     NA48584  15.411   1.738   0.816  0.0712 -0.0903  0.2363
29051ION     NA48585  11.834   0.420   5.804 -0.1231 -0.1671 -0.0241
29052ION     NA48586   8.087   5.179  10.468 -0.1576 -0.0530  0.1926
29053ION     NA48587   8.418   1.700   0.810  0.0093 -0.0230  0.0828
29054ION     NA48588   5.661   5.925   5.367  0.1097 -0.1069 -0.2161
29055ION     NA48589  13.158   4.668   5.343 -0.1326 -0.2243  0.0860
29056ION     NA48590   2.108   5.451   5.431  0.2804 -0.1112 -0.0331
29057ION     NA48591   1.191  18.119  11.675 -0.1353  0.0061  0.2028
29058ION     NA48592  18.147   3.255  11.222 -0.4195 -0.4651 -0.0732
29059ION     NA48593  12.353   4.604   5.354  0.0938  0.1828  0.1094
29060ION     NA48594   8.097  14.454   0.847 -0.2792 -0.0611  0.3268
29061ION     NA48595  14.091  16.613   5.613 -0.1941  0.1621 -0.1654
29062ION     NA48596  11.364  17.665  13.179 -0.0789  0.2568 -0.3302
29063ION     NA48597  11.598   6.839  10.595 -0.3231 -0.0853 -0.0486
29064ION     NA48598   1.160   3.785   4.503  0.0060 -0.2400  0.0973
29065ION     NA48599  11.224   9.716   3.877  0.1835 -0.2509 -0.2570
29066ION     NA48600   4.637  16.772  11.301  0.0810 -0.1890  0.1893
29067ION     NA48601  13.747   1.813  14.892 -0.1427  0.0422 -0.1219
29068ION     NA48602   0.075   9.030  13.747  0.2112  0.3181 -0.0892
29069ION     NA48603   2.375  14.536  14.292 -0.2956 -0.0566  0.1242
29070ION     NA48604   6.998   7.404  10.923 -0.1436 -0.1372 -0.0013
29071ION     NA48605  14.705  14.381  11.008  0.1401  0.3769 -0.2879
29072ION     NA48606  17.980   1.886   2.934 -0.0534 -0.3333  0.0784
29073ION     NA48607  18.228   0.904  13.610 -0.2455  0.0927  0.0649
29074ION     NA48608  11.225   5.487  12.518  0.0064 -0.0501 -0.1548
29075ION     NA48609  10.554  11.962  15.225  0.2531  0.0885  0.0522
29076ION     NA48610   2.074  14.030  15.002 -0.0093 -0.1802 -0.2007
29077ION     NA48611  15.223  16.033  10.780  0.0002 -0.1848 -0.0518
29078ION     NA48612  12.031   3.061   5.467  0.1339  0.0441  0.0901
29079ION     NA48613  13.095   8.592   3.644  0.1144  0.5706  0.0216
29080ION     NA48614   5.285   6.144   2.849 -0.0957 -0.1432 -0.0071
29081ION     NA48615   1.653  11.497  14.963 -0.0980 -0.0997  0.1786
29082ION     NA48616  16.171  13.829   1.493 -0.0472  0.0935  0.1729
29083ION     NA48617   2.550  10.009  10.223  0.1234  0.1082 -0.2137
29084ION     NA48618   1.405   0.947  14.079 -0.1383 -0.1495  0.1626
29085ION     NA48619   3.248   8.441   1.190 -0.1491  0.0786  0.1458
29086ION     NA48620  17.799   4.919  10.262  0.1357  0.0360  0.3006
29087ION     NA48621  11.289  11.609  10.554  0.2251 -0.3269 -0.1380
29088ION     NA48622   9.854   7.943   5.322  0.1107  0.2195  0.0388
29089ION     NA48623   7.512  10.882   2.241  0.0366 -0.0580  0.2829
29090ION     NA48624   9.222  17.551   5.401 -0.0784 -0.1031  0.0467
29091ION     NA48625  16.145  14.088  10.549  0.1800 -0.0544 -0.2055
29092ION     NA48626  10.565   4.405   5.513  0.2342  0.1403 -0.0235
29093ION     NA48627   1.840  15.556   4.771  0.0263  0.0202  0.2841
29094ION     NA48628  12.047  10.107   1.588  0.0014  0.2727 -0.3325
29095ION     NA48629  10.107  16.204   0.084 -0.0017  0.1715 -0.0338
29096ION     NA48630   7.929   7.799  10.770 -0.3440  0.4402  0.0022
29097ION     NA48631  10.058  17.495   5.230  0.0216  0.1799  0.1207
29098ION     NA48632   3.056   9.816  13.098 -0.0781 -0.1652 -0.1016
29099ION     NA48633   2.003   8.184   5.146  0.1141  0.0489 -0.0235
29100ION     NA48634  11.303   2.396  13.331 -0.1476 -0.2377  0.3441
29101ION     NA48635   0.750   5.574  10.249 -0.1239  0.0390  0.0026
29102ION     NA48636  13.398   5.365   1.645 -0.4034 -0.1718 -0.0778
29103ION     NA48637  14.354   1.839  10.927  0.2271 -0.1828  0.0944
29104ION     NA48638  15.947   8.584   5.241  0.2996  0.0390 -0.0948
29105ION     NA48639  17.051   1.128   5.053 -0.1340 -0.0169 -0.0340
29106ION     NA48640  17.039  14.909  10.424  0.1868  0.0410  0.0927
29107ION     NA48641   4.375   2.692   4.812 -0.0844 -0.0751  0.2635
29108ION     NA48642   0.416   9.864   5.002  0.1387  0.0360  0.1004
29109ION     NA48643  15.840  14.030  15.281  0.1503 -0.3843  0.1244
29110ION     NA48644  18.287  11.611   5.334  0.0587 -0.0613  0.0584
29111ION     NA48645  13.865   4.269  10.351 -0.1853  0.0181  0.2422
29112ION     NA48646   2.611  10.586  15.605  0.0805 -0.3246 -0.2388
29113ION     NA48647  17.377   6.202   0.333 -0.2838  0.1204 -0.0697
29114ION     NA48648  11.205  14.801  10.820  0.3076 -0.1651  0.0899
29115ION     NA48649   7.086  18.000   0.585 -0.3496  0.1011  0.2188
29116ION     NA48650   0.492   1.634  10.558  0.0878  0.0010 -0.2239
29117ION     NA48651  11.030   6.760   5.171  0.1231  0.0273  0.0351
29118ION     NA48652  10.994  13.694  11.056  0.0047 -0.0646  0.0486
29119ION     NA48653   9.440   5.500  10.570  0.0753  0.3594 -0.1149
29120ION     NA48654  18.170   3.267   3.718  0.0401  0.0407 -0.0302
29121ION     NA48655   1.036   3.013   5.431  0.0509  0.2124 -0.1242
29122ION     NA48656  11.592  12.208  10.571 -0.0455 -0.1659 -0.2048
29123ION     NA48657   1.000   2.092  12.441 -0.1416 -0.0967 -0.4910
29124ION     NA48658   7.156  10.948  10.670  0.0350  0.0947 -0.1656
29125ION     NA48659  11.027   0.528   1.408 -0.0817 -0.1014  0.0095
29126ION     NA48660  10.565  17.682   6.045 -0.0798 -0.0655 -0.1181
29127ION     NA48661  17.093  12.637   5.313 -0.2009  0.2467 -0.0452
29128ION     NA48662  17.834  15.154  12.247 -0.1639  0.0915  0.0840
29129ION     NA48663  10.744   6.766  15.591  0.0625  0.0559  0.2858
29130ION     NA48664   7.474   6.822   5.296 -0.0454  0.1363 -0.3081
29131ION     NA48665  12.190  17.138   4.302 -0.2175  0.0153  0.0600
29132ION     NA48666   4.050  17.874  14.917 -0.4010 -0.2927 -0.0145
29133ION     NA48667   0.067   4.174   5.206  0.1277 -0.0742  0.1408
29134ION     NA48668   1.739   6.486   0.088  0.1097  0.1045  0.0268
29135ION     NA48669  13.417   0.471  13.332 -0.0290 -0.1506  0.0569
29136ION     NA48670   2.047  11.374  10.333 -0.1097 -0.0040 -0.3177
29137ION     NA48671  15.656  10.623  10.331  0.2621  0.2763  0.1811
29138ION     NA48672  11.436   8.474   3.677  0.0601 -0.2548  0.3163
29139ION     NA48673   6.806   1.316  12.465  0.4213  0.4104 -0.0665
29140ION     NA48674  16.525   2.329   2.954 -0.0168 -0.1324 -0.2113
29141ION     NA48675   0.194   1.604   5.551  0.2012 -0.2067  0.2289
29142ION     NA48676   2.901  11.869  10.448 -0.1532  0.0165 -0.2446
29143ION     NA48677   5.883   0.030   3.703 -0.1643  0.0581  0.1833
29144ION     NA48678   2.809   3.261   5.485 -0.0017  0.0535  0.1948
29145ION     NA48679   2.066   1.147  15.724  0.0691 -0.1083  0.0447
29146ION     NA48680  15.286  17.543  10.904 -0.0116 -0.2671  0.0415
29147ION     NA48681  13.615   8.751   2.540 -0.0704  0.1459  0.2276
29148ION     NA48682   6.563  11.371   3.705  0.0932  0.1377 -0.5733
29149ION     NA48683  16.761  13.402  10.513 -0.1984 -0.4574  0.2264
29150ION     NA48684   7.629  15.494  10.599 -0.0007  0.0207  0.1555
29151ION     NA48685  17.553  11.129   4.820 -0.1353 -0.2948  0.0163
29152ION     NA48686   1.555  17.749  14.962  0.0807  0.0020 -0.0120
29153ION     NA48687  10.610   3.892   1.140 -0.0520  0.2945 -0.3589
29154ION     NA48688   1.512  11.297   2.530  0.1790  0.1551 -0.1730
29155ION     NA48689   2.483   2.512  10.428  0.0619 -0.3156  0.1646
29156ION     NA48690   9.805  16.404   4.190 -0.3387 -0.2910 -0.0226
29157ION     NA48691  10.270  12.536  10.396 -0.1670  0.2561 -0.1118
29158ION     NA48692   0.407  13.191  11.304  0.0237  0.0042 -0.0297
29159ION     NA48693  18.167   8.363  10.663  0.1352 -0.0082  0.1270
29160ION     NA48694   1.011  17.586   0.906 -0.1420  0.3171  0.0173
29161ION     NA48695  11.190   3.923  14.054 -0.0271  0.2740 -0.2595
29162ION     NA48696   0.352   1.633   0.561  0.0013 -0.2387  0.1997
29163ION     NA48697  12.894  16.317   0.064 -0.1334 -0.1146  0.0954
29164ION     NA48698  14.051   1.130   0.349 -0.1305  0.0295 -0.1673
29165ION     NA48699   9.971   8.565   5.466  0.1565  0.0268 -0.0835
29166ION     NA48700  11.607  14.946  13.301  0.1162 -0.0333  0.2528
29167ION     NA48701   1.469   0.628   5.555  0.4636 -0.0808 -0.1796
29168ION     NA48702  15.899   8.558  14.264  0.0358  0.2224 -0.0466
29169ION     NA48703  16.987   4.885   1.762 -0.0237  0.0061  0.0088
29170ION     NA48704   7.915  10.495  10.852  0.2867 -0.0931  0.3486
29171ION     NA48705   1.501   2.433  10.172 -0.0883  0.1356 -0.2271
29172ION     NA48706  12.499   1.035   1.597 -0.0158 -0.2685 -0.2856
29173ION     NA48707  14.840   0.733   5.280 -0.2943  0.0176  0.3843
29174ION     NA48708   7.152   9.442   5.507  0.0295  0.3636  0.0600
29175ION     NA48709   0.054  13.622  10.477 -0.0048  0.0150 -0.0252
29176ION     NA48710   7.494   1.052   5.739 -0.4184 -0.0038  0.0732
29177ION     NA48711   2.348  17.277  10.792 -0.0028 -0.0691  0.0123
29178ION     NA48712   4.598   8.683   1.001 -0.2589  0.0693 -0.1590
29179ION     NA48713  17.631   5.249   0.629 -0.2067  0.0139 -0.5221
29180ION     NA48714  11.199   3.417  15.518  0.1490  0.0008  0.2402
29181ION     NA48715   6.143  18.305  10.651  0.2745 -0.0420 -0.2099
29182ION     NA48716   7.860   0.125   5.468  0.0001 -0.1132 -0.1050
29183ION     NA48717  10.127   2.576  11.200 -0.1630 -0.2217 -0.0363
29184ION     NA48718  13.313   1.205   5.349  0.0428  0.0357  0.0086
29185ION     NA48719   7.956  15.112  15.160 -0.0806  0.2956  0.0061
29186ION     NA48720  11.462  14.219  13.912  0.1966 -0.1863 -0.0946
29187ION     NA48721   6.256  17.445  10.865 -0.2001 -0.0095 -0.0536
29188ION     NA48722  13.925  18.253  10.823  0.2622 -0.0347 -0.0011
29189ION     NA48723   0.186  16.537  15.506 -0.0037  0.0182  0.0191
29190ION     NA48724   0.563   4.525  10.827  0.1246 -0.4798  0.1050
29191ION     NA48725   9.318   8.380  14.011  0.0352  0.0569 -0.4052
29192ION     NA48726  14.723   3.120  11.724 -0.0116 -0.0967  0.1710
29193ION     NA48727  11.113  16.907   5.830 -0.1898 -0.0157 -0.0993
29194ION     NA48728  14.472   1.503   5.250 -0.1115 -0.2846 -0.0459
29195ION     NA48729   5.499   2.791   5.838 -0.2132 -0.1924  0.1343
29196ION     NA48730   7.379  16.649   5.471  0.1444 -0.1447 -0.1195
29197ION     NA48731  15.547   8.064  10.688 -0.1566 -0.0540  0.5776
29198ION     NA48732  16.760   7.107   4.884  0.2756 -0.1145  0.0329
29199ION     NA48733   7.890   7.895   4.699 -0.3137  0.0246 -0.0930
29200ION     NA48734  16.008   8.785  10.419  0.4389  0.3061 -0.2320
29201ION     NA48735   9.110   8.439  10.749 -0.0662  0.1549 -0.0310
29202ION     NA48736  14.367   7.428   3.622  0.0250 -0.1819  0.2436
29203ION     NA48737   8.756  10.607   5.214 -0.4140  0.2863  0.1065
29204ION     NA48738   9.673  15.776   5.293  0.0619  0.0472 -0.0375
29205ION     NA48739  13.706  14.528  15.096 -0.0062 -0.1281 -0.1306
29206ION     NA48740   8.825  12.257   3.376  0.3471  0.1134 -0.1659
29207ION     NA48741   0.904   5.243  12.411  0.0064 -0.1898  0.2204
29208ION     NA48742   4.435   0.707   2.992  0.2821 -0.2761  0.2881
29209ION     NA48743  13.948  12.382   1.879 -0.0817  0.1551  0.1921
29210ION     NA48744  12.248   9.207  14.450 -0.0917  0.0303 -0.2447
29211ION     NA48745   9.752  14.583   5.476 -0.0623  0.1414  0.1552
29212ION     NA48746  15.708   8.795  15.384 -0.0907  0.1204 -0.1859
29213ION     NA48747  11.241  10.740  10.425 -0.2482  0.0564  0.1228
29214ION     NA48748  13.568  14.177   5.436 -0.3037 -0.0170 -0.1036
29215ION     NA48749   1.323   9.978   4.981 -0.1270 -0.2672 -0.1611
29216ION     NA48750  16.312  10.199   2.073 -0.1741  0.1408 -0.1710
29217ION     NA48751   3.237   2.082  10.591  0.3494 -0.0150  0.2234
29218ION     NA48752  17.870   5.326   4.519  0.2332  0.1333 -0.2229
29219ION     NA48753   6.016   2.090   2.580  0.1286  0.4431  0.2367
29220ION     NA48754  14.242  17.099   5.610  0.3291  0.1546 -0.2081
29221ION     NA48755   3.160  15.823  11.030 -0.0239 -0.2625  0.2604
29222ION     NA48756  12.540   8.968  10.819 -0.0621 -0.3063  0.2060
29223ION     NA48757   7.908   0.458   2.098  0.0531 -0.2653 -0.2043
29224ION     NA48758   4.538   9.947   4.499  0.0677  0.0333  0.0184
29225ION     NA48759  15.819   6.362   5.349  0.1297  0.3246 -0.1937
29226ION     NA48760   1.579  13.738  10.531  0.1526  0.0101 -0.1548
29227ION     NA48761  13.244   4.473  14.419  0.3308  0.0145 -0.3834
29228ION     NA48762   3.420  13.301   1.973 -0.1759  0.1460  0.0559
29229ION     NA48763   0.604   5.897   4.881 -0.1875 -0.4249 -0.0537
29230ION     NA48764  16.741   8.432  10.507  0.1391 -0.1666  0.1057
29231ION     NA48765   1.201  11.916  11.975 -0.0378 -0.0352 -0.1956
29232ION     NA48766   1.282   1.602   2.255  0.0008  0.2693 -0.0074
29233ION     NA48767  13.466  14.544   0.187 -0.2291 -0.2034  0.3594
29234ION     NA48768   5.001  18.008   5.304  0.0332  0.0291  0.1720
29235ION     NA48769   0.742   2.336  15.679  0.1010 -0.2386  0.0382
29236ION     NA48770   6.582   8.261   5.035  0.1037 -0.3233 -0.0498
29237ION     NA48771  14.288   4.971  10.190  0.0373 -0.0424  0.3083
29238ION     NA48772   1.509   1.865  10.298  0.0558  0.0916  0.0089
29239ION     NA48773  14.197  11.020   5.339 -0.3446 -0.1839 -0.4205
29240ION     NA48774   5.010   9.180  14.738 -0.1166  0.1206  0.1104
29241ION     NA48775  15.523  13.957  13.508  0.0547 -0.0040 -0.0772
29242ION     NA48776   2.143  11.554   1.729 -0.1244 -0.1660 -0.1465
29243ION     NA48777   7.508  14.914   5.572 -0.2749 -0.1266  0.1698
29244ION     NA48778   1.662   9.069  10.060 -0.1579  0.1138 -0.1780
29245ION     NA48779  12.122   6.180  14.949 -0.6891  0.3173 -0.3307
29246ION     NA48780  15.980   7.574  11.717  0.0250  0.3074  0.2572
29247ION     NA48781   2.445   9.573  11.226 -0.1263  0.0002 -0.0346
29248ION     NA48782   7.624   1.269  15.119  0.0668 -0.0039  0.2332
29249ION     NA48783   9.490  15.917  10.727  0.1019  0.0870  0.0471
29250ION     NA48784  14.097  11.501   1.243 -0.1193  0.0747  0.2423
29251ION     NA48785   4.275  13.619  10.852 -0.0430  0.0727  0.1049
29252ION     NA48786   1.621  18.323   3.139 -0.0219  0.0194 -0.1840
29253ION     NA48787   6.677   8.799   2.452 -0.0407 -0.0912  0.0097
29254ION     NA48788  15.119   3.453   5.074  0.0779 -0.0489 -0.2535
29255ION     NA48789  14.381   7.466  14.368  0.1640  0.2365  0.1403
29256ION     NA48790  17.396   6.958  10.723  0.2415  0.1164  0.0598
29257ION     NA48791  13.104   3.527  12.625  0.4490  0.3304  0.0514
29258ION     NA48792   7.180   3.489   5.501  0.0086 -0.0395 -0.1727
29259ION     NA48793   3.064  12.265  11.286 -0.1901  0.3747  0.2682
29260ION     NA48794   6.261   7.273  10.568 -0.0331  0.0358  0.0163
29261ION     NA48795  13.480   5.222   0.586  0.0580 -0.1214  0.0720
29262ION     NA48796   3.339   1.878  13.495 -0.1750 -0.0220  0.1265
29263ION     NA48797   0.672   6.581  11.853 -0.2540  0.1443 -0.0481
29264ION     NA48798  11.951   5.435  11.879 -0.2305  0.2669 -0.0707
29265ION     NA48799   9.924  16.953  12.773 -0.0871 -0.1742 -0.1314
29266ION     NA48800   4.359   1.236   5.321  0.1076 -0.0488 -0.2277
29267ION     NA48801   3.443  15.984  15.640  0.3614  0.2076  0.0722
29268ION     NA48802   3.725   3.702  10.577 -0.0831 -0.1245 -0.0047
29269ION     NA48803  12.685   8.969  12.152  0.1194  0.0153  0.4126
29270ION     NA48804  13.110  10.071  10.420  0.0467  0.2481  0.0857
29271ION     NA48805  11.121  14.423   1.078 -0.2223  0.0117  0.0680
29272ION     NA48806   9.088   6.259   5.332 -0.0379 -0.0049  0.0742
29273ION     NA48807   2.259  16.260  10.618 -0.0709 -0.1986  0.2066
29274ION     NA48808  12.335  13.561  10.838 -0.1696  0.1599 -0.1464
29275ION     NA48809  18.036   0.909  10.660  0.2849 -0.0434  0.2538
29276ION     NA48810   4.476  12.680  10.512 -0.1637 -0.2015 -0.2051
29277ION     NA48811  16.776   1.369   1.999  0.2494 -0.0127 -0.1750
29278ION     NA48812  14.844   4.076  14.271  0.1108  0.1429  0.2912
29279ION     NA48813   8.180  15.616   0.991  0.1104  0.1437  0.0845
29280ION     NA48814   6.933  13.943  11.076 -0.1956  0.0143  0.2926
29281ION     NA48815   0.644   8.242  10.340  0.0826  0.1739  0.2958
29282ION     NA48816   1.359  15.803  10.636  0.3000  0.0653  0.0300
29283ION     NA48817  15.222   5.251  13.978  0.0673 -0.3541 -0.0143
29284ION     NA48818   6.280  13.495  10.585 -0.1071  0.1527  0.2294
29285ION     NA48819  18.277   0.224   5.439  0.3133  0.1486  0.1395
29286ION     NA48820   6.724   6.855  14.585  0.0959 -0.0090 -0.1854
29287ION     NA48821   9.064  11.397  14.174 -0.1537 -0.1851  0.1464
29288ION     NA48822   7.914   1.864   5.714  0.2272  0.0329  0.0616
29289ION     NA48823  18.311   0.565  15.687 -0.0921 -0.0697  0.0019
29290ION     NA48824   1.329  12.859   2.633  0.3580  0.1278  0.2465
29291ION     NA48825   1.912   3.304  10.366  0.2906 -0.0614  0.3701
29292ION     NA48826   3.484  12.473   2.408  0.4003 -0.2481 -0.0322
29293ION     NA48827   4.025   1.363   0.264  0.0721 -0.1058  0.0158
29294ION     NA48828   3.057   2.711   1.250 -0.0338 -0.1737 -0.1554
29295ION     NA48829   0.510   0.811   5.707 -0.2979 -0.0766 -0.3734
29296ION     NA48830  12.993  11.588  11.201 -0.0196 -0.0676  0.1086
29297ION     NA48831   6.179   9.238  11.822 -0.0649  0.2365  0.0265
29298ION     NA48832  16.627   6.223   5.126  0.0223  0.1609  0.1107
29299ION     NA48833  17.327   3.885  10.130 -0.2985 -0.2214  0.1591
29300ION     NA48834   9.550  13.864  12.984 -0.0280 -0.1759  0.1372
29301ION     NA48835   9.688   3.192   1.619  0.1121 -0.2476 -0.1537
29302ION     NA48836   7.548   5.510   0.890  0.1155 -0.0569 -0.3362
29303ION     NA48837  14.709  13.493   4.399  0.2469 -0.1779  0.1605
29304ION     NA48838  14.389   9.506  14.516  0.1180  0.0025  0.1885
29305ION     NA48839  15.284   7.405  13.501  0.1473  0.0177 -0.2321
29306ION     NA48840   3.629   8.915   5.003 -0.2632 -0.0210  0.2378
29307ION     NA48841  17.037   9.908  10.299  0.1006  0.1575  0.1423
29308ION     NA48842  16.299  12.552  10.462 -0.1844 -0.2192 -0.1000
29309ION     NA48843  11.307   7.550   5.183  0.2321 -0.0711  0.0240
29310ION     NA48844  16.609  15.532  10.650 -0.1492 -0.0297  0.0471
29311ION     NA48845   4.931  14.567   3.671 -0.3120  0.5194  0.1548
29312ION     NA48846  15.194   3.416  13.673  0.1097  0.1177  0.2509
29313ION     NA48847   1.079  14.428  15.440  0.2557 -0.1654 -0.2502
29314ION     NA48848   5.977  13.543   3.417 -0.1543  0.1591 -0.1535
29315ION     NA48849  17.311   2.216   4.218 -0.1159  0.0412 -0.2097
29316ION     NA48850  13.864  16.760  10.790 -0.2360  0.0751 -0.0876
29317ION     NA48851   9.961   0.116   5.965 -0.3033  0.1234 -0.1437
29318ION     NA48852   9.987   4.153  10.788  0.0714  0.1758 -0.0630
29319ION     NA48853  12.721  16.181   1.877  0.0645  0.0932 -0.0157
29320ION     NA48854   6.598  14.737   5.565  0.1239 -0.3270 -0.1551
29321ION     NA48855   1.231   1.464   5.476 -0.0354 -0.0656 -0.1499
29322ION     NA48856   6.909   1.155   4.310 -0.0510  0.2004  0.0852
29323ION     NA48857   8.582  17.596   3.621  0.1428  0.1475  0.0380
29324ION     NA48858  10.097  10.568  13.166 -0.1372  0.0475 -0.0320
29325ION     NA48859   8.075   9.478  10.763 -0.0646  0.0208 -0.1128
29326ION     NA48860  15.358  17.862  14.406  0.3400 -0.0554  0.0224
29327ION     NA48861   4.050  16.407  10.888  0.0449 -0.2175  0.2589
29328ION     NA48862   2.732   7.851   0.620 -0.2062 -0.2544  0.1589
29329ION     NA48863   4.236  10.585   5.139 -0.1191 -0.3997  0.1639
29330ION     NA48864  14.024   2.781   5.381  0.1398 -0.2688  0.2170
29331ION     NA48865   2.520  13.979  13.208  0.0207 -0.1273  0.0484
29332ION     NA48866  17.898   9.388   4.160  0.0116 -0.0391 -0.0905
29333ION     NA48867   8.308  13.570   4.239  0.0296  0.1379  0.2223
29334ION     NA48868  14.107  17.404   1.951  0.2206  0.0564  0.1364
29335ION     NA48869   9.222  13.694   2.152  0.3925 -0.0536 -0.0203
29336ION     NA48870  11.269  12.605  10.518 -0.2269  0.2926  0.2485
29337ION     NA48871  17.677  12.980  10.505 -0.0445  0.1894  0.4056
29338ION     NA48872   8.480  17.585  11.110  0.0082 -0.4792 -0.3485
29339ION     NA48873  12.016  12.453   5.128  0.2493 -0.1346  0.1234
29340ION     NA48874   3.258  13.884  13.987  0.1346 -0.1154  0.2349
29341ION     NA48875  15.936   5.417  10.269 -0.0606 -0.1291 -0.2376
29342ION     NA48876  13.139  13.652  14.208 -0.3167 -0.1989 -0.1202
29343ION     NA48877  18.262  13.316   5.317 -0.0370 -0.1221 -0.0946
29344ION     NA48878   1.142   5.352  13.321 -0.0765 -0.1042 -0.1463
29345ION     NA48879   8.030   3.506  10.463  0.1473 -0.0418 -0.0796
29346ION     NA48880  11.714   3.020   4.722  0.2954 -0.1050  0.0113
29347ION     NA48881   1.610  12.299  13.858  0.3500 -0.4534 -0.0684
29348ION     NA48882  12.971   5.636  11.136 -0.0160  0.1565  0.0070
29349ION     NA48883  14.755  17.143  10.846  0.0205 -0.0886 -0.0467
29350ION     NA48884  15.929   9.475   5.164  0.2295 -0.2204  0.4092
29351ION     NA48885  10.812   6.389  12.842 -0.1354 -0.1746 -0.2319
29352ION     NA48886   7.442   1.453   0.265 -0.0971 -0.0283 -0.0602
29353ION     NA48887   3.257  14.542   5.537  0.0335  0.0368 -0.2666
29354ION     NA48888  12.874  17.905  12.319 -0.1773 -0.1698 -0.0676
29355ION     NA48889  17.903  10.747   0.079  0.1415  0.1140 -0.1505
29356ION     NA48890   3.132  15.159   5.585 -0.1685 -0.2238  0.1112
29357ION     NA48891  13.308   0.372   1.206 -0.0550 -0.0538 -0.0134
29358ION     NA48892   5.162  11.856  13.571  0.2297 -0.0378  0.0526
29359ION     NA48893  12.337   7.416  10.748  0.0860 -0.2349  0.1784
29360ION     NA48894  15.949  10.509   5.091  0.1716 -0.0726  0.3219
29361ION     NA48895   5.191  11.240   2.578  0.0809 -0.2995 -0.1471
29362ION     NA48896  10.062   4.644  10.640  0.0464  0.3421  0.0281
29363ION     NA48897   1.710   2.785   1.501  0.1650  0.1026 -0.1257
29364ION     NA48898   9.576   2.841  13.279 -0.2081 -0.3010 -0.2008
29365ION     NA48899   8.064  17.777   0.693  0.2693 -0.1801  0.1498
29366ION     NA48900  10.589   7.823   2.907  0.2052 -0.0040  0.1382
29367ION     NA48901   1.743  11.428  14.030  0.1953  0.0384 -0.0568
29368ION     NA48902  12.310   0.239  11.277 -0.2950 -0.0836 -0.1340
29369ION     NA48903   6.902   0.459  10.600  0.1759  0.1471  0.0583
29370ION     NA48904   8.855   5.031   5.632 -0.1178 -0.4146  0.0543
29371ION     NA48905   9.280   5.343   0.597 -0.0119 -0.0921 -0.1812
29372ION     NA48906  16.625   1.760  12.708 -0.2068 -0.2874  0.2139
29373ION     NA48907   4.089   4.429   1.384  0.1371  0.1213 -0.0224
29374ION     NA48908  13.268   9.234   3.392 -0.0211 -0.0440 -0.4198
29375ION     NA48909   9.372  11.475   5.288 -0.1480  0.0168 -0.0391
29376ION     NA48910   7.543  13.398  10.909 -0.2579 -0.2764 -0.2497
29377ION     NA48911  16.207   3.437  14.704  0.1530  0.3005  0.0604
29378ION     NA48912   3.538  14.468  14.741 -0.1452 -0.2009 -0.0741
29379ION     NA48913   9.592   9.161   5.248  0.0086 -0.0240  0.0762
29380ION     NA48914   4.532  15.540  12.078 -0.1803  0.1972  0.0394
29381ION     NA48915   6.386   4.632  10.500 -0.1256 -0.1967 -0.1421
29382ION     NA48916   2.031   1.222   5.308  0.1428 -0.2033 -0.0374
29383ION     NA48917  14.787  17.554  13.553  0.1088 -0.1153  0.2709
29384ION     NA48918  11.055  18.314  14.961  0.0420 -0.0405 -0.0069
29385ION     NA48919   5.290  16.712  13.171  0.0440  0.0203 -0.0904
29386ION     NA48920   9.116   2.619   1.339 -0.1246  0.2748  0.0161
29387ION     NA48921   8.642   5.535   3.172  0.0883  0.1915 -0.0487
29388ION     NA48922  12.501   2.092   5.552  0.0891 -0.0946  0.0856
29389ION     NA48923   4.285  18.073   5.418  0.0962  0.3686  0.2376
29390ION     NA48924   2.708   3.771  13.673  0.1046  0.2732 -0.1433
29391ION     NA48925  16.391  18.019  10.932  0.0658 -0.2545  0.0084
29392ION     NA48926   9.908   6.211   0.171  0.4216  0.0222 -0.2578
29393ION     NA48927   5.018   1.241   4.008  0.0427 -0.0924 -0.2062
29394ION     NA48928   8.912  11.301  15.447 -0.2479 -0.3224 -0.0233
29395ION     NA48929  12.644  14.014   5.530  0.1438  0.1821 -0.1465
29396ION     NA48930  12.921  12.784  10.800 -0.0729  0.4195  0.1176
29397ION     NA48931  13.658   8.808   4.582  0.0666 -0.1290 -0.0060
29398ION     NA48932  15.752   7.260  10.854 -0.2038  0.2622  0.3746
29399ION     NA48933  14.506   9.647  10.571 -0.2027 -0.0560 -0.0520
29400ION     NA48934   6.866   1.734   2.888 -0.0919  0.1320 -0.0356
29401ION     NA48935  12.623   4.845  12.376 -0.2233 -0.1355  0.0934
29402ION     NA48936   4.477   1.203  12.405 -0.1440  0.1150  0.2069
29403ION     NA48937   6.798   6.524  10.494 -0.0350  0.4912 -0.0935
29404ION     NA48938   8.540  13.163  10.556 -0.0389  0.2161  0.0346
29405ION     NA48939  13.616   6.511   5.368  0.1687  0.1320  0.0158
29406ION     NA48940   4.878   2.115   5.309  0.3092 -0.0214  0.0358
29407ION     NA48941   3.373   2.943  10.572  0.0768  0.3338  0.1044
29408ION     NA48942   0.383  12.445   5.180 -0.2198  0.1032  0.0315
29409ION     NA48943  17.127  14.238   1.346  0.2306  0.1224 -0.0853
29410ION     NA48944   1.692   9.132   5.283  0.0702  0.3277 -0.3118
29411ION     NA48945  16.048  14.829  10.437  0.0507 -0.0179 -0.0945
29412ION     NA48946   9.316   5.120  11.326 -0.2882  0.0268 -0.1597
29413ION     NA48947   8.148  17.233   2.551  0.0672  0.0744 -0.2533
29414ION     NA48948   5.638  11.994  12.949 -0.2468 -0.0619  0.1291
29415ION     NA48949   3.350  12.991  11.821  0.3518  0.1599 -0.0177
29416ION     NA48950   5.154  14.746  12.948 -0.3905 -0.1034  0.1712
29417ION     NA48951   4.209  14.663  12.996 -0.3278 -0.0525  0.1887
29418ION     NA48952  16.448   0.828  15.276  0.0526 -0.1572  0.1672
29419ION     NA48953  16.631  16.673   2.041  0.0417 -0.1809 -0.0431
29420ION     NA48954  17.260  11.034   1.532  0.0402  0.1891  0.0378
29421ION     NA48955   9.673  13.216   1.344 -0.0805  0.3249  0.1130
29422ION     NA48956   6.461  10.129   4.216  0.1045  0.2976 -0.0497
29423ION     NA48957   1.573  13.409   5.602 -0.1614 -0.1308 -0.0588
29424ION     NA48958  13.082  16.599  10.520  0.0565  0.0937 -0.0827
29425ION     NA48959  15.010  15.294   1.886  0.0432 -0.3532 -0.0214
29426ION     NA48960  11.497   7.321  14.612 -0.1529 -0.0156 -0.3425
29427ION     NA48961   2.945  15.057   0.513  0.3028 -0.1152  0.3243
29428ION     NA48962  17.713  15.753   1.702  0.1863 -0.0939  0.0974
29429ION     NA48963   5.052   2.515  10.688 -0.2571 -0.2779  0.0659
29430ION     NA48964  15.109   9.204   5.210 -0.1356  0.0127  0.0780
29431ION     NA48965  11.976   1.223   0.418 -0.3102 -0.0578  0.0638
29432ION     NA48966   7.289   5.722   1.683 -0.1204 -0.0895  0.0037
29433ION     NA48967   2.272   1.187  13.590  0.0590 -0.1779 -0.1359
29434ION     NA48968   1.581   4.485   0.408 -0.0489  0.1825  0.2867
29435ION     NA48969   5.718  10.348  11.321 -0.3546  0.4474 -0.3616
29436ION     NA48970  15.801  11.489  10.200  0.0199 -0.1587  0.5983
29437ION     NA48971   6.054  14.412  10.813  0.0212  0.2548 -0.3193
29438ION     NA48972  11.774   3.674  10.683  0.0419 -0.0434  0.1469
29439ION     NA48973   6.161   0.396   1.823  0.2431  0.1772  0.1373
29440ION     NA48974  16.150   1.240   0.234  0.3376  0.1218 -0.0282
29441ION     NA48975  14.808   8.723   4.384 -0.0225  0.2810  0.0087
29442ION     NA48976   1.934   9.729   3.591 -0.1789 -0.1047  0.1205
29443ION     NA48977   5.579   7.986  13.799 -0.0862  0.0352  0.0248
29444ION     NA48978  12.779   1.405   3.798 -0.0113 -0.1289  0.1085
29445ION     NA48979   0.235   6.916   0.078  0.1451 -0.0881  0.0079
29446ION     NA48980  17.567  12.537  11.627  0.0672  0.0509  0.0514
29447ION     NA48981   0.415  16.262   5.593 -0.0482 -0.2128  0.2000
29448ION     NA48982  15.011  17.071   5.156  0.3338  0.0165  0.0991
29449ION     NA48983   4.880   3.701  14.672 -0.2181 -0.1476 -0.0569
29450ION     NA48984   4.388  11.735   4.031 -0.2207 -0.4252 -0.1474
29451ION     NA48985   5.476  16.961  10.774 -0.0968  0.3008  0.2200
29452ION     NA48986  17.557   7.055  12.349  0.1313 -0.1345 -0.2191
29453ION     NA48987  10.410  13.130   0.410 -0.0564 -0.0801 -0.1628
29454ION     NA48988   3.845   5.808  14.671  0.4605  0.0731 -0.1038
29455ION     NA48989   9.374  17.221  10.671 -0.3351 -0.1288 -0.0740
29456ION     NA48990  13.398  10.230   3.245 -0.0331  0.1979 -0.1287
29457ION     NA48991   9.096   7.312   5.490  0.0356 -0.0543 -0.2188
29458ION     NA48992   1.384  12.462   5.285  0.3174  0.3022 -0.0406
29459ION     NA48993   6.843   2.490   5.600 -0.0828 -0.1398  0.1370
29460ION     NA48994   7.076   4.053  15.430  0.0492  0.5275  0.2728
29461ION     NA48995  13.781   9.078   0.382 -0.1702 -0.0324  0.1373
29462ION     NA48996   0.443  13.878   0.122  0.4696  0.0256 -0.4116
29463ION     NA48997  14.423   0.517  10.784  0.0984 -0.0151  0.1947
29464ION     NA48998   8.588   2.596   5.624 -0.1492  0.0648 -0.2017
29465ION     NA48999  16.196   7.816  13.845 -0.3692 -0.0348  0.3976
29466ION     NA49000   1.584  16.305   2.261 -0.0280 -0.0181  0.0019
29467ION     NA49001  18.179  16.600  15.787  0.0267  0.0235  0.1755
29468ION     NA49002   2.709   3.696  10.566 -0.2233 -0.3797 -0.3097
29469ION     NA49003  10.830   1.944   5.841 -0.2334  0.2017  0.0209
29470ION     NA49004   3.019  17.734   0.610 -0.3643  0.1182  0.0314
29471ION     NA49005   9.524   3.389   4.251  0.1202  0.1074  0.2403
29472ION     NA49006   9.884   4.413   4.940 -0.3961  0.0650  0.0730
29473ION     NA49007   1.943  16.461   4.623 -0.0267  0.0472  0.0244
29474ION     NA49008   6.101   4.244  15.235  0.2082 -0.2617  0.0527
29475ION     NA49009   4.938  14.177   1.723  0.0065  0.1227  0.0505
29476ION     NA49010   9.456  16.134   1.357  0.0065 -0.0325  0.0688
29477ION     NA49011   4.423   6.709   1.377 -0.0357  0.0997  0.1180
29478ION     NA49012  14.097   5.487  12.760 -0.1381  0.3875 -0.0735
29479ION     NA49013   9.986  15.197  10.737  0.1791 -0.2289  0.0174
29480ION     NA49014  13.063  11.924   3.487  0.1820 -0.2808 -0.1026
29481ION     NA49015   8.559   6.097   1.446 -0.2899 -0.1806 -0.3985
29482ION     NA49016   2.936   0.254   5.390 -0.0200 -0.0687 -0.2799
29483ION     NA49017   5.845  18.038  14.385 -0.0193  0.0033  0.4346
29484ION     NA49018   9.756   5.529   5.573  0.0148 -0.0448  0.0768
29485ION     NA49019   9.401   1.155  10.687 -0.3319  0.0083  0.0552
29486ION     NA49020  11.118   6.422  10.686 -0.1341 -0.1726  0.2773
29487ION     NA49021   7.037   9.155   0.182  0.2167  0.0906 -0.0284
29488ION     NA49022   9.743  11.871  10.233  0.0111  0.1081 -0.5113
29489ION     NA49023  12.698   7.770   5.234  0.3468 -0.1784 -0.0340
29490ION     NA49024   4.887   0.854   0.471  0.2870 -0.0016  0.0762
29491ION     NA49025  16.985   3.063   1.398  0.1006 -0.0062  0.1782
29492ION     NA49026   7.147  13.746   3.434  0.1649  0.0157  0.0730
29493ION     NA49027  17.135   2.757   5.357  0.1385 -0.0665 -0.2199
29494ION     NA49028  15.333   2.229  12.497  0.0213 -0.1486  0.2906
29495ION     NA49029   9.494  12.839  12.043 -0.2310  0.0718 -0.0154
29496ION     NA49030  11.592  15.713  13.666  0.0763 -0.2682 -0.1498
29497ION     NA49031   4.918   0.922   4.762 -0.3024  0.2025 -0.1161
29498ION     NA49032   5.191  16.493   5.542  0.0830  0.1193  0.0740
29499ION     NA49033   7.058   0.551  15.195  0.0776  0.0401 -0.1022
29500ION     NA49034   2.659   6.231  10.396  0.2388 -0.3268  0.0085
29501ION     NA49035  16.923  13.432   2.611 -0.0257 -0.0145  0.1023
29502ION     NA49036  16.527  17.539  10.642 -0.0590  0.2616 -0.0727
29503ION     NA49037   2.765   3.812  15.713 -0.1291  0.1272 -0.1437
29504ION     NA49038   2.030   2.121   5.501  0.0956 -0.3227  0.0774
29505ION     NA49039   3.905  17.303   1.205 -0.0910 -0.3014  0.2036
29506ION     NA49040   8.303   1.310  10.477  0.1273 -0.0545 -0.1137
29507ION     NA49041   1.821   2.693  12.412 -0.1779  0.0448  0.2076
29508ION     NA49042   9.977   1.254  13.973  0.2884  0.1860 -0.2612
29509ION     NA49043  13.586  14.374   1.663  0.3253  0.0527  0.0303
29510ION     NA49044   5.850  16.124  12.978 -0.2357 -0.1408 -0.0491
29511ION     NA49045   2.542  14.693  10.759 -0.1689  0.2177 -0.0330
29512ION     NA49046  11.453  13.423  13.777  0.0229  0.1202  0.0375
29513ION     NA49047   5.509   5.096  10.332 -0.0863  0.0561 -0.2649
29514ION     NA49048   5.903   9.101   2.746 -0.2609 -0.1780 -0.2560
29515ION     NA49049  10.682   7.954  10.397 -0.1867 -0.0460  0.0946
29516ION     NA49050  12.543  14.920   5.601 -0.0743  0.0582 -0.1715
29517ION     NA49051   4.156   6.752  15.415  0.0673 -0.0506  0.0282
29518ION     NA49052  14.391   7.137  13.486  0.1619 -0.0388  0.0803
29519ION     NA49053   9.020   6.638  10.830 -0.2187 -0.3244  0.0921
29520ION     NA49054   2.862   4.920   2.181 -0.1630 -0.0628  0.0717
29521ION     NA49055   0.537  15.786  14.174  0.0373 -0.0568 -0.0913
29522ION     NA49056   0.558   4.143   1.264  0.1286  0.1652 -0.1294
29523ION     NA49057  13.284   2.329   5.389 -0.2789  0.0453  0.1371
29524ION     NA49058  12.799  13.323   4.219  0.0332 -0.1471  0.0592
29525ION     NA49059   4.229  15.453  11.270 -0.3741  0.0195  0.3076
29526ION     NA49060  11.090  12.179   5.086 -0.2174 -0.1152  0.0156
29527ION     NA49061   2.595   6.650   4.315 -0.0713  0.2288 -0.0272
29528ION     NA49062   8.624   6.072   0.342  0.1247 -0.3049  0.5056
29529ION     NA49063   7.009  16.266   4.642 -0.2911 -0.1589 -0.3193
29530ION     NA49064  10.709   2.022  13.517  0.0058 -0.0362 -0.0103
29531ION     NA49065   7.292  11.533   1.196 -0.0709 -0.0268 -0.2771
29532ION     NA49066   9.904   3.649  10.656  0.0302  0.1460 -0.0319
29533ION     NA49067  14.648   4.888  10.786 -0.0038  0.1138 -0.2553
29534ION     NA49068   6.796   1.461  15.612 -0.1153  0.0982 -0.0797
29535ION     NA49069  16.407   2.300   4.995 -0.2019 -0.1192 -0.0796
29536ION     NA49070   8.516   0.254   4.848  0.0814  0.2161 -0.2723
29537ION     NA49071   8.302  15.047   5.658 -0.2749 -0.0562 -0.0320
29538ION     NA49072   3.367  10.002  10.299 -0.0562  0.1481  0.2468
29539ION     NA49073   5.346   8.382   0.215 -0.3122 -0.1681  0.2144
29540ION     NA49074   9.775   9.068   1.082  0.0486 -0.2141  0.3279
29541ION     NA49075   3.307  13.525   3.405 -0.0124 -0.0709  0.2517
29542ION     NA49076  16.337   3.772  10.269 -0.0112 -0.0220 -0.3101
29543ION     NA49077   1.675   9.429  15.079  0.0825  0.1579 -0.0144
29544ION     NA49078   9.611   4.284   5.592 -0.0070  0.0020  0.2669
29545ION     NA49079   8.160   9.940  14.411 -0.2025  0.0646  0.1055
29546ION     NA49080  15.088   9.839   2.662 -0.1956 -0.1065  0.0362
29547ION     NA49081  13.824   1.384  12.622 -0.0015  0.1526  0.2702
29548ION     NA49082   8.564  15.967  10.562  0.1613 -0.1613  0.1585
29549ION     NA49083   3.760  11.613  10.503 -0.1544  0.0384 -0.1307
29550ION     NA49084   9.475  11.127   2.225 -0.0030 -0.1560  0.2371
29551ION     NA49085   5.673   5.632   4.473  0.0264  0.0216 -0.2568
29552ION     NA49086   0.150  14.447   5.173 -0.2753  0.0972  0.2047
29553ION     NA49087  14.992  11.735  10.003  0.1144  0.0292 -0.0932
29554ION     NA49088   4.946   7.834   5.194  0.2958 -0.2604  0.1050
29555ION     NA49089  18.373   7.819   0.218 -0.1272 -0.5660 -0.1034
29556ION     NA49090   9.578  14.990   0.610  0.0869 -0.0491 -0.1194
29557ION     NA49091  11.063  10.647  12.052  0.2491  0.2706  0.2677
29558ION     NA49092   7.321   8.607   5.464 -0.0244  0.1351 -0.1048
29559ION     NA49093  13.675   4.816   2.247  0.0690 -0.0224 -0.0742
29560ION     NA49094  10.785  18.391  13.755  0.1447 -0.2653  0.0794
29561ION     NA49095   8.971   7.054  14.516 -0.2309  0.1156 -0.1615
29562ION     NA49096   3.399   7.361  10.489  0.1431 -0.1297 -0.0669
29563ION     NA49097   0.033   7.034  10.648  0.0745  0.1362  0.1533
29564ION     NA49098  12.593  14.109  15.774 -0.0570 -0.1484 -0.0885
29565ION     NA49099   8.788   5.080  10.608 -0.2304 -0.2576 -0.2238
29566ION     NA49100   1.665  10.415  10.552 -0.1757 -0.1471 -0.3304
29567ION     NA49101   5.802  14.859   5.238  0.0165  0.0826  0.2017
29568ION     NA49102  14.841  18.263  10.971  0.3408  0.2063 -0.1481
29569ION     NA49103   7.365   0.297  12.726  0.0882  0.1386  0.0477
29570ION     NA49104   5.151   1.252   5.364  0.1722 -0.1223 -0.0065
29571ION     NA49105   2.004  14.185  15.803 -0.0975 -0.1754 -0.0106
29572ION     NA49106  12.075   8.348  10.518 -0.1753  0.0858 -0.1887
29573ION     NA49107  12.121   2.392  14.384 -0.2430  0.0170  0.1142
29574ION     NA49108   8.192   0.413  10.515 -0.3214 -0.2458  0.0439
29575ION     NA49109  10.933   4.269  10.742  0.2046 -0.1644  0.2396
29576ION     NA49110  15.156   3.443   0.463 -0.1442  0.3191  0.0711
29577ION     NA49111  16.906  13.601   5.220  0.2599  0.1996 -0.1606
29578ION     NA49112  11.542   0.523  12.881 -0.0050 -0.0528 -0.0201
29579ION     NA49113   9.482   6.084  11.370 -0.2634  0.1130 -0.5306
29580ION     NA49114   9.682  15.469  13.360  0.0201  0.0662 -0.1492
29581ION     NA49115   2.943  12.767  10.504 -0.2795  0.0982  0.0263
29582ION     NA49116   0.838  14.996  10.563  0.1109  0.1338 -0.4202
29583ION     NA49117  12.516   8.279   5.163 -0.0107 -0.1324  0.1874
29584ION     NA49118   6.498   8.590  10.680 -0.0008  0.1422  0.0586
29585ION     NA49119   7.062   5.886  15.139  0.0158  0.2567 -0.0096
29586ION     NA49120   4.687   5.699  15.521 -0.1700  0.0651 -0.2181
29587ION     NA49121   2.523   7.390   5.061  0.3221 -0.0343  0.2225
29588ION     NA49122  15.708   5.472   5.286 -0.1646 -0.1131 -0.0998
29589ION     NA49123   6.999  10.559  14.032 -0.1322  0.0223 -0.1852
29590ION     NA49124   0.642  17.739  15.204  0.1675 -0.0735 -0.3234
29591ION     NA49125   4.611  11.651  10.553 -0.0545  0.0227 -0.3047
29592ION     NA49126   3.138   4.607  10.376  0.3094 -0.0565 -0.3009
29593ION     NA49127   5.256   9.311   5.260 -0.0182 -0.3143 -0.0340
29594ION     NA49128  17.302  10.793  10.649  0.1866  0.1087  0.1252
29595ION     NA49129   6.555   1.471  10.753 -0.2569 -0.0583  0.0184
29596ION     NA49130   2.376  15.090  15.160  0.0180  0.1644 -0.0168
29597ION     NA49131  13.951  14.548  10.654 -0.1768  0.1565 -0.2548
29598ION     NA49132  18.234   2.735   1.927 -0.2688  0.1276  0.3627
29599ION     NA49133  12.933   6.333   1.855  0.0464  0.0069 -0.1508
29600ION     NA49134  11.716  18.246  10.667  0.0094 -0.0114 -0.0880
29601ION     NA49135  18.206  10.728  10.891  0.2996 -0.2588 -0.1809
29602ION     NA49136   3.163   0.421   0.604  0.0509  0.0122  0.0459
29603ION     NA49137  11.514   1.111   5.526  0.0266 -0.0815  0.0474
29604ION     NA49138   6.871  13.333   5.671  0.1006 -0.2156 -0.1586
29605ION     NA49139  15.882  15.421   3.179  0.3107  0.1754  0.0731
29606ION     NA49140  15.530  12.282   3.400 -0.0120  0.0634  0.1278
29607ION     NA49141  16.671  12.670  14.935  0.3601 -0.1399 -0.1637
29608ION     NA49142  17.754   8.492   4.947 -0.0129 -0.1263  0.0038
29609ION     NA49143  17.293   0.343   5.003 -0.0671  0.0612 -0.2004
29610ION     NA49144   7.253   8.257  10.873 -0.0307  0.0941  0.0747
29611ION     NA49145  16.037  13.058   0.723  0.0868  0.0446  0.1462
29612ION     NA49146  17.205  11.524  12.384 -0.1332  0.0003  0.0662
29613ION     NA49147  13.318  16.555   1.241  0.0501  0.1619  0.4004
29614ION     NA49148  13.684   1.874   5.063  0.0642 -0.0186 -0.3239
29615ION     NA49149   0.469   4.718  15.198  0.0140 -0.0843  0.4293
29616ION     NA49150  10.584   9.997  13.807 -0.2318  0.0889  0.2209
29617ION     NA49151  11.848  11.017  14.933  0.1288  0.2290  0.4580
29618ION     NA49152   2.700   1.307  14.975 -0.0017  0.0180  0.0130
29619ION     NA49153  10.882   9.730   5.182  0.3579  0.0983 -0.0459
29620ION     NA49154  14.771   2.968   1.982 -0.2280 -0.0010 -0.2030
29621ION     NA49155   3.567  14.234  10.887  0.0211  0.0303  0.1441
29622ION     NA49156   6.151   6.068  15.651 -0.0014  0.0523  0.1781
29623ION     NA49157  14.339   6.876   0.044 -0.0228 -0.0869 -0.2590
29624ION     NA49158   5.624   1.854   5.681  0.0091  0.0994  0.3984
29625ION     NA49159   1.815   1.407   1.214  0.1226 -0.1200  0.0411
29626ION     NA49160  12.502   8.305  12.765  0.2327  0.0816  0.0905
29627ION     NA49161  11.694   1.717  13.728  0.0650 -0.3272 -0.1024
29628ION     NA49162   2.731   0.659  12.285  0.2038  0.1267 -0.3592
29629ION     NA49163   9.812  10.612   5.187  0.3748 -0.1740 -0.0909
29630ION     NA49164  14.548   2.451  13.097  0.0635  0.1312  0.1192
29631ION     NA49165   8.448  13.092   5.819  0.2176  0.4226 -0.0881
29632ION     NA49166   5.695   9.516   5.358 -0.0955  0.0079 -0.3246
29633ION     NA49167   2.752   7.983  10.253 -0.0776 -0.1502 -0.1677
29634ION     NA49168  12.685  13.003   5.380 -0.1441  0.2698  0.0046
29635ION     NA49169  18.114   6.852   5.222 -0.0444 -0.1894  0.2404
29636ION     NA49170  16.343  12.699  12.872 -0.0760  0.1288 -0.0661
29637ION     NA49171  12.233   7.983  15.534 -0.0641 -0.1526  0.2547
29638ION     NA49172  12.539   2.361  10.730 -0.3008 -0.0316 -0.0325
29639ION     NA49173   2.178   5.655  10.457  0.0547 -0.3948 -0.2039
29640ION     NA49174   2.821  17.272  12.346 -0.3804 -0.0488 -0.3304
29641ION     NA49175   1.073   4.326   5.154 -0.0958 -0.0081 -0.0327
29642ION     NA49176  13.011  15.840   5.679  0.0172 -0.0648  0.1606
29643ION     NA49177   2.986  14.954  10.739  0.0886  0.1185  0.0388
29644ION     NA49178  18.045  14.708   5.124 -0.4116 -0.1315 -0.0024
29645ION     NA49179   5.789  12.958   2.397  0.0332 -0.2820 -0.0878
29646ION     NA49180  14.703  10.514  13.409  0.3619 -0.1784 -0.2734
29647ION     NA49181   4.439   3.413  12.244  0.1017 -0.3517 -0.2345
29648ION     NA49182   2.140  12.145   0.368 -0.0943 -0.0167 -0.0868
29649ION     NA49183  17.731  11.007   5.251  0.1873 -0.3096  0.1379
29650ION     NA49184  17.859  13.501  13.753 -0.1121 -0.2760  0.0854
29651ION     NA49185  18.345  15.839   0.686  0.1480 -0.0610  0.2081
29652ION     NA49186  10.849  10.036  12.795 -0.2144 -0.0002 -0.0380
29653ION     NA49187  13.305  11.648  12.243 -0.0688  0.0295  0.1300
29654ION     NA49188  13.741  12.386  10.672  0.1662 -0.0119  0.0534
29655ION     NA49189  10.647  14.474  12.613 -0.0838  0.1857  0.1005
29656ION     NA49190  12.381  11.801  10.581 -0.2483  0.0685  0.1741
29657ION     NA49191   9.619  15.184  12.539 -0.0509 -0.0249  0.0905
29658ION     NA49192   4.428   9.509  12.906 -0.0528 -0.2037  0.1817
29659ION     NA49193  13.407   3.334   5.361 -0.0542  0.1109 -0.1351
29660ION     NA49194  15.667  13.854   1.946 -0.4175  0.2999  0.2440
29661ION     NA49195   1.109  12.955  10.665 -0.0110 -0.3711 -0.2231
29662ION     NA49196   0.193  11.649  10.703 -0.1428  0.2464 -0.0670
29663ION     NA49197  10.412  18.014  12.908 -0.2045 -0.4185 -0.1584
29664ION     NA49198   6.606   7.850   2.583  0.0543  0.0961 -0.0046
29665ION     NA49199  17.012   5.437  10.184  0.2558 -0.3499 -0.0893
29666ION     NA49200  10.561  16.917   2.552 -0.2487  0.0459  0.1045
29667ION     NA49201   2.167   3.067   5.498  0.3885  0.2046  0.2742
29668ION     NA49202   0.572   8.341   2.470 -0.2005 -0.1360  0.1026
29669ION     NA49203  10.803  11.748   5.183  0.0314 -0.1506  0.1664
29670ION     NA49204  17.906   9.235   0.539  0.1613 -0.1625 -0.0974
29671ION     NA49205   9.455  12.837  10.325 -0.1378  0.1311  0.0509
29672ION     NA49206   2.676  16.242  11.902  0.0701 -0.2689 -0.2081
29673ION     NA49207   0.105   3.910  10.271  0.0028  0.0603  0.3812
29674ION     NA49208   2.716  18.314   1.465  0.0722 -0.0366  0.0752
29675ION     NA49209   0.033  17.927   5.139  0.1759 -0.3558  0.1438
29676ION     NA49210   7.842   0.543   1.614 -0.0423 -0.0886  0.0675
29677ION     NA49211  18.021   2.758   5.189 -0.1794  0.1413 -0.0126
29678ION     NA49212   3.109   4.684   5.568 -0.1685 -0.1435 -0.2357
29679ION     NA49213   1.374  10.457   5.164  0.1618  0.1544  0.0160
29680ION     NA49214   9.996   1.799   5.716 -0.1361  0.0465  0.1339
29681ION     NA49215   7.729   4.506  12.346  0.0777  0.1027 -0.0033
29682ION     NA49216   2.285   8.049  12.861 -0.1516  0.0981 -0.0684
29683ION     NA49217  11.108  15.543  15.585 -0.1361 -0.3153  0.0015
29684ION     NA49218  17.942   8.627   1.602 -0.4580 -0.0732 -0.0902
29685ION     NA49219   3.406  12.496  14.811 -0.0312  0.0418  0.0211
29686ION     NA49220   7.168   9.036  10.582  0.1772 -0.1626 -0.3052
29687ION     NA49221   3.806   5.401   2.787 -0.0528  0.1075 -0.0841
29688ION     NA49222  10.694  10.909  14.504  0.0303 -0.2671 -0.2389
29689ION     NA49223  16.314   8.070   0.587  0.0468 -0.1714 -0.0381
29690ION     NA49224  10.025   6.902  11.295  0.1265  0.0902  0.1431
29691ION     NA49225   2.174   2.268  12.155  0.2280 -0.1176 -0.1967
29692ION     NA49226   8.935   2.023   2.668  0.2135  0.3332 -0.1942
29693ION     NA49227   7.845   7.030  11.149  0.2098  0.1729  0.0409
29694ION     NA49228   5.938  13.753  12.170  0.0448  0.0181  0.5602
29695ION     NA49229  12.056   9.436  13.500  0.2679  0.1351 -0.3853
29696ION     NA49230   6.293  11.466  10.532  0.0727  0.0805 -0.0957
29697ION     NA49231  13.736  11.032  15.214 -0.2295  0.1504 -0.1817
29698ION     NA49232   7.167   5.111  14.953 -0.2106  0.1753  0.0121
29699ION     NA49233  13.773   9.410   5.113 -0.0652 -0.0850 -0.1792
29700ION     NA49234   4.389   6.150  10.698  0.3216 -0.1160  0.0607
29701ION     NA49235  14.860   2.427   4.994  0.0857 -0.1407 -0.0394
29702ION     NA49236  15.403   3.498  10.340 -0.4472  0.1451  0.0264
29703ION     NA49237   3.993  14.412   1.608  0.1544 -0.0126 -0.0019
29704ION     NA49238   3.742   7.076  11.877 -0.0120 -0.0334 -0.0964
29705ION     NA49239   3.371   8.369  12.876  0.0506  0.2106 -0.0109
29706ION     NA49240  15.083  13.519  12.757 -0.2578  0.1355  0.1256
29707ION     NA49241   0.862  15.188  11.053 -0.0896 -0.2444  0.0814
29708ION     NA49242  13.022   4.985  15.650  0.3075 -0.0295  0.0443
29709ION     NA49243   5.680  12.214   5.362 -0.1073  0.1644  0.2410
29710ION     NA49244  15.448  12.564  15.589  0.3133  0.2624  0.1815
29711ION     NA49245  13.914   0.047   5.490 -0.1462  0.1122  0.0604
29712ION     NA49246   4.958   5.806  13.129  0.1266 -0.2881  0.0004
29713ION     NA49247   6.692   6.507   5.017 -0.0013 -0.1090 -0.1786
29714ION     NA49248  17.353  15.502   1.035  0.0802  0.0663  0.0717
29715ION     NA49249   0.732   7.810   1.558 -0.3988  0.0375 -0.1941
29716ION     NA49250  17.375   1.410  10.499  0.1954 -0.0209  0.2289
29717ION     NA49251  13.545  15.020   5.717 -0.0235 -0.1497 -0.0305
29718ION     NA49252   7.770  17.437  11.646  0.1696 -0.1068 -0.0311
29719ION     NA49253   8.829  12.035  10.392 -0.0027 -0.1898  0.2733
29720ION     NA49254  12.931   6.709  10.370  0.1506 -0.2192 -0.0335
29721ION     NA49255   6.973  10.339   1.802  0.0735 -0.1361  0.2695
29722ION     NA49256   2.544   7.163  10.595 -0.0060 -0.1633  0.1049
29723ION     NA49257  11.783  15.451   5.161  0.0352 -0.1901 -0.1664
29724ION     NA49258  15.842   2.311   0.308 -0.3460 -0.1834 -0.0004
29725ION     NA49259  17.230  11.712   5.440  0.1972  0.2351 -0.0761
29726ION     NA49260  16.210  12.315   1.120 -0.0151 -0.0532 -0.0457
29727ION     NA49261   1.710   8.838   4.417  0.0196  0.0235 -0.0975
29728ION     NA49262   4.741   9.945  10.030 -0.1165 -0.1016  0.2602
29729ION     NA49263   5.951   8.275  12.819 -0.2618 -0.1212 -0.0684
29730ION     NA49264  13.239   1.841   1.288 -0.1527  0.0394  0.1674
29731ION     NA49265  17.492  13.571   0.791  0.0835 -0.5447 -0.2265
29732ION     NA49266  17.611   9.409  15.029  0.3251  0.3377 -0.0762
29733ION     NA49267   4.622  14.867   5.406  0.3991  0.3566 -0.1576
29734ION     NA49268   2.621  12.203   2.050  0.2935 -0.0240  0.1165
29735ION     NA49269  11.027   5.382   5.266 -0.4347 -0.0060  0.0354
29736ION     NA49270  17.576  15.456   5.489  0.0070 -0.1445  0.1742
29737ION     NA49271   4.045   2.249  10.985 -0.1543 -0.0612  0.1825
29738ION     NA49272  17.217   9.677   4.797  0.4035 -0.0332  0.4747
29739ION     NA49273  15.854   1.921  10.570 -0.2193  0.3152  0.3570
29740ION     NA49274   5.043   5.071  14.502  0.2420  0.3736 -0.0262
29741ION     NA49275  14.270   8.725   5.237  0.0927 -0.1356 -0.0084
29742ION     NA49276   8.569  17.429  10.610 -0.0562 -0.1019 -0.0113
29743ION     NA49277   4.499  15.725  13.652  0.1639 -0.0408 -0.3113
29744ION     NA49278  10.715   0.106   0.322  0.0369 -0.2371 -0.3358
29745ION     NA49279  16.518   1.371  10.701 -0.3634 -0.0584  0.0190
29746ION     NA49280  16.285  17.873   3.518 -0.2157  0.0876 -0.2568
29747ION     NA49281   0.531   1.003  14.609 -0.0915 -0.2317  0.4687
29748ION     NA49282  18.158   0.116  10.941 -0.0705 -0.2795  0.0091
29749ION     NA49283   1.097   1.013  10.400 -0.0341  0.2384 -0.0618
29750ION     NA49284   0.946  10.443   1.054 -0.2580  0.1830 -0.5331
29751ION     NA49285  13.462  17.734   5.652  0.4275 -0.1799  0.4062
29752ION     NA49286   2.398   4.292  12.295  0.1524  0.2427  0.0039
29753ION     NA49287  15.047   5.210  10.159 -0.0069  0.2402  0.3859
29754ION     NA49288   7.359   6.709   4.349  0.0869 -0.0860  0.4642
29755ION     NA49289  11.328   1.948  10.817 -0.4028  0.6502 -0.1091
29756ION     NA49290  18.333   3.210  14.636  0.0774 -0.1045 -0.3382
29757ION     NA49291   8.268   7.016   5.557 -0.0780  0.0790 -0.0656
29758ION     NA49292  11.625   0.968  10.876  0.0496 -0.1240 -0.0369
29759ION     NA49293   4.051   2.625  11.832 -0.3348 -0.1981 -0.0538
29760ION     NA49294   5.914   7.861   5.338  0.1145 -0.1243 -0.0167
29761ION     NA49295  17.635   1.844   5.147 -0.3274 -0.0318  0.0330
29762ION     NA49296   5.852  15.742  15.182 -0.0334 -0.2994  0.2073
29763ION     NA49297   4.341  13.657   1.975 -0.2899 -0.1799 -0.1436
29764ION     NA49298  17.184  14.516   5.224 -0.1243 -0.2748  0.2398
29765ION     NA49299   3.436  12.625   3.273  0.1453  0.2911 -0.1029
29766ION     NA49300   8.615   0.203  12.619  0.0098  0.0315 -0.1717
29767ION     NA49301  18.189   4.836  15.691  0.0101 -0.2607  0.1175
29768ION     NA49302   5.766   1.013   3.164  0.0565  0.1635 -0.2961
29769ION     NA49303  16.211  11.750   5.384 -0.0378  0.0872 -0.0095
  18.40264  18.40264  15.84034
